<event>
 7    1  0.5977291E-006  0.6548231E+02  0.7818608E-02  0.1499437E+00
          2   -1    0    0  502    0  0.00000000000E+00  0.00000000000E+00  0.19703322305E+04  0.19703322305E+04  0.00000000000E+00 0. -1.
          1   -1    0    0  501    0 -0.00000000000E+00 -0.00000000000E+00 -0.10877073801E+03  0.10877073801E+03  0.00000000000E+00 0. -1.
         25    2    1    2    0    0 -0.27785039371E+02 -0.80640017526E+02  0.33188473156E+03  0.36475694462E+03  0.12500133105E+03 0.  0.
          2    1    1    2  501    0  0.33794914970E+02  0.55401331973E+02 -0.80814675051E+02  0.10364562492E+03  0.00000000000E+00 0. -1.
          1    1    1    2  502    0 -0.60098755993E+01  0.25238685553E+02  0.16104914360E+04  0.16107003990E+04  0.00000000000E+00 0. -1.
         22    1    3    3    0    0  0.19484001353E+02  0.26958492995E+02  0.61065042048E+02  0.69536508494E+02  0.00000000000E+00 0. -1.
         22    1    3    3    0    0 -0.47269040723E+02 -0.10759851052E+03  0.27081968952E+03  0.29522043613E+03  0.00000000000E+00 0. -1.
</event>
<event>
 7    1  0.5977291E-006  0.3369177E+02  0.7818608E-02  0.1577248E+00
          2   -1    0    0  502    0  0.00000000000E+00  0.00000000000E+00  0.93549592869E+03  0.93549592869E+03  0.00000000000E+00 0. -1.
          1   -1    0    0  501    0 -0.00000000000E+00 -0.00000000000E+00 -0.11612773253E+03  0.11612773253E+03  0.00000000000E+00 0. -1.
         25    2    1    2    0    0  0.25320502578E+02 -0.41640571360E+02  0.79653473455E+03  0.80775490141E+03  0.12500132952E+03 0.  0.
          2    1    1    2  501    0 -0.28340070907E+02  0.10839746638E+02 -0.10657545438E+03  0.11081059156E+03  0.00000000000E+00 0. -1.
          1    1    1    2  502    0  0.30195683288E+01  0.30800824721E+02  0.12940891600E+03  0.13305816824E+03  0.00000000000E+00 0. -1.
         22    1    3    3    0    0  0.61247967732E+02 -0.11325990700E+02  0.66793442220E+03  0.67083230690E+03  0.00000000000E+00 0. -1.
         22    1    3    3    0    0 -0.35927465154E+02 -0.30314580660E+02  0.12860031234E+03  0.13692259451E+03  0.00000000000E+00 0. -1.
</event>
<event>
 7    1  0.5977291E-006  0.1626059E+03  0.7818608E-02  0.1287431E+00
          2   -1    0    0  502    0  0.00000000000E+00  0.00000000000E+00  0.54515017788E+03  0.54515017788E+03  0.00000000000E+00 0. -1.
          1   -1    0    0  501    0 -0.00000000000E+00 -0.00000000000E+00 -0.49083689600E+03  0.49083689600E+03  0.00000000000E+00 0. -1.
         25    2    1    2    0    0  0.17219858029E+03  0.12823480049E+03 -0.30024823013E+02  0.25024518869E+03  0.12499859741E+03 0.  0.
          2    1    1    2  501    0 -0.47589460971E+02 -0.32247047894E+02 -0.33394761658E+03  0.33885932113E+03  0.00000000000E+00 0. -1.
          1    1    1    2  502    0 -0.12460911932E+03 -0.95987752595E+02  0.41828572149E+03  0.44688256406E+03  0.00000000000E+00 0. -1.
         22    1    3    3    0    0 -0.20385862701E+01  0.73812707100E+01 -0.37295003100E+02  0.38073038327E+02  0.00000000000E+00 0.  1.
         22    1    3    3    0    0  0.17423716656E+03  0.12085352978E+03  0.72701800862E+01  0.21217215036E+03  0.00000000000E+00 0.  1.
</event>
<event>
 7    1  0.5977291E-006  0.1872444E+03  0.7818608E-02  0.1295754E+00
          2   -1    0    0  502    0  0.00000000000E+00  0.00000000000E+00  0.32731969184E+04  0.32731969184E+04  0.00000000000E+00 0. -1.
          1   -1    0    0  501    0 -0.00000000000E+00 -0.00000000000E+00 -0.25366245601E+03  0.25366245601E+03  0.00000000000E+00 0. -1.
         25    2    1    2    0    0 -0.11155190424E+03  0.17457489319E+03  0.84762700205E+02  0.25638604063E+03  0.12501546228E+03 0.  0.
          2    1    1    2  501    0  0.46185861737E+02  0.34742622319E+00 -0.16180663542E+03  0.16826955100E+03  0.00000000000E+00 0. -1.
          1    1    1    2  502    0  0.65366042506E+02 -0.17492231941E+03  0.30965783976E+04  0.31022037828E+04  0.00000000000E+00 0. -1.
         22    1    3    3    0    0  0.12932057372E+02  0.21850128878E+02 -0.20832615596E+02  0.32843022279E+02  0.00000000000E+00 0. -1.
         22    1    3    3    0    0 -0.12448396162E+03  0.15272476431E+03  0.10559531580E+03  0.22354301835E+03  0.00000000000E+00 0. -1.
</event>
<event>
 7    1  0.5977291E-006  0.6041105E+02  0.7818608E-02  0.1406632E+00
          2   -1    0    0  502    0  0.00000000000E+00  0.00000000000E+00  0.85942579064E+02  0.85942579064E+02  0.00000000000E+00 0. -1.
          1   -1    0    0  501    0 -0.00000000000E+00 -0.00000000000E+00 -0.22023267223E+03  0.22023267223E+03  0.00000000000E+00 0. -1.
         25    2    1    2    0    0  0.83757056527E+01  0.39962439299E+02 -0.74155101825E+02  0.15097657369E+03  0.12501119021E+03 0.  0.
          2    1    1    2  501    0 -0.53911403531E+02  0.13572002134E+02 -0.64046050882E+02  0.84808816206E+02  0.00000000000E+00 0. -1.
          1    1    1    2  502    0  0.45535697878E+02 -0.53534441433E+02  0.39110595382E+01  0.70389861397E+02  0.00000000000E+00 0. -1.
         22    1    3    3    0    0  0.80557855352E+01  0.76128110937E+02 -0.98308427582E+01  0.77181801125E+02  0.00000000000E+00 0. -1.
         22    1    3    3    0    0  0.31992011750E+00 -0.36165671639E+02 -0.64324259067E+02  0.73794772569E+02  0.00000000000E+00 0. -1.
</event>
<event>
 7    1  0.5977291E-006  0.5607135E+02  0.7818608E-02  0.1508230E+00
          2   -1    0    0  502    0  0.00000000000E+00  0.00000000000E+00  0.11222253094E+03  0.11222253094E+03  0.00000000000E+00 0. -1.
          1   -1    0    0  501    0 -0.00000000000E+00 -0.00000000000E+00 -0.53460780242E+03  0.53460780242E+03  0.00000000000E+00 0. -1.
         25    2    1    2    0    0  0.12121310155E+02  0.42844020959E+02 -0.25530762923E+03  0.28773189546E+03  0.12500048731E+03 0.  0.
          2    1    1    2  501    0  0.28344653329E+02 -0.32591540742E+01 -0.25387487422E+03  0.25547307728E+03  0.00000000000E+00 0. -1.
          1    1    1    2  502    0 -0.40465963484E+02 -0.39584866885E+02  0.86797231962E+02  0.10362536062E+03  0.00000000000E+00 0. -1.
         22    1    3    3    0    0  0.25180504151E+02  0.30050186046E+02 -0.26441599749E+03  0.26730673617E+03  0.00000000000E+00 0. -1.
         22    1    3    3    0    0 -0.13059193996E+02  0.12793834913E+02  0.91083682617E+01  0.20425159289E+02  0.00000000000E+00 0. -1.
</event>
<event>
 7    1  0.5977291E-006  0.8152982E+02  0.7818608E-02  0.1394963E+00
          2   -1    0    0  502    0  0.00000000000E+00  0.00000000000E+00  0.32625048292E+04  0.32625048292E+04  0.00000000000E+00 0. -1.
          1   -1    0    0  501    0 -0.00000000000E+00 -0.00000000000E+00 -0.23702484800E+03  0.23702484800E+03  0.00000000000E+00 0. -1.
         25    2    1    2    0    0  0.62397872627E+02  0.31283780808E+01 -0.97859864803E+01  0.14008599999E+03  0.12500016242E+03 0.  0.
          2    1    1    2  501    0 -0.72144079187E+02 -0.47240168771E+02 -0.15044772620E+03  0.17340968838E+03  0.00000000000E+00 0. -1.
          1    1    1    2  502    0  0.97462065603E+01  0.44111790690E+02  0.31857136938E+04  0.31860339888E+04  0.00000000000E+00 0. -1.
         22    1    3    3    0    0 -0.19548171570E+02 -0.11002356352E+02  0.38037633237E+02  0.44159307052E+02  0.00000000000E+00 0.  1.
         22    1    3    3    0    0  0.81946044197E+02  0.14130734433E+02 -0.47823619717E+02  0.95926692938E+02  0.00000000000E+00 0.  1.
</event>
<event>
 7    1  0.5977291E-006  0.5589444E+02  0.7818608E-02  0.1432955E+00
          2   -1    0    0  502    0  0.00000000000E+00  0.00000000000E+00  0.46045060475E+03  0.46045060475E+03  0.00000000000E+00 0. -1.
          1   -1    0    0  501    0 -0.00000000000E+00 -0.00000000000E+00 -0.82802654351E+03  0.82802654351E+03  0.00000000000E+00 0. -1.
         25    2    1    2    0    0 -0.25405472184E+02 -0.85786741928E+02 -0.85194114639E+02  0.17574927235E+03  0.12499986582E+03 0.  0.
          2    1    1    2  501    0 -0.14327383279E+02  0.46932068935E+02 -0.69482598031E+03  0.69655655615E+03  0.00000000000E+00 0. -1.
          1    1    1    2  502    0  0.39732855464E+02  0.38854672993E+02  0.41244415618E+03  0.41617131976E+03  0.00000000000E+00 0. -1.
         22    1    3    3    0    0 -0.36969707873E+01 -0.11524354243E+03 -0.52552741783E+02  0.12671437304E+03  0.00000000000E+00 0. -1.
         22    1    3    3    0    0 -0.21708501397E+02  0.29456800503E+02 -0.32641372856E+02  0.49034899313E+02  0.00000000000E+00 0. -1.
</event>
<event>
 7    1  0.5977291E-006  0.1436192E+03  0.7818608E-02  0.1271348E+00
          2   -1    0    0  502    0  0.00000000000E+00  0.00000000000E+00  0.95774126815E+03  0.95774126815E+03  0.00000000000E+00 0. -1.
          1   -1    0    0  501    0 -0.00000000000E+00 -0.00000000000E+00 -0.14974484924E+03  0.14974484924E+03  0.00000000000E+00 0. -1.
         25    2    1    2    0    0  0.16830318101E+03  0.51481919179E+02  0.50717886042E+03  0.55121026569E+03  0.12500404713E+03 0.  0.
          2    1    1    2  501    0 -0.10605120259E+03 -0.94834404324E+02 -0.83217628347E+02  0.16481988801E+03  0.00000000000E+00 0. -1.
          1    1    1    2  502    0 -0.62251978420E+02  0.43352485146E+02  0.38403518684E+03  0.39145596370E+03  0.00000000000E+00 0. -1.
         22    1    3    3    0    0  0.31952967281E+02  0.46306107170E+02  0.28482477816E+03  0.29032809360E+03  0.00000000000E+00 0. -1.
         22    1    3    3    0    0  0.13635021373E+03  0.51758120085E+01  0.22235408226E+03  0.26088217208E+03  0.00000000000E+00 0. -1.
</event>
<event>
 7    1  0.5977291E-006  0.1277295E+03  0.7818608E-02  0.1250915E+00
          2   -1    0    0  502    0  0.00000000000E+00  0.00000000000E+00  0.16128706227E+03  0.16128706227E+03  0.00000000000E+00 0. -1.
          1   -1    0    0  501    0 -0.00000000000E+00 -0.00000000000E+00 -0.44844752335E+03  0.44844752335E+03  0.00000000000E+00 0. -1.
         25    2    1    2    0    0 -0.11907762294E+03 -0.39787822953E+02 -0.13184063972E+03  0.22083789851E+03  0.12499948798E+03 0.  0.
          2    1    1    2  501    0  0.61618899155E+02 -0.84064196931E+02 -0.21573623477E+03  0.23959507702E+03  0.00000000000E+00 0. -1.
          1    1    1    2  502    0  0.57458723787E+02  0.12385201988E+03  0.60416413407E+02  0.14930161010E+03  0.00000000000E+00 0. -1.
         22    1    3    3    0    0 -0.85593209893E+02  0.32915461111E+02 -0.43088227640E+02  0.10132235943E+03  0.00000000000E+00 0. -1.
         22    1    3    3    0    0 -0.33484413050E+02 -0.72703284064E+02 -0.88752412080E+02  0.11951553908E+03  0.00000000000E+00 0. -1.
</event>
<event>
 7    1  0.5977291E-006  0.1881528E+03  0.7818608E-02  0.1378690E+00
          2   -1    0    0  502    0  0.00000000000E+00  0.00000000000E+00  0.13859848620E+04  0.13859848620E+04  0.00000000000E+00 0. -1.
          1   -1    0    0  501    0 -0.00000000000E+00 -0.00000000000E+00 -0.65870273546E+03  0.65870273546E+03  0.00000000000E+00 0. -1.
         25    2    1    2    0    0  0.11600695807E+03  0.14493909195E+03 -0.32049546175E+02  0.22609295254E+03  0.12500358028E+03 0.  0.
          2    1    1    2  501    0 -0.99770862911E+02 -0.16026004947E+03 -0.51270859905E+03  0.54635850509E+03  0.00000000000E+00 0. -1.
          1    1    1    2  502    0 -0.16236095158E+02  0.15320957521E+02  0.12720402718E+04  0.12722361399E+04  0.00000000000E+00 0. -1.
         22    1    3    3    0    0  0.23519609012E+02  0.12611846072E+03 -0.72051482704E+01  0.12849495050E+03  0.00000000000E+00 0. -1.
         22    1    3    3    0    0  0.92487349057E+02  0.18820631229E+02 -0.24844397904E+02  0.97598002043E+02  0.00000000000E+00 0. -1.
</event>
<event>
 7    1  0.5977291E-006  0.4383570E+03  0.7818608E-02  0.1278142E+00
          2   -1    0    0  502    0  0.00000000000E+00  0.00000000000E+00  0.18921527150E+04  0.18921527150E+04  0.00000000000E+00 0. -1.
          1   -1    0    0  501    0 -0.00000000000E+00 -0.00000000000E+00 -0.14158997396E+04  0.14158997396E+04  0.00000000000E+00 0. -1.
         25    2    1    2    0    0 -0.43767016392E+02  0.41431177358E+03  0.45137699439E+03  0.62684552598E+03  0.12499729967E+03 0.  0.
          2    1    1    2  501    0  0.48136996020E+02 -0.43718355199E+03 -0.12916473223E+04  0.13644777146E+04  0.00000000000E+00 0. -1.
          1    1    1    2  502    0 -0.43699796277E+01  0.22871778416E+02  0.13165233033E+04  0.13167292140E+04  0.00000000000E+00 0. -1.
         22    1    3    3    0    0 -0.78706569496E+02  0.35455274137E+03  0.40233073406E+03  0.54200773986E+03  0.00000000000E+00 0.  1.
         22    1    3    3    0    0  0.34939553104E+02  0.59759032207E+02  0.49046260332E+02  0.84837786121E+02  0.00000000000E+00 0.  1.
</event>
<event>
 7    1  0.5977291E-006  0.6644772E+02  0.7818608E-02  0.1413074E+00
          2   -1    0    0  502    0  0.00000000000E+00  0.00000000000E+00  0.26348423932E+03  0.26348423932E+03  0.00000000000E+00 0. -1.
          1   -1    0    0  501    0 -0.00000000000E+00 -0.00000000000E+00 -0.49460831882E+03  0.49460831882E+03  0.00000000000E+00 0. -1.
         25    2    1    2    0    0  0.18672589609E+01 -0.10148208605E+03 -0.35726908746E+03  0.39187801785E+03  0.12500031829E+03 0.  0.
          2    1    1    2  501    0 -0.26477361835E+02  0.40114028209E+02 -0.11050292300E+03  0.12050345199E+03  0.00000000000E+00 0. -1.
          1    1    1    2  502    0  0.24610102874E+02  0.61368057839E+02  0.23664793097E+03  0.24571108831E+03  0.00000000000E+00 0. -1.
         22    1    3    3    0    0 -0.55229882670E+02 -0.21705335537E+02 -0.96744259654E+02  0.11349411133E+03  0.00000000000E+00 0.  1.
         22    1    3    3    0    0  0.57097141631E+02 -0.79776750511E+02 -0.26052482781E+03  0.27838390652E+03  0.00000000000E+00 0.  1.
</event>
<event>
 7    1  0.5977291E-006  0.1719604E+03  0.7818608E-02  0.1266497E+00
          2   -1    0    0  502    0  0.00000000000E+00  0.00000000000E+00  0.12353090009E+04  0.12353090009E+04  0.00000000000E+00 0. -1.
          1   -1    0    0  501    0 -0.00000000000E+00 -0.00000000000E+00 -0.23920954472E+04  0.23920954472E+04  0.00000000000E+00 0. -1.
         25    2    1    2    0    0  0.17886610549E+03 -0.73485640364E+02 -0.23675192593E+03  0.33025815041E+03  0.12500299375E+03 0.  0.
          2    1    1    2  501    0 -0.51588207628E+02 -0.41813609516E+02 -0.21018596407E+04  0.21029083837E+04  0.00000000000E+00 0. -1.
          1    1    1    2  502    0 -0.12727789786E+03  0.11529924988E+03  0.11818251203E+04  0.11942379141E+04  0.00000000000E+00 0. -1.
         22    1    3    3    0    0  0.24610761921E+02 -0.16930917988E+02  0.11961869783E+02  0.32178127897E+02  0.00000000000E+00 0.  1.
         22    1    3    3    0    0  0.15425534357E+03 -0.56554722376E+02 -0.24871379572E+03  0.29808002251E+03  0.00000000000E+00 0.  1.
</event>
<event>
 7    1  0.5977291E-006  0.1777667E+03  0.7818608E-02  0.1309227E+00
          2   -1    0    0  502    0  0.00000000000E+00  0.00000000000E+00  0.35201808226E+03  0.35201808226E+03  0.00000000000E+00 0. -1.
          1   -1    0    0  501    0 -0.00000000000E+00 -0.00000000000E+00 -0.10887243749E+04  0.10887243749E+04  0.00000000000E+00 0. -1.
         25    2    1    2    0    0 -0.16102913972E+03 -0.94214324129E+02 -0.58172567954E+03  0.62356700851E+03  0.12499730059E+03 0.  0.
          2    1    1    2  501    0 -0.87564685495E+01  0.42087326961E+02 -0.46118825333E+03  0.46318746080E+03  0.00000000000E+00 0. -1.
          1    1    1    2  502    0  0.16978560827E+03  0.52126997168E+02  0.30620764023E+03  0.35398798785E+03  0.00000000000E+00 0. -1.
         22    1    3    3    0    0 -0.89386046952E+02 -0.49210572784E+02 -0.13676761084E+03  0.17063682263E+03  0.00000000000E+00 0.  1.
         22    1    3    3    0    0 -0.71643092769E+02 -0.45003751345E+02 -0.44495806870E+03  0.45293018588E+03  0.00000000000E+00 0.  1.
</event>
<event>
 7    1  0.5977291E-006  0.1624206E+03  0.7818608E-02  0.1198593E+00
          2   -1    0    0  502    0  0.00000000000E+00  0.00000000000E+00  0.16448546282E+03  0.16448546282E+03  0.00000000000E+00 0. -1.
          1   -1    0    0  501    0 -0.00000000000E+00 -0.00000000000E+00 -0.87055159689E+03  0.87055159689E+03  0.00000000000E+00 0. -1.
         25    2    1    2    0    0  0.14572705962E+03  0.15558624251E+03 -0.21756395423E+03  0.32924085770E+03  0.12498805318E+03 0.  0.
          2    1    1    2  501    0  0.13875381039E+02 -0.14070564354E+03 -0.52304835469E+03  0.54182117499E+03  0.00000000000E+00 0. -1.
          1    1    1    2  502    0 -0.15960244066E+03 -0.14880598965E+02  0.34546174852E+02  0.16397502702E+03  0.00000000000E+00 0. -1.
         22    1    3    3    0    0  0.11531790350E+03  0.46827764160E+02 -0.67989598732E+02  0.14182257895E+03  0.00000000000E+00 0. -1.
         22    1    3    3    0    0  0.30409156121E+02  0.10875847835E+03 -0.14957435550E+03  0.18741827875E+03  0.00000000000E+00 0. -1.
</event>
<event>
 7    1  0.5977291E-006  0.5648239E+02  0.7818608E-02  0.1473958E+00
          2   -1    0    0  502    0  0.00000000000E+00  0.00000000000E+00  0.64925639060E+03  0.64925639060E+03  0.00000000000E+00 0. -1.
          1   -1    0    0  501    0 -0.00000000000E+00 -0.00000000000E+00 -0.78304637818E+02  0.78304637818E+02  0.00000000000E+00 0. -1.
         25    2    1    2    0    0 -0.17486882145E+02  0.34917770810E+02  0.22261005760E+03  0.25827414543E+03  0.12500101875E+03 0.  0.
          2    1    1    2  501    0 -0.35194944329E+02 -0.73294140033E+01 -0.52736286210E+02  0.63824135710E+02  0.00000000000E+00 0. -1.
          1    1    1    2  502    0  0.52681826474E+02 -0.27588356807E+02  0.40107798139E+03  0.40546274727E+03  0.00000000000E+00 0. -1.
         22    1    3    3    0    0 -0.23431476314E+02 -0.43349151791E+02  0.11469474659E+03  0.12483215907E+03  0.00000000000E+00 0. -1.
         22    1    3    3    0    0  0.59445941692E+01  0.78266922601E+02  0.10791531101E+03  0.13344198636E+03  0.00000000000E+00 0. -1.
</event>
<event>
 7    1  0.5977291E-006  0.6451647E+02  0.7818608E-02  0.1436844E+00
          2   -1    0    0  502    0  0.00000000000E+00  0.00000000000E+00  0.65704122680E+03  0.65704122680E+03  0.00000000000E+00 0. -1.
          1   -1    0    0  501    0 -0.00000000000E+00 -0.00000000000E+00 -0.44191080259E+02  0.44191080259E+02  0.00000000000E+00 0. -1.
         25    2    1    2    0    0 -0.11160367726E+02 -0.28740044041E+02  0.24881233245E+03  0.28014837887E+03  0.12499997387E+03 0.  0.
          2    1    1    2  501    0  0.40908860926E+02  0.57368189480E+02  0.18176260177E+02  0.72766891514E+02  0.00000000000E+00 0. -1.
          1    1    1    2  502    0 -0.29748493201E+02 -0.28628145439E+02  0.34586155392E+03  0.34831703667E+03  0.00000000000E+00 0. -1.
         22    1    3    3    0    0 -0.44817183790E+02 -0.51675726525E+02  0.21965337633E+03  0.23005774582E+03  0.00000000000E+00 0. -1.
         22    1    3    3    0    0  0.33656816064E+02  0.22935682484E+02  0.29158956114E+02  0.50090633059E+02  0.00000000000E+00 0. -1.
</event>
<event>
 7    1  0.5977291E-006  0.8037009E+02  0.7818608E-02  0.1434945E+00
          2   -1    0    0  502    0  0.00000000000E+00  0.00000000000E+00  0.45214228896E+03  0.45214228896E+03  0.00000000000E+00 0. -1.
          1   -1    0    0  501    0 -0.00000000000E+00 -0.00000000000E+00 -0.27679064623E+03  0.27679064623E+03  0.00000000000E+00 0. -1.
         25    2    1    2    0    0  0.77647707285E+01 -0.10286267242E+03  0.33545400026E+02  0.16550328369E+03  0.12500008802E+03 0.  0.
          2    1    1    2  501    0 -0.25879684241E+02  0.74541873703E+02 -0.20258075218E+03  0.21740563503E+03  0.00000000000E+00 0. -1.
          1    1    1    2  502    0  0.18114913512E+02  0.28320798715E+02  0.34438699488E+03  0.34602401647E+03  0.00000000000E+00 0. -1.
         22    1    3    3    0    0 -0.41922125021E+02  0.28988548840E+01  0.23682597908E+02  0.48236224661E+02  0.00000000000E+00 0. -1.
         22    1    3    3    0    0  0.49686895749E+02 -0.10576152730E+03  0.98628021180E+01  0.11726705902E+03  0.00000000000E+00 0. -1.
</event>
<event>
 7    1  0.5977291E-006  0.7720855E+02  0.7818608E-02  0.1367439E+00
          2   -1    0    0  502    0  0.00000000000E+00  0.00000000000E+00  0.72417535640E+03  0.72417535640E+03  0.00000000000E+00 0. -1.
          1   -1    0    0  501    0 -0.00000000000E+00 -0.00000000000E+00 -0.55003679392E+03  0.55003679392E+03  0.00000000000E+00 0. -1.
         25    2    1    2    0    0  0.64502724391E+02  0.11125141080E+03  0.80591644137E+02  0.19661842671E+03  0.12500525892E+03 0.  0.
          2    1    1    2  501    0 -0.10613720942E+02 -0.58734789861E+02 -0.48777950497E+03  0.49141761474E+03  0.00000000000E+00 0. -1.
          1    1    1    2  502    0 -0.53889003449E+02 -0.52516620936E+02  0.58132642331E+03  0.58617610887E+03  0.00000000000E+00 0. -1.
         22    1    3    3    0    0  0.72142878286E+01  0.29689887080E+02  0.91392199544E+02  0.96364254167E+02  0.00000000000E+00 0.  1.
         22    1    3    3    0    0  0.57288436562E+02  0.81561523717E+02 -0.10800555407E+02  0.10025417254E+03  0.00000000000E+00 0.  1.
</event>
<event>
 7    1  0.5977291E-006  0.1221870E+03  0.7818608E-02  0.1362426E+00
          2   -1    0    0  502    0  0.00000000000E+00  0.00000000000E+00  0.58825889468E+03  0.58825889468E+03  0.00000000000E+00 0. -1.
          1   -1    0    0  501    0 -0.00000000000E+00 -0.00000000000E+00 -0.37367966896E+03  0.37367966896E+03  0.00000000000E+00 0. -1.
         25    2    1    2    0    0  0.11482373401E+02  0.12740003589E+03  0.28247853898E+02  0.18106657032E+03  0.12499819036E+03 0.  0.
          2    1    1    2  501    0  0.26967350164E+02 -0.11914741753E+03 -0.28386442106E+03  0.30903455247E+03  0.00000000000E+00 0. -1.
          1    1    1    2  502    0 -0.38449723565E+02 -0.82526183578E+01  0.47019579287E+03  0.47183744085E+03  0.00000000000E+00 0. -1.
         22    1    3    3    0    0 -0.24297594799E+02  0.83681805515E+02 -0.37080500557E+02  0.94699425599E+02  0.00000000000E+00 0. -1.
         22    1    3    3    0    0  0.35779968200E+02  0.43718230372E+02  0.65328354455E+02  0.86367144719E+02  0.00000000000E+00 0. -1.
</event>
<event>
 7    1  0.5977291E-006  0.1835691E+03  0.7818608E-02  0.1220004E+00
          2   -1    0    0  502    0  0.00000000000E+00  0.00000000000E+00  0.32074887018E+03  0.32074887018E+03  0.00000000000E+00 0. -1.
          1   -1    0    0  501    0 -0.00000000000E+00 -0.00000000000E+00 -0.56875244472E+03  0.56875244472E+03  0.00000000000E+00 0. -1.
         25    2    1    2    0    0 -0.24954928183E+00  0.22871697782E+03  0.94776937729E+02  0.27734159829E+03  0.12499670395E+03 0.  0.
          2    1    1    2  501    0  0.62370505597E+02 -0.77533516098E+02 -0.41982976888E+03  0.43146096107E+03  0.00000000000E+00 0. -1.
          1    1    1    2  502    0 -0.62120956315E+02 -0.15118346172E+03  0.77049256608E+02  0.18069875554E+03  0.00000000000E+00 0. -1.
         22    1    3    3    0    0 -0.55061807766E+02  0.17521210880E+03  0.73713594102E+02  0.19790093406E+03  0.00000000000E+00 0. -1.
         22    1    3    3    0    0  0.54812258485E+02  0.53504869017E+02  0.21063343627E+02  0.79440664231E+02  0.00000000000E+00 0. -1.
</event>
<event>
 7    1  0.5977291E-006  0.7936424E+02  0.7818608E-02  0.1433888E+00
          2   -1    0    0  502    0  0.00000000000E+00  0.00000000000E+00  0.35461431784E+03  0.35461431784E+03  0.00000000000E+00 0. -1.
          1   -1    0    0  501    0 -0.00000000000E+00 -0.00000000000E+00 -0.14547367437E+03  0.14547367437E+03  0.00000000000E+00 0. -1.
         25    2    1    2    0    0  0.41045335623E+02 -0.28815537599E+02  0.57897635736E+02  0.14661233946E+03  0.12501194773E+03 0.  0.
          2    1    1    2  501    0  0.31456439456E+02 -0.13716284484E+02 -0.90897914287E+02  0.97160047679E+02  0.00000000000E+00 0. -1.
          1    1    1    2  502    0 -0.72501775080E+02  0.42531822082E+02  0.24214092202E+03  0.25631560506E+03  0.00000000000E+00 0. -1.
         22    1    3    3    0    0 -0.24006314098E+02 -0.37700972691E+02  0.66781688243E+02  0.80358324665E+02  0.00000000000E+00 0. -1.
         22    1    3    3    0    0  0.65051649721E+02  0.88854350924E+01 -0.88840525069E+01  0.66254014800E+02  0.00000000000E+00 0. -1.
</event>
<event>
 7    1  0.5977291E-006  0.4145230E+02  0.7818608E-02  0.1535472E+00
          2   -1    0    0  502    0  0.00000000000E+00  0.00000000000E+00  0.32433293037E+03  0.32433293037E+03  0.00000000000E+00 0. -1.
          1   -1    0    0  501    0 -0.00000000000E+00 -0.00000000000E+00 -0.11403308540E+04  0.11403308540E+04  0.00000000000E+00 0. -1.
         25    2    1    2    0    0  0.16513354162E+02  0.52545068003E+02 -0.11894608850E+03  0.18112979591E+03  0.12500462376E+03 0.  0.
          2    1    1    2  501    0 -0.29362457021E+02 -0.13170375924E+02 -0.98856727202E+03  0.98909092807E+03  0.00000000000E+00 0. -1.
          1    1    1    2  502    0  0.12849102859E+02 -0.39374692078E+02  0.29151543693E+03  0.29444306035E+03  0.00000000000E+00 0. -1.
         22    1    3    3    0    0  0.59526836110E+02 -0.34542454819E+01 -0.82140916193E+02  0.10150126178E+03  0.00000000000E+00 0. -1.
         22    1    3    3    0    0 -0.43013481948E+02  0.55999313485E+02 -0.36805172303E+02  0.79628534134E+02  0.00000000000E+00 0. -1.
</event>
<event>
 7    1  0.5977291E-006  0.5099186E+02  0.7818608E-02  0.1497695E+00
          2   -1    0    0  502    0  0.00000000000E+00  0.00000000000E+00  0.33460433304E+04  0.33460433304E+04  0.00000000000E+00 0. -1.
          1   -1    0    0  501    0 -0.00000000000E+00 -0.00000000000E+00 -0.12360153209E+02  0.12360153209E+02  0.00000000000E+00 0. -1.
         25    2    1    2    0    0 -0.53760332471E+02 -0.19209193773E+02  0.10294324130E+04  0.10385639518E+04  0.12499929066E+03 0.  0.
          2    1    1    2  501    0  0.24673938367E+02 -0.22982019539E+02  0.30364765170E+02  0.45376154756E+02  0.00000000000E+00 0. -1.
          1    1    1    2  502    0  0.29086394104E+02  0.42191213312E+02  0.22738859991E+04  0.22744633770E+04  0.00000000000E+00 0. -1.
         22    1    3    3    0    0 -0.75429342046E+02 -0.25416699267E+02  0.98960101924E+03  0.99279694375E+03  0.00000000000E+00 0.  1.
         22    1    3    3    0    0  0.21669009575E+02  0.62075054936E+01  0.39831393718E+02  0.45767008051E+02  0.00000000000E+00 0.  1.
</event>
<event>
 7    1  0.5977291E-006  0.5933328E+02  0.7818608E-02  0.1467554E+00
          2   -1    0    0  502    0  0.00000000000E+00  0.00000000000E+00  0.97004708614E+02  0.97004708614E+02  0.00000000000E+00 0. -1.
          1   -1    0    0  501    0 -0.00000000000E+00 -0.00000000000E+00 -0.69992879786E+03  0.69992879786E+03  0.00000000000E+00 0. -1.
         25    2    1    2    0    0 -0.26458770457E+02 -0.38622811053E+02 -0.33701332274E+03  0.36248222057E+03  0.12499436971E+03 0.  0.
          2    1    1    2  501    0  0.93938650862E+00  0.63769310496E+02 -0.34329870307E+03  0.34917246017E+03  0.00000000000E+00 0. -1.
          1    1    1    2  502    0  0.25519383949E+02 -0.25146499443E+02  0.77387936570E+02  0.85278825730E+02  0.00000000000E+00 0. -1.
         22    1    3    3    0    0 -0.26223518737E+02 -0.25884712913E+02 -0.14310870098E+02  0.39528373360E+02  0.00000000000E+00 0. -1.
         22    1    3    3    0    0 -0.23525171997E+00 -0.12738098140E+02 -0.32270245264E+03  0.32295384721E+03  0.00000000000E+00 0. -1.
</event>
<event>
 7    1  0.5977291E-006  0.5703089E+02  0.7818608E-02  0.1499112E+00
          2   -1    0    0  502    0  0.00000000000E+00  0.00000000000E+00  0.18798460770E+04  0.18798460770E+04  0.00000000000E+00 0. -1.
          1   -1    0    0  501    0 -0.00000000000E+00 -0.00000000000E+00 -0.25637483316E+03  0.25637483316E+03  0.00000000000E+00 0. -1.
         25    2    1    2    0    0  0.20362812839E+02  0.25800159622E+02  0.34084144559E+02  0.13366508387E+03  0.12499733338E+03 0.  0.
          2    1    1    2  501    0 -0.49893835075E+02 -0.30191007640E+02 -0.20234190053E+03  0.21057810055E+03  0.00000000000E+00 0. -1.
          1    1    1    2  502    0  0.29531022237E+02  0.43908480181E+01  0.17917289998E+04  0.17919777258E+04  0.00000000000E+00 0. -1.
         22    1    3    3    0    0 -0.23519048882E+02 -0.36760972633E+02  0.36968045884E+02  0.57193978579E+02  0.00000000000E+00 0. -1.
         22    1    3    3    0    0  0.43881861721E+02  0.62561132255E+02 -0.28839013252E+01  0.76471105288E+02  0.00000000000E+00 0. -1.
</event>
<event>
 7    1  0.5977291E-006  0.3068785E+02  0.7818608E-02  0.1591646E+00
          2   -1    0    0  502    0  0.00000000000E+00  0.00000000000E+00  0.44337669188E+03  0.44337669188E+03  0.00000000000E+00 0. -1.
          1   -1    0    0  501    0 -0.00000000000E+00 -0.00000000000E+00 -0.57849426218E+02  0.57849426218E+02  0.00000000000E+00 0. -1.
         25    2    1    2    0    0 -0.16147807048E+01 -0.42281458550E+02  0.11257358869E+03  0.17345838150E+03  0.12499867194E+03 0.  0.
          2    1    1    2  501    0 -0.21285105876E+02  0.22144197568E+02 -0.17745920820E+02  0.35473073222E+02  0.00000000000E+00 0. -1.
          1    1    1    2  502    0  0.22899886581E+02  0.20137260982E+02  0.29069959779E+03  0.29229466338E+03  0.00000000000E+00 0. -1.
         22    1    3    3    0    0 -0.44216800339E+02 -0.53939729036E+02  0.10865778188E+03  0.12911674316E+03  0.00000000000E+00 0. -1.
         22    1    3    3    0    0  0.42602019635E+02  0.11658270486E+02  0.39158068157E+01  0.44341638340E+02  0.00000000000E+00 0. -1.
</event>
<event>
 7    1  0.5977291E-006  0.1468028E+03  0.7818608E-02  0.1205358E+00
          2   -1    0    0  502    0  0.00000000000E+00  0.00000000000E+00  0.63745290053E+03  0.63745290053E+03  0.00000000000E+00 0. -1.
          1   -1    0    0  501    0 -0.00000000000E+00 -0.00000000000E+00 -0.15227463357E+04  0.15227463357E+04  0.00000000000E+00 0. -1.
         25    2    1    2    0    0  0.27046301844E+03  0.30992571614E+02  0.33981671038E+03  0.45300199867E+03  0.12499852122E+03 0.  0.
          2    1    1    2  501    0 -0.14133350655E+03  0.35809632676E+02 -0.14402108182E+04  0.14475719985E+04  0.00000000000E+00 0. -1.
          1    1    1    2  502    0 -0.12912951189E+03 -0.66802204290E+02  0.21510067272E+03  0.25962523904E+03  0.00000000000E+00 0. -1.
         22    1    3    3    0    0  0.24277430555E+03 -0.73915968596E+01  0.23485094765E+03  0.33785938903E+03  0.00000000000E+00 0. -1.
         22    1    3    3    0    0  0.27688712888E+02  0.38384168474E+02  0.10496576272E+03  0.11514260964E+03  0.00000000000E+00 0. -1.
</event>
<event>
 7    1  0.5977291E-006  0.3443322E+02  0.7818608E-02  0.1575486E+00
          2   -1    0    0  502    0  0.00000000000E+00  0.00000000000E+00  0.21270461435E+03  0.21270461435E+03  0.00000000000E+00 0. -1.
          1   -1    0    0  501    0 -0.00000000000E+00 -0.00000000000E+00 -0.32465624033E+03  0.32465624033E+03  0.00000000000E+00 0. -1.
         25    2    1    2    0    0  0.27161880252E+01  0.30191777720E+01  0.12443482870E+03  0.17642202362E+03  0.12499684282E+03 0.  0.
          2    1    1    2  501    0 -0.18615020973E+02  0.28967698850E+02 -0.29244605096E+03  0.29446619382E+03  0.00000000000E+00 0. -1.
          1    1    1    2  502    0  0.15898832948E+02 -0.31986876622E+02  0.56059596285E+02  0.66472637233E+02  0.00000000000E+00 0. -1.
         22    1    3    3    0    0  0.20378072543E+02 -0.57151691346E+02  0.75616030230E+02  0.96950325899E+02  0.00000000000E+00 0.  1.
         22    1    3    3    0    0 -0.17661884518E+02  0.60170869117E+02  0.48818798473E+02  0.79471697726E+02  0.00000000000E+00 0.  1.
</event>
<event>
 7    1  0.5977291E-006  0.6028976E+02  0.7818608E-02  0.1512687E+00
          2   -1    0    0  502    0  0.00000000000E+00  0.00000000000E+00  0.78942031746E+03  0.78942031746E+03  0.00000000000E+00 0. -1.
          1   -1    0    0  501    0 -0.00000000000E+00 -0.00000000000E+00 -0.10109929806E+03  0.10109929806E+03  0.00000000000E+00 0. -1.
         25    2    1    2    0    0 -0.63004893078E+02 -0.29210075428E+02  0.49921598465E+02  0.15144763480E+03  0.12498549930E+03 0.  0.
          2    1    1    2  501    0  0.41145349297E+02  0.42812332718E+02 -0.32491636786E+02  0.67687089334E+02  0.00000000000E+00 0. -1.
          1    1    1    2  502    0  0.21859543781E+02 -0.13602257289E+02  0.67089105772E+03  0.67138489139E+03  0.00000000000E+00 0. -1.
         22    1    3    3    0    0 -0.42943272095E+02 -0.77842921141E+02  0.20746443221E+02  0.91291072380E+02  0.00000000000E+00 0. -1.
         22    1    3    3    0    0 -0.20061620983E+02  0.48632845713E+02  0.29175155244E+02  0.60156562419E+02  0.00000000000E+00 0. -1.
</event>
<event>
 7    1  0.5977291E-006  0.6637507E+02  0.7818608E-02  0.1425113E+00
          2   -1    0    0  502    0  0.00000000000E+00  0.00000000000E+00  0.34867048760E+03  0.34867048760E+03  0.00000000000E+00 0. -1.
          1   -1    0    0  501    0 -0.00000000000E+00 -0.00000000000E+00 -0.10268662931E+04  0.10268662931E+04  0.00000000000E+00 0. -1.
         25    2    1    2    0    0 -0.16916594485E+02 -0.70424282609E+02  0.66896019899E+02  0.15920118828E+03  0.12499676044E+03 0.  0.
          2    1    1    2  501    0 -0.25954105012E+02  0.61177243254E+02 -0.97753497762E+03  0.97979125488E+03  0.00000000000E+00 0. -1.
          1    1    1    2  502    0  0.42870699497E+02  0.92470393546E+01  0.23244315222E+03  0.23654433755E+03  0.00000000000E+00 0. -1.
         22    1    3    3    0    0 -0.22793705108E+02 -0.80184995139E+02  0.96476375113E+02  0.12750246034E+03  0.00000000000E+00 0.  1.
         22    1    3    3    0    0  0.58771106232E+01  0.97607125296E+01 -0.29580355214E+02  0.31698727939E+02  0.00000000000E+00 0.  1.
</event>
<event>
 7    1  0.7785525E-006  0.8575710E+02  0.7818608E-02  0.1345591E+00
          2   -1    0    0  502    0  0.00000000000E+00  0.00000000000E+00  0.12070896858E+04  0.12070896858E+04  0.00000000000E+00 0. -1.
          1   -1    0    0  501    0 -0.00000000000E+00 -0.00000000000E+00 -0.65416578232E+03  0.65416578232E+03  0.00000000000E+00 0. -1.
         25    2    1    2    0    0  0.47145203343E+02 -0.45042181176E+02 -0.25970126237E+03  0.29550385811E+03  0.12500526470E+03 0.  0.
          2    1    1    2  501    0 -0.91169889299E+01  0.97298854363E+02 -0.36932514422E+03  0.38203566417E+03  0.00000000000E+00 0. -1.
          1    1    1    2  502    0 -0.38028214413E+02 -0.52256673187E+02  0.11819503100E+04  0.11837159458E+04  0.00000000000E+00 0. -1.
         22    1    3    3    0    0 -0.52637057657E+01  0.54246293563E+01 -0.20331366703E+03  0.20345412358E+03  0.00000000000E+00 0. -1.
         22    1    3    3    0    0  0.52408909109E+02 -0.50466810532E+02 -0.56387595337E+02  0.92049734530E+02  0.00000000000E+00 0. -1.
</event>
<event>
 7    1  0.5977291E-006  0.4261899E+02  0.7818608E-02  0.1548253E+00
          2   -1    0    0  502    0  0.00000000000E+00  0.00000000000E+00  0.36537846188E+02  0.36537846188E+02  0.00000000000E+00 0. -1.
          1   -1    0    0  501    0 -0.00000000000E+00 -0.00000000000E+00 -0.15148003581E+04  0.15148003581E+04  0.00000000000E+00 0. -1.
         25    2    1    2    0    0 -0.40427501108E+02 -0.14840835940E+02 -0.63330356252E+03  0.64695659267E+03  0.12499918895E+03 0.  0.
          2    1    1    2  501    0  0.40978980436E+02 -0.13961225804E+02 -0.86701821180E+03  0.86809836555E+03  0.00000000000E+00 0. -1.
          1    1    1    2  502    0 -0.55147932831E+00  0.28802061744E+02  0.22059262390E+02  0.36283246097E+02  0.00000000000E+00 0. -1.
         22    1    3    3    0    0 -0.55010912665E+02 -0.30609066977E+02 -0.14373058659E+03  0.15691270508E+03  0.00000000000E+00 0. -1.
         22    1    3    3    0    0  0.14583411557E+02  0.15768231037E+02 -0.48957297593E+03  0.49004388759E+03  0.00000000000E+00 0. -1.
</event>
<event>
 7    1  0.5977291E-006  0.7843845E+02  0.7818608E-02  0.1345835E+00
          2   -1    0    0  502    0  0.00000000000E+00  0.00000000000E+00  0.10313818896E+04  0.10313818896E+04  0.00000000000E+00 0. -1.
          1   -1    0    0  501    0 -0.00000000000E+00 -0.00000000000E+00 -0.61245268224E+03  0.61245268224E+03  0.00000000000E+00 0. -1.
         25    2    1    2    0    0  0.21529623217E+02  0.15405053322E+02  0.37652919355E+03  0.39761715017E+03  0.12499729666E+03 0.  0.
          2    1    1    2  501    0  0.65628229263E+02  0.25784369413E+02 -0.59621367276E+03  0.60036875482E+03  0.00000000000E+00 0. -1.
          1    1    1    2  502    0 -0.87157852481E+02 -0.41189422735E+02  0.63861368654E+03  0.64584866682E+03  0.00000000000E+00 0. -1.
         22    1    3    3    0    0 -0.82189460158E+01 -0.40078590631E+02  0.47818982988E+02  0.62932500622E+02  0.00000000000E+00 0. -1.
         22    1    3    3    0    0  0.29748569233E+02  0.55483643953E+02  0.32871021056E+03  0.33468464955E+03  0.00000000000E+00 0. -1.
</event>
<event>
 7    1  0.5977291E-006  0.8991065E+02  0.7818608E-02  0.1404912E+00
          2   -1    0    0  502    0  0.00000000000E+00  0.00000000000E+00  0.36969074843E+03  0.36969074843E+03  0.00000000000E+00 0. -1.
          1   -1    0    0  501    0 -0.00000000000E+00 -0.00000000000E+00 -0.12781166425E+04  0.12781166425E+04  0.00000000000E+00 0. -1.
         25    2    1    2    0    0  0.64255772292E+02  0.55851323426E+01 -0.43806540455E+03  0.46009392716E+03  0.12500050066E+03 0.  0.
          2    1    1    2  501    0  0.22549180532E+02 -0.30413787892E+02 -0.82291312390E+03  0.82378363271E+03  0.00000000000E+00 0. -1.
          1    1    1    2  502    0 -0.86804952824E+02  0.24828655550E+02  0.35255263436E+03  0.36392983110E+03  0.00000000000E+00 0. -1.
         22    1    3    3    0    0  0.70540887156E+02  0.35530300995E+02 -0.41315883690E+03  0.42064075356E+03  0.00000000000E+00 0.  1.
         22    1    3    3    0    0 -0.62851148641E+01 -0.29945168652E+02 -0.24906567652E+02  0.39453173595E+02  0.00000000000E+00 0.  1.
</event>
<event>
 7    1  0.5977291E-006  0.1171780E+03  0.7818608E-02  0.1316718E+00
          2   -1    0    0  502    0  0.00000000000E+00  0.00000000000E+00  0.92028607889E+03  0.92028607889E+03  0.00000000000E+00 0. -1.
          1   -1    0    0  501    0 -0.00000000000E+00 -0.00000000000E+00 -0.32652299371E+03  0.32652299371E+03  0.00000000000E+00 0. -1.
         25    2    1    2    0    0 -0.64854049234E+02  0.15745482528E+03  0.28896242585E+03  0.35794230441E+03  0.12500136009E+03 0.  0.
          2    1    1    2  501    0  0.25511569846E+02 -0.55353769364E+02 -0.28375466367E+03  0.29022678913E+03  0.00000000000E+00 0. -1.
          1    1    1    2  502    0  0.39342479388E+02 -0.10210105592E+03  0.58855532299E+03  0.59863997906E+03  0.00000000000E+00 0. -1.
         22    1    3    3    0    0 -0.73287403134E+02  0.17337292510E+03  0.23521400519E+03  0.30125544452E+03  0.00000000000E+00 0.  1.
         22    1    3    3    0    0  0.84333539002E+01 -0.15918099821E+02  0.53748420667E+02  0.56686859889E+02  0.00000000000E+00 0.  1.
</event>
<event>
 7    1  0.5977291E-006  0.6416306E+02  0.7818608E-02  0.1410741E+00
          2   -1    0    0  502    0  0.00000000000E+00  0.00000000000E+00  0.84248918948E+03  0.84248918948E+03  0.00000000000E+00 0. -1.
          1   -1    0    0  501    0 -0.00000000000E+00 -0.00000000000E+00 -0.13477759078E+04  0.13477759078E+04  0.00000000000E+00 0. -1.
         25    2    1    2    0    0  0.18007917792E+02  0.33747473201E+01 -0.68690274205E+03  0.69842568044E+03  0.12500951978E+03 0.  0.
          2    1    1    2  501    0  0.39838211556E+02 -0.31339684055E+02 -0.65289448957E+03  0.65485912486E+03  0.00000000000E+00 0. -1.
          1    1    1    2  502    0 -0.57846129348E+02  0.27964936735E+02  0.83451051330E+03  0.83698029199E+03  0.00000000000E+00 0. -1.
         22    1    3    3    0    0 -0.20320712465E+02  0.11452496138E+02 -0.62324833144E+03  0.62368467487E+03  0.00000000000E+00 0. -1.
         22    1    3    3    0    0  0.38328630257E+02 -0.80777488184E+01 -0.63654410609E+02  0.74741005569E+02  0.00000000000E+00 0. -1.
</event>
<event>
 7    1  0.5977291E-006  0.9563928E+02  0.7818608E-02  0.1368250E+00
          2   -1    0    0  502    0  0.00000000000E+00  0.00000000000E+00  0.42229241193E+03  0.42229241193E+03  0.00000000000E+00 0. -1.
          1   -1    0    0  501    0 -0.00000000000E+00 -0.00000000000E+00 -0.68371099777E+03  0.68371099777E+03  0.00000000000E+00 0. -1.
         25    2    1    2    0    0 -0.52109677745E+02 -0.11385514539E+03  0.13295565322E+03  0.22131458940E+03  0.12499811643E+03 0.  0.
          2    1    1    2  501    0 -0.94116918131E+01  0.46925972420E+02 -0.63016514179E+03  0.63198000978E+03  0.00000000000E+00 0. -1.
          1    1    1    2  502    0  0.61521369558E+02  0.66929172967E+02  0.23579090272E+03  0.25270881052E+03  0.00000000000E+00 0. -1.
         22    1    3    3    0    0  0.24742440596E+02 -0.77794248592E+02  0.10269979456E+03  0.13119215404E+03  0.00000000000E+00 0. -1.
         22    1    3    3    0    0 -0.76852118340E+02 -0.36060896795E+02  0.30255858668E+02  0.90122435358E+02  0.00000000000E+00 0. -1.
</event>
<event>
 7    1  0.5977291E-006  0.7941601E+02  0.7818608E-02  0.1361650E+00
          2   -1    0    0  502    0  0.00000000000E+00  0.00000000000E+00  0.25403757141E+03  0.25403757141E+03  0.00000000000E+00 0. -1.
          1   -1    0    0  501    0 -0.00000000000E+00 -0.00000000000E+00 -0.13237657401E+04  0.13237657401E+04  0.00000000000E+00 0. -1.
         25    2    1    2    0    0  0.76500883950E+02 -0.10560653124E+03 -0.11686423795E+03  0.21514560690E+03  0.12500102946E+03 0.  0.
          2    1    1    2  501    0 -0.14614290107E+02  0.59119699397E+02 -0.11496162599E+04  0.11512281535E+04  0.00000000000E+00 0. -1.
          1    1    1    2  502    0 -0.61886593842E+02  0.46486831847E+02  0.19675232920E+03  0.21142955110E+03  0.00000000000E+00 0. -1.
         22    1    3    3    0    0  0.93116266771E+02 -0.78188720517E+02 -0.33937274541E+02  0.12623729147E+03  0.00000000000E+00 0.  1.
         22    1    3    3    0    0 -0.16615382821E+02 -0.27417810726E+02 -0.82926963414E+02  0.88908315429E+02  0.00000000000E+00 0.  1.
</event>
<event>
 7    1  0.5977291E-006  0.1307994E+03  0.7818608E-02  0.1281507E+00
          2   -1    0    0  502    0  0.00000000000E+00  0.00000000000E+00  0.49686835367E+03  0.49686835367E+03  0.00000000000E+00 0. -1.
          1   -1    0    0  501    0 -0.00000000000E+00 -0.00000000000E+00 -0.73688766582E+03  0.73688766582E+03  0.00000000000E+00 0. -1.
         25    2    1    2    0    0 -0.48789146481E+02  0.46575959870E+02  0.97092675223E+02  0.17205341082E+03  0.12500275093E+03 0.  0.
          2    1    1    2  501    0  0.12427629671E+03 -0.50285062671E+02 -0.68893263102E+03  0.70185565149E+03  0.00000000000E+00 0. -1.
          1    1    1    2  502    0 -0.75487150225E+02  0.37091028005E+01  0.35182064364E+03  0.35984695717E+03  0.00000000000E+00 0. -1.
         22    1    3    3    0    0 -0.51139156745E+02 -0.59179442950E+01 -0.10294371250E+02  0.52499614253E+02  0.00000000000E+00 0. -1.
         22    1    3    3    0    0  0.23500102650E+01  0.52493904165E+02  0.10738704647E+03  0.11955379656E+03  0.00000000000E+00 0. -1.
</event>
<event>
 7    1  0.5977291E-006  0.6491062E+02  0.7818608E-02  0.1408671E+00
          2   -1    0    0  502    0  0.00000000000E+00  0.00000000000E+00  0.38703555346E+04  0.38703555346E+04  0.00000000000E+00 0. -1.
          1   -1    0    0  501    0 -0.00000000000E+00 -0.00000000000E+00 -0.11920763267E+03  0.11920763267E+03  0.00000000000E+00 0. -1.
         25    2    1    2    0    0 -0.14826481152E+01 -0.21195412809E+02  0.36687405520E+03  0.38816897792E+03  0.12500855680E+03 0.  0.
          2    1    1    2  501    0 -0.36253188107E+02  0.55384390621E+02 -0.98266174136E+02  0.11848191994E+03  0.00000000000E+00 0. -1.
          1    1    1    2  502    0  0.37735836222E+02 -0.34188977811E+02  0.34825400209E+04  0.34829122694E+04  0.00000000000E+00 0. -1.
         22    1    3    3    0    0 -0.50737592844E+02 -0.18986198271E+02  0.30127586706E+03  0.30610770510E+03  0.00000000000E+00 0. -1.
         22    1    3    3    0    0  0.49254944728E+02 -0.22092145387E+01  0.65598188141E+02  0.82061272818E+02  0.00000000000E+00 0. -1.
</event>
<event>
 7    1  0.5977291E-006  0.1159320E+03  0.7818608E-02  0.1269317E+00
          2   -1    0    0  502    0  0.00000000000E+00  0.00000000000E+00  0.14564780147E+03  0.14564780147E+03  0.00000000000E+00 0. -1.
          1   -1    0    0  501    0 -0.00000000000E+00 -0.00000000000E+00 -0.57254980908E+03  0.57254980908E+03  0.00000000000E+00 0. -1.
         25    2    1    2    0    0 -0.36220155837E+02 -0.33599294178E+02 -0.20619878898E+03  0.24613638260E+03  0.12499746400E+03 0.  0.
          2    1    1    2  501    0  0.21612065287E+02 -0.93371875050E+02 -0.30450313837E+03  0.31922961907E+03  0.00000000000E+00 0. -1.
          1    1    1    2  502    0  0.14608090551E+02  0.12697116923E+03  0.83799919742E+02  0.15283160888E+03  0.00000000000E+00 0. -1.
         22    1    3    3    0    0 -0.47092547340E+02  0.38602487914E+02 -0.83284979357E+02  0.10317096430E+03  0.00000000000E+00 0.  1.
         22    1    3    3    0    0  0.10872391503E+02 -0.72201782092E+02 -0.12291380962E+03  0.14296541830E+03  0.00000000000E+00 0.  1.
</event>
<event>
 7    1  0.5977291E-006  0.3520598E+03  0.7818608E-02  0.1257148E+00
          2   -1    0    0  502    0  0.00000000000E+00  0.00000000000E+00  0.57504308472E+03  0.57504308472E+03  0.00000000000E+00 0. -1.
          1   -1    0    0  501    0 -0.00000000000E+00 -0.00000000000E+00 -0.11800787012E+04  0.11800787012E+04  0.00000000000E+00 0. -1.
         25    2    1    2    0    0  0.35985491993E+03 -0.35460078044E+02 -0.60093789079E+03  0.71239444148E+03  0.12500604438E+03 0.  0.
          2    1    1    2  501    0 -0.34305701653E+03  0.41327302790E+01 -0.46643682777E+03  0.57902375629E+03  0.00000000000E+00 0. -1.
          1    1    1    2  502    0 -0.16797903404E+02  0.31327347765E+02  0.46233910212E+03  0.46370358811E+03  0.00000000000E+00 0. -1.
         22    1    3    3    0    0  0.23569544794E+03  0.14433042711E+02 -0.29064831426E+03  0.37448244216E+03  0.00000000000E+00 0. -1.
         22    1    3    3    0    0  0.12415947199E+03 -0.49893120756E+02 -0.31028957653E+03  0.33791199933E+03  0.00000000000E+00 0. -1.
</event>
<event>
 7    1  0.5977291E-006  0.6318110E+02  0.7818608E-02  0.1409133E+00
          2   -1    0    0  502    0  0.00000000000E+00  0.00000000000E+00  0.29311731601E+04  0.29311731601E+04  0.00000000000E+00 0. -1.
          1   -1    0    0  501    0 -0.00000000000E+00 -0.00000000000E+00 -0.35397981985E+03  0.35397981985E+03  0.00000000000E+00 0. -1.
         25    2    1    2    0    0 -0.25722197958E+02 -0.55536958662E+02  0.12287433345E+03  0.18565891631E+03  0.12500058455E+03 0.  0.
          2    1    1    2  501    0  0.52079930680E+02 -0.21778252031E+01 -0.32011677563E+03  0.32433287243E+03  0.00000000000E+00 0. -1.
          1    1    1    2  502    0 -0.26357732721E+02  0.57714783865E+02  0.27744357824E+04  0.27751611912E+04  0.00000000000E+00 0. -1.
         22    1    3    3    0    0 -0.46679612170E+02 -0.22505827422E+02 -0.48786479608E+01  0.52050933385E+02  0.00000000000E+00 0.  1.
         22    1    3    3    0    0  0.20957414211E+02 -0.33031131239E+02  0.12775298142E+03  0.13360798293E+03  0.00000000000E+00 0.  1.
</event>
<event>
 7    1  0.5977291E-006  0.6859740E+02  0.7818608E-02  0.1390217E+00
          2   -1    0    0  502    0  0.00000000000E+00  0.00000000000E+00  0.16311642741E+04  0.16311642741E+04  0.00000000000E+00 0. -1.
          1   -1    0    0  501    0 -0.00000000000E+00 -0.00000000000E+00 -0.57029299485E+02  0.57029299485E+02  0.00000000000E+00 0. -1.
         25    2    1    2    0    0  0.27837084113E+02 -0.21070740638E+02  0.15994082305E+03  0.20597630481E+03  0.12500516750E+03 0.  0.
          2    1    1    2  501    0  0.40320104575E+02  0.38531885151E+02 -0.96807837690E+01  0.56605075572E+02  0.00000000000E+00 0. -1.
          1    1    1    2  502    0 -0.68157188688E+02 -0.17461144513E+02  0.14238749353E+04  0.14256121932E+04  0.00000000000E+00 0. -1.
         22    1    3    3    0    0 -0.38857575686E+02 -0.35017746013E+02  0.10900139191E+03  0.12090267641E+03  0.00000000000E+00 0. -1.
         22    1    3    3    0    0  0.66694659799E+02  0.13947005375E+02  0.50939431140E+02  0.85073628402E+02  0.00000000000E+00 0. -1.
</event>
<event>
 7    1  0.5977291E-006  0.6916030E+02  0.7818608E-02  0.1419762E+00
          2   -1    0    0  502    0  0.00000000000E+00  0.00000000000E+00  0.10714354665E+04  0.10714354665E+04  0.00000000000E+00 0. -1.
          1   -1    0    0  501    0 -0.00000000000E+00 -0.00000000000E+00 -0.36298819640E+02  0.36298819640E+02  0.00000000000E+00 0. -1.
         25    2    1    2    0    0 -0.17082529091E+02  0.34851226181E+02  0.48943728840E+03  0.50663089260E+03  0.12497832328E+03 0.  0.
          2    1    1    2  501    0  0.60623672674E+02 -0.40067044952E+02  0.22502637360E+02  0.76072113602E+02  0.00000000000E+00 0. -1.
          1    1    1    2  502    0 -0.43541143583E+02  0.52158187703E+01  0.52319672114E+03  0.52503127999E+03  0.00000000000E+00 0. -1.
         22    1    3    3    0    0 -0.45636399460E+02  0.70252297644E+02  0.35333480984E+03  0.36313021649E+03  0.00000000000E+00 0. -1.
         22    1    3    3    0    0  0.28553870368E+02 -0.35401071463E+02  0.13610247856E+03  0.14350067611E+03  0.00000000000E+00 0. -1.
</event>
<event>
 7    1  0.5977291E-006  0.4027066E+02  0.7818608E-02  0.1563568E+00
          2   -1    0    0  502    0  0.00000000000E+00  0.00000000000E+00  0.13331982487E+04  0.13331982487E+04  0.00000000000E+00 0. -1.
          1   -1    0    0  501    0 -0.00000000000E+00 -0.00000000000E+00 -0.29243185422E+02  0.29243185422E+02  0.00000000000E+00 0. -1.
         25    2    1    2    0    0 -0.26766349421E+02 -0.60491780755E+02  0.42916003868E+03  0.45186173516E+03  0.12499998362E+03 0.  0.
          2    1    1    2  501    0  0.11940004395E+02  0.37150308120E+02  0.38672680192E+01  0.39213070019E+02  0.00000000000E+00 0. -1.
          1    1    1    2  502    0  0.14826345026E+02  0.23341472635E+02  0.87092775657E+03  0.87136662893E+03  0.00000000000E+00 0. -1.
         22    1    3    3    0    0 -0.13002485907E+01 -0.70638599786E+02  0.10507006494E+03  0.12661445799E+03  0.00000000000E+00 0. -1.
         22    1    3    3    0    0 -0.25466100830E+02  0.10146819031E+02  0.32408997374E+03  0.32524727717E+03  0.00000000000E+00 0. -1.
</event>
<event>
 7    1  0.5977291E-006  0.4344604E+02  0.7818608E-02  0.1540133E+00
          2   -1    0    0  502    0  0.00000000000E+00  0.00000000000E+00  0.11351541995E+04  0.11351541995E+04  0.00000000000E+00 0. -1.
          1   -1    0    0  501    0 -0.00000000000E+00 -0.00000000000E+00 -0.13200732498E+03  0.13200732498E+03  0.00000000000E+00 0. -1.
         25    2    1    2    0    0  0.16570933741E+02  0.28030563215E+02  0.40703064589E+02  0.13542772494E+03  0.12499448346E+03 0.  0.
          2    1    1    2  501    0  0.25293168250E+02 -0.15727312855E+02 -0.81555039262E+02  0.86823482761E+02  0.00000000000E+00 0. -1.
          1    1    1    2  502    0 -0.41864101991E+02 -0.12303250359E+02  0.10439988492E+04  0.10449103168E+04  0.00000000000E+00 0. -1.
         22    1    3    3    0    0 -0.25886349160E+02 -0.40759929034E+02  0.13531209843E+02  0.50145473649E+02  0.00000000000E+00 0.  1.
         22    1    3    3    0    0  0.42457282900E+02  0.68790492248E+02  0.27171854746E+02  0.85282251292E+02  0.00000000000E+00 0.  1.
</event>
<event>
 7    1  0.5977291E-006  0.1057531E+03  0.7818608E-02  0.1425932E+00
          2   -1    0    0  502    0  0.00000000000E+00  0.00000000000E+00  0.11631099295E+03  0.11631099295E+03  0.00000000000E+00 0. -1.
          1   -1    0    0  501    0 -0.00000000000E+00 -0.00000000000E+00 -0.14271363340E+04  0.14271363340E+04  0.00000000000E+00 0. -1.
         25    2    1    2    0    0  0.11324421594E+02 -0.12890155750E+03 -0.21943713014E+03  0.28376395161E+03  0.12500188840E+03 0.  0.
          2    1    1    2  501    0  0.33966446159E+01  0.27143189535E+02 -0.11439035849E+04  0.11442306155E+04  0.00000000000E+00 0. -1.
          1    1    1    2  502    0 -0.14721066209E+02  0.10175836796E+03  0.52515374009E+02  0.11545275981E+03  0.00000000000E+00 0. -1.
         22    1    3    3    0    0  0.22455991930E+01 -0.11142766961E+03 -0.66955719975E+02  0.13001629401E+03  0.00000000000E+00 0.  1.
         22    1    3    3    0    0  0.90788224006E+01 -0.17473887887E+02 -0.15248141016E+03  0.15374765760E+03  0.00000000000E+00 0.  1.
</event>
<event>
 7    1  0.5977291E-006  0.1862646E+03  0.7818608E-02  0.1320980E+00
          2   -1    0    0  502    0  0.00000000000E+00  0.00000000000E+00  0.32291136444E+03  0.32291136444E+03  0.00000000000E+00 0. -1.
          1   -1    0    0  501    0 -0.00000000000E+00 -0.00000000000E+00 -0.12570573356E+04  0.12570573356E+04  0.00000000000E+00 0. -1.
         25    2    1    2    0    0  0.18815558424E+03 -0.97348356903E+02 -0.55895196368E+03  0.61068084150E+03  0.12499826396E+03 0.  0.
          2    1    1    2  501    0 -0.14231840247E+02  0.34054064405E+02 -0.64282996964E+03  0.64388865066E+03  0.00000000000E+00 0. -1.
          1    1    1    2  502    0 -0.17392374400E+03  0.63294292498E+02  0.26763596221E+03  0.32539920783E+03  0.00000000000E+00 0. -1.
         22    1    3    3    0    0  0.14491884243E+03 -0.12768132575E+03 -0.44185270933E+03  0.48222174212E+03  0.00000000000E+00 0.  1.
         22    1    3    3    0    0  0.43236741818E+02  0.30332968843E+02 -0.11709925436E+03  0.12845909938E+03  0.00000000000E+00 0.  1.
</event>
<event>
 7    1  0.5977291E-006  0.3299894E+02  0.7818608E-02  0.1592270E+00
          2   -1    0    0  502    0  0.00000000000E+00  0.00000000000E+00  0.27317856382E+03  0.27317856382E+03  0.00000000000E+00 0. -1.
          1   -1    0    0  501    0 -0.00000000000E+00 -0.00000000000E+00 -0.12992843911E+04  0.12992843911E+04  0.00000000000E+00 0. -1.
         25    2    1    2    0    0 -0.37363313710E+02 -0.37705615726E+02 -0.10803624277E+04  0.10888646897E+04  0.12500242660E+03 0.  0.
          2    1    1    2  501    0  0.11362982660E+02  0.26654672781E+02 -0.21294498221E+03  0.21490731585E+03  0.00000000000E+00 0. -1.
          1    1    1    2  502    0  0.26000331050E+02  0.11050942945E+02  0.26720158259E+03  0.26869094941E+03  0.00000000000E+00 0. -1.
         22    1    3    3    0    0 -0.72789641080E+02 -0.12846178794E+02 -0.91334977090E+03  0.91633572459E+03  0.00000000000E+00 0. -1.
         22    1    3    3    0    0  0.35426327370E+02 -0.24859436932E+02 -0.16701265678E+03  0.17252896511E+03  0.00000000000E+00 0. -1.
</event>
<event>
 7    1  0.5977291E-006  0.5739689E+02  0.7818608E-02  0.1479958E+00
          2   -1    0    0  502    0  0.00000000000E+00  0.00000000000E+00  0.85279104731E+03  0.85279104731E+03  0.00000000000E+00 0. -1.
          1   -1    0    0  501    0 -0.00000000000E+00 -0.00000000000E+00 -0.42583290031E+03  0.42583290031E+03  0.00000000000E+00 0. -1.
         25    2    1    2    0    0  0.15349261317E+02 -0.54314142226E+02  0.76455456316E+01  0.13734923627E+03  0.12498292871E+03 0.  0.
          2    1    1    2  501    0 -0.44424050308E+02  0.36876560164E+02 -0.35830077980E+03  0.36292261674E+03  0.00000000000E+00 0. -1.
          1    1    1    2  502    0  0.29074788991E+02  0.17437582062E+02  0.77761338116E+03  0.77835209461E+03  0.00000000000E+00 0. -1.
         22    1    3    3    0    0 -0.47478800633E+02 -0.17731011149E+02  0.32855627509E+02  0.60399648384E+02  0.00000000000E+00 0. -1.
         22    1    3    3    0    0  0.62828061950E+02 -0.36583131076E+02 -0.25210081878E+02  0.76949587887E+02  0.00000000000E+00 0. -1.
</event>
<event>
 7    1  0.5977291E-006  0.2495740E+03  0.7818608E-02  0.1203596E+00
          2   -1    0    0  502    0  0.00000000000E+00  0.00000000000E+00  0.62037370850E+03  0.62037370850E+03  0.00000000000E+00 0. -1.
          1   -1    0    0  501    0 -0.00000000000E+00 -0.00000000000E+00 -0.35790798426E+03  0.35790798426E+03  0.00000000000E+00 0. -1.
         25    2    1    2    0    0 -0.39728532169E+02  0.20224468258E+03  0.72447818800E+02  0.25170134340E+03  0.12499444755E+03 0.  0.
          2    1    1    2  501    0 -0.15325471365E+02 -0.26981265448E+03 -0.19408044503E+03  0.33271753445E+03  0.00000000000E+00 0. -1.
          1    1    1    2  502    0  0.55054003534E+02  0.67567971901E+02  0.38409835047E+03  0.39386281490E+03  0.00000000000E+00 0. -1.
         22    1    3    3    0    0 -0.60130996168E+02  0.44108099044E+02  0.52078108024E+02  0.90958179603E+02  0.00000000000E+00 0. -1.
         22    1    3    3    0    0  0.20402463999E+02  0.15813658354E+03  0.20369710777E+02  0.16074316379E+03  0.00000000000E+00 0. -1.
</event>
<event>
 7    1  0.5977291E-006  0.6830162E+02  0.7818608E-02  0.1378567E+00
          2   -1    0    0  502    0  0.00000000000E+00  0.00000000000E+00  0.19183842397E+04  0.19183842397E+04  0.00000000000E+00 0. -1.
          1   -1    0    0  501    0 -0.00000000000E+00 -0.00000000000E+00 -0.42259919930E+02  0.42259919930E+02  0.00000000000E+00 0. -1.
         25    2    1    2    0    0  0.26158205883E+02 -0.62139238484E+01  0.16694349433E+03  0.21027926464E+03  0.12499749698E+03 0.  0.
          2    1    1    2  501    0 -0.62057338141E+02 -0.51892557822E+02  0.62391942422E+02  0.10216019408E+03  0.00000000000E+00 0. -1.
          1    1    1    2  502    0  0.35899132258E+02  0.58106481670E+02  0.16467888830E+04  0.16482047009E+04  0.00000000000E+00 0. -1.
         22    1    3    3    0    0  0.56611953719E+02 -0.23311489850E+02  0.16420467974E+03  0.17524701341E+03  0.00000000000E+00 0. -1.
         22    1    3    3    0    0 -0.30453747836E+02  0.17097566002E+02  0.27388145977E+01  0.35032251224E+02  0.00000000000E+00 0. -1.
</event>
<event>
 7    1  0.5977291E-006  0.1908652E+03  0.7818608E-02  0.1277589E+00
          2   -1    0    0  502    0  0.00000000000E+00  0.00000000000E+00  0.48604083244E+03  0.48604083244E+03  0.00000000000E+00 0. -1.
          1   -1    0    0  501    0 -0.00000000000E+00 -0.00000000000E+00 -0.61737996286E+03  0.61737996286E+03  0.00000000000E+00 0. -1.
         25    2    1    2    0    0  0.46925957378E+02 -0.19710540837E+03  0.10631141003E+03  0.26072912050E+03  0.12499988355E+03 0.  0.
          2    1    1    2  501    0  0.43331429747E+02  0.31823842814E+02 -0.50931114203E+03  0.51214080990E+03  0.00000000000E+00 0. -1.
          1    1    1    2  502    0 -0.90257387126E+02  0.16528156556E+03  0.27166060158E+03  0.33055086491E+03  0.00000000000E+00 0. -1.
         22    1    3    3    0    0  0.28985914946E+02  0.26845586133E+01 -0.75496893335E+01  0.30073043233E+02  0.00000000000E+00 0. -1.
         22    1    3    3    0    0  0.17940042432E+02 -0.19978996698E+03  0.11386109936E+03  0.23065607726E+03  0.00000000000E+00 0. -1.
</event>
<event>
 7    1  0.5977291E-006  0.7190122E+02  0.7818608E-02  0.1413736E+00
          2   -1    0    0  502    0  0.00000000000E+00  0.00000000000E+00  0.33233817894E+04  0.33233817894E+04  0.00000000000E+00 0. -1.
          1   -1    0    0  501    0 -0.00000000000E+00 -0.00000000000E+00 -0.12236265411E+03  0.12236265411E+03  0.00000000000E+00 0. -1.
         25    2    1    2    0    0 -0.29737420184E+02 -0.12313635440E+02  0.12215251326E+04  0.12283258807E+04  0.12499951915E+03 0.  0.
          2    1    1    2  501    0  0.51367340370E+02  0.50849657476E+02 -0.10772788825E+03  0.12972890668E+03  0.00000000000E+00 0. -1.
          1    1    1    2  502    0 -0.21629920186E+02 -0.38536022036E+02  0.20872218908E+04  0.20876896561E+04  0.00000000000E+00 0. -1.
         22    1    3    3    0    0 -0.34245739634E+02  0.17515208589E+02  0.11507101216E+04  0.11513528291E+04  0.00000000000E+00 0. -1.
         22    1    3    3    0    0  0.45083194501E+01 -0.29828844029E+02  0.70815011048E+02  0.76973051583E+02  0.00000000000E+00 0. -1.
</event>
<event>
 7    1  0.5977291E-006  0.5250932E+02  0.7818608E-02  0.1539093E+00
          2   -1    0    0  502    0  0.00000000000E+00  0.00000000000E+00  0.10349171407E+04  0.10349171407E+04  0.00000000000E+00 0. -1.
          1   -1    0    0  501    0 -0.00000000000E+00 -0.00000000000E+00 -0.63035475056E+03  0.63035475056E+03  0.00000000000E+00 0. -1.
         25    2    1    2    0    0 -0.23224573824E+02  0.24680680020E+02  0.13439035610E+03  0.18663832709E+03  0.12499832211E+03 0.  0.
          2    1    1    2  501    0  0.18971548297E+02 -0.49124141369E+02 -0.60290683316E+03  0.60520223924E+03  0.00000000000E+00 0. -1.
          1    1    1    2  502    0  0.42530255265E+01  0.24443461349E+02  0.87307886717E+03  0.87343132490E+03  0.00000000000E+00 0. -1.
         22    1    3    3    0    0 -0.14192602361E+01  0.72238073237E+02  0.51917074848E+02  0.88970423093E+02  0.00000000000E+00 0. -1.
         22    1    3    3    0    0 -0.21805313587E+02 -0.47557393216E+02  0.82473281256E+02  0.97667903998E+02  0.00000000000E+00 0. -1.
</event>
<event>
 7    1  0.5977291E-006  0.5929067E+02  0.7818608E-02  0.1425654E+00
          2   -1    0    0  502    0  0.00000000000E+00  0.00000000000E+00  0.90997261155E+03  0.90997261155E+03  0.00000000000E+00 0. -1.
          1   -1    0    0  501    0 -0.00000000000E+00 -0.00000000000E+00 -0.15379395299E+04  0.15379395299E+04  0.00000000000E+00 0. -1.
         25    2    1    2    0    0 -0.72958436902E+02 -0.41434493057E+02 -0.61266410804E+02  0.16253871407E+03  0.12500203897E+03 0.  0.
          2    1    1    2  501    0  0.25544010201E+02  0.53374055786E+02 -0.14247268542E+04  0.14259550818E+04  0.00000000000E+00 0. -1.
          1    1    1    2  502    0  0.47414426700E+02 -0.11939562729E+02  0.85802634669E+03  0.85941834553E+03  0.00000000000E+00 0. -1.
         22    1    3    3    0    0 -0.51442659911E+02 -0.16088916304E+02  0.32577188816E+02  0.62979946949E+02  0.00000000000E+00 0.  1.
         22    1    3    3    0    0 -0.21515776991E+02 -0.25345576753E+02 -0.93843599620E+02  0.99558767119E+02  0.00000000000E+00 0.  1.
</event>
<event>
 7    1  0.5977291E-006  0.9275823E+02  0.7818608E-02  0.1319837E+00
          2   -1    0    0  502    0  0.00000000000E+00  0.00000000000E+00  0.89635201912E+03  0.89635201912E+03  0.00000000000E+00 0. -1.
          1   -1    0    0  501    0 -0.00000000000E+00 -0.00000000000E+00 -0.21267553760E+04  0.21267553760E+04  0.00000000000E+00 0. -1.
         25    2    1    2    0    0  0.12810758192E+03  0.10432857517E+03  0.15721293134E+03  0.26006301204E+03  0.12498344013E+03 0.  0.
          2    1    1    2  501    0 -0.62703483062E+02 -0.67879641439E+02 -0.20722595994E+04  0.20743189774E+04  0.00000000000E+00 0. -1.
          1    1    1    2  502    0 -0.65404098860E+02 -0.36448933734E+02  0.68464331119E+03  0.68872540571E+03  0.00000000000E+00 0. -1.
         22    1    3    3    0    0  0.10094443222E+03  0.10365608569E+03  0.17539341912E+03  0.22737021345E+03  0.00000000000E+00 0. -1.
         22    1    3    3    0    0  0.27163149702E+02  0.67248948204E+00 -0.18180487773E+02  0.32692798587E+02  0.00000000000E+00 0. -1.
</event>
<event>
 7    1  0.5977291E-006  0.7814533E+02  0.7818608E-02  0.1476310E+00
          2   -1    0    0  502    0  0.00000000000E+00  0.00000000000E+00  0.29787419715E+03  0.29787419715E+03  0.00000000000E+00 0. -1.
          1   -1    0    0  501    0 -0.00000000000E+00 -0.00000000000E+00 -0.35854676146E+03  0.35854676146E+03  0.00000000000E+00 0. -1.
         25    2    1    2    0    0  0.47725092773E+02 -0.72757883260E+02 -0.86024338081E+02  0.17491965327E+03  0.12500121720E+03 0.  0.
          2    1    1    2  501    0 -0.25482705053E+02 -0.18966380165E+01 -0.22133629067E+03  0.22280646099E+03  0.00000000000E+00 0. -1.
          1    1    1    2  502    0 -0.22242387720E+02  0.74654521277E+02  0.24668806444E+03  0.25869484435E+03  0.00000000000E+00 0. -1.
         22    1    3    3    0    0  0.67537814376E+02  0.89781478223E+01 -0.41133392684E+02  0.79585925280E+02  0.00000000000E+00 0. -1.
         22    1    3    3    0    0 -0.19812721603E+02 -0.81736031082E+02 -0.44890945397E+02  0.95333727993E+02  0.00000000000E+00 0. -1.
</event>
<event>
 7    1  0.5977291E-006  0.1135046E+03  0.7818608E-02  0.1447874E+00
          2   -1    0    0  502    0  0.00000000000E+00  0.00000000000E+00  0.49821664379E+03  0.49821664379E+03  0.00000000000E+00 0. -1.
          1   -1    0    0  501    0 -0.00000000000E+00 -0.00000000000E+00 -0.35739490695E+03  0.35739490695E+03  0.00000000000E+00 0. -1.
         25    2    1    2    0    0 -0.12417580802E+03  0.39030902116E+02 -0.77643104873E+01  0.18063335879E+03  0.12500033269E+03 0.  0.
          2    1    1    2  501    0  0.21011195823E+02  0.50792401981E+01 -0.25508766741E+03  0.25600192791E+03  0.00000000000E+00 0. -1.
          1    1    1    2  502    0  0.10316461220E+03 -0.44110142314E+02  0.40367371473E+03  0.41897626404E+03  0.00000000000E+00 0. -1.
         22    1    3    3    0    0 -0.88420921579E+01  0.62184637349E+02 -0.13771113491E+01  0.62825219073E+02  0.00000000000E+00 0. -1.
         22    1    3    3    0    0 -0.11533371586E+03 -0.23153735232E+02 -0.63871991382E+01  0.11780813971E+03  0.00000000000E+00 0. -1.
</event>
<event>
 7    1  0.5977291E-006  0.2901460E+02  0.7818608E-02  0.1632695E+00
          2   -1    0    0  502    0  0.00000000000E+00  0.00000000000E+00  0.45440627128E+03  0.45440627128E+03  0.00000000000E+00 0. -1.
          1   -1    0    0  501    0 -0.00000000000E+00 -0.00000000000E+00 -0.93589907381E+03  0.93589907381E+03  0.00000000000E+00 0. -1.
         25    2    1    2    0    0  0.16440476897E+02  0.49440650692E+02  0.77898810946E+02  0.15623038215E+03  0.12500016135E+03 0.  0.
          2    1    1    2  501    0 -0.14329610085E+02 -0.20839322950E+02 -0.89594498711E+03  0.89630186602E+03  0.00000000000E+00 0. -1.
          1    1    1    2  502    0 -0.21108668118E+01 -0.28601327742E+02  0.33655337363E+03  0.33777309693E+03  0.00000000000E+00 0. -1.
         22    1    3    3    0    0  0.38710107237E+02  0.83848532143E+02  0.66131230800E+02  0.11358868091E+03  0.00000000000E+00 0.  1.
         22    1    3    3    0    0 -0.22269630340E+02 -0.34407881451E+02  0.11767580146E+02  0.42641701232E+02  0.00000000000E+00 0.  1.
</event>
<event>
 7    1  0.5977291E-006  0.6815963E+02  0.7818608E-02  0.1431573E+00
          2   -1    0    0  502    0  0.00000000000E+00  0.00000000000E+00  0.28467555638E+03  0.28467555638E+03  0.00000000000E+00 0. -1.
          1   -1    0    0  501    0 -0.00000000000E+00 -0.00000000000E+00 -0.21017129085E+04  0.21017129085E+04  0.00000000000E+00 0. -1.
         25    2    1    2    0    0  0.55623645216E+02 -0.61068427490E+02  0.53110938995E+02  0.15896591077E+03  0.12500418475E+03 0.  0.
          2    1    1    2  501    0 -0.40387161131E+02 -0.47251449578E+01 -0.20421928177E+04  0.20425975997E+04  0.00000000000E+00 0. -1.
          1    1    1    2  502    0 -0.15236484085E+02  0.65793572448E+02  0.17204452659E+03  0.18482495436E+03  0.00000000000E+00 0. -1.
         22    1    3    3    0    0  0.59114520732E+02 -0.73265546238E+02 -0.99287418543E+01  0.94662277290E+02  0.00000000000E+00 0.  1.
         22    1    3    3    0    0 -0.34908755167E+01  0.12197118748E+02  0.63039680849E+02  0.64303633484E+02  0.00000000000E+00 0.  1.
</event>
<event>
 7    1  0.5977291E-006  0.6037931E+02  0.7818608E-02  0.1433442E+00
          2   -1    0    0  502    0  0.00000000000E+00  0.00000000000E+00  0.30715189218E+03  0.30715189218E+03  0.00000000000E+00 0. -1.
          1   -1    0    0  501    0 -0.00000000000E+00 -0.00000000000E+00 -0.15904627897E+04  0.15904627897E+04  0.00000000000E+00 0. -1.
         25    2    1    2    0    0 -0.25965787742E+02  0.82230129407E+01 -0.33034689412E+03  0.35425176277E+03  0.12499360343E+03 0.  0.
          2    1    1    2  501    0 -0.30411514493E+01  0.45156492143E+02 -0.12446221331E+04  0.12454447445E+04  0.00000000000E+00 0. -1.
          1    1    1    2  502    0  0.29006939191E+02 -0.53379505084E+02  0.29165812975E+03  0.29791817456E+03  0.00000000000E+00 0. -1.
         22    1    3    3    0    0 -0.62378866784E+02  0.19192274526E+02 -0.91469056178E+02  0.11236571835E+03  0.00000000000E+00 0.  1.
         22    1    3    3    0    0  0.36413079043E+02 -0.10969261585E+02 -0.23887783794E+03  0.24188604442E+03  0.00000000000E+00 0.  1.
</event>
<event>
 7    1  0.5977291E-006  0.3668450E+02  0.7818608E-02  0.1555021E+00
          2   -1    0    0  502    0  0.00000000000E+00  0.00000000000E+00  0.14986339343E+04  0.14986339343E+04  0.00000000000E+00 0. -1.
          1   -1    0    0  501    0 -0.00000000000E+00 -0.00000000000E+00 -0.23373028855E+04  0.23373028855E+04  0.00000000000E+00 0. -1.
         25    2    1    2    0    0 -0.26726436979E+02  0.26618042117E+02  0.44500850581E+03  0.46376740893E+03  0.12499926697E+03 0.  0.
          2    1    1    2  501    0  0.30337643174E+02  0.10326486718E+02 -0.23274832025E+04  0.23277038186E+04  0.00000000000E+00 0. -1.
          1    1    1    2  502    0 -0.36112061950E+01 -0.36944528835E+02  0.10438057456E+04  0.10444655923E+04  0.00000000000E+00 0. -1.
         22    1    3    3    0    0 -0.65615979068E+01  0.74955364547E+01  0.43361977872E+03  0.43373419295E+03  0.00000000000E+00 0. -1.
         22    1    3    3    0    0 -0.20164839072E+02  0.19122505662E+02  0.11388727089E+02  0.30033215984E+02  0.00000000000E+00 0. -1.
</event>
<event>
 7    1  0.5977291E-006  0.7729334E+02  0.7818608E-02  0.1404375E+00
          2   -1    0    0  502    0  0.00000000000E+00  0.00000000000E+00  0.28433766240E+04  0.28433766240E+04  0.00000000000E+00 0. -1.
          1   -1    0    0  501    0 -0.00000000000E+00 -0.00000000000E+00 -0.12900567775E+02  0.12900567775E+02  0.00000000000E+00 0. -1.
         25    2    1    2    0    0  0.34566862206E+02 -0.19798339709E+02  0.73793653712E+03  0.74950827488E+03  0.12500191630E+03 0.  0.
          2    1    1    2  501    0  0.43485347130E+02 -0.80699865883E+01  0.71787977347E+02  0.84318525782E+02  0.00000000000E+00 0. -1.
          1    1    1    2  502    0 -0.78052209337E+02  0.27868326297E+02  0.20207515418E+04  0.20224503912E+04  0.00000000000E+00 0. -1.
         22    1    3    3    0    0  0.76673106000E+02  0.13065139370E+02  0.43444500777E+03  0.44135238509E+03  0.00000000000E+00 0.  1.
         22    1    3    3    0    0 -0.42106243794E+02 -0.32863479079E+02  0.30349152934E+03  0.30815588978E+03  0.00000000000E+00 0.  1.
</event>
<event>
 7    1  0.5977291E-006  0.5355172E+02  0.7818608E-02  0.1434346E+00
          2   -1    0    0  502    0  0.00000000000E+00  0.00000000000E+00  0.48551640736E+03  0.48551640736E+03  0.00000000000E+00 0. -1.
          1   -1    0    0  501    0 -0.00000000000E+00 -0.00000000000E+00 -0.46218660252E+03  0.46218660252E+03  0.00000000000E+00 0. -1.
         25    2    1    2    0    0  0.11359715640E+02 -0.21805282738E+02  0.66780483044E+01  0.12757222048E+03  0.12500224643E+03 0.  0.
          2    1    1    2  501    0  0.35101771584E+02  0.42055241083E+02 -0.39832316376E+03  0.40207228263E+03  0.00000000000E+00 0. -1.
          1    1    1    2  502    0 -0.46461487224E+02 -0.20249958344E+02  0.41497492030E+03  0.41805850677E+03  0.00000000000E+00 0. -1.
         22    1    3    3    0    0  0.56664719559E+02 -0.48481725440E+02  0.78272979659E+01  0.74984229927E+02  0.00000000000E+00 0. -1.
         22    1    3    3    0    0 -0.45305003919E+02  0.26676442702E+02 -0.11492496615E+01  0.52587990550E+02  0.00000000000E+00 0. -1.
</event>
<event>
 7    1  0.5977291E-006  0.1972822E+03  0.7818608E-02  0.1202599E+00
          2   -1    0    0  502    0  0.00000000000E+00  0.00000000000E+00  0.27144747330E+03  0.27144747330E+03  0.00000000000E+00 0. -1.
          1   -1    0    0  501    0 -0.00000000000E+00 -0.00000000000E+00 -0.12605936406E+04  0.12605936406E+04  0.00000000000E+00 0. -1.
         25    2    1    2    0    0  0.13063597685E+03  0.19619450575E+03 -0.25588129139E+03  0.36967273715E+03  0.12499861907E+03 0.  0.
          2    1    1    2  501    0  0.41146642708E+02 -0.10358068841E+03 -0.89927400385E+03  0.90615436832E+03  0.00000000000E+00 0. -1.
          1    1    1    2  502    0 -0.17178261956E+03 -0.92613817338E+02  0.16600912797E+03  0.25621400842E+03  0.00000000000E+00 0. -1.
         22    1    3    3    0    0  0.20400094171E+02  0.14099695967E+03 -0.15346345484E+03  0.20939756075E+03  0.00000000000E+00 0. -1.
         22    1    3    3    0    0  0.11023588268E+03  0.55197546086E+02 -0.10241783655E+03  0.16027517640E+03  0.00000000000E+00 0. -1.
</event>
<event>
 7    1  0.5977291E-006  0.1204790E+03  0.7818608E-02  0.1328713E+00
          2   -1    0    0  502    0  0.00000000000E+00  0.00000000000E+00  0.13478368882E+04  0.13478368882E+04  0.00000000000E+00 0. -1.
          1   -1    0    0  501    0 -0.00000000000E+00 -0.00000000000E+00 -0.41870991619E+03  0.41870991619E+03  0.00000000000E+00 0. -1.
         25    2    1    2    0    0  0.84581735141E+02  0.24199767922E+02  0.12116940382E+03  0.19506143395E+03  0.12500895930E+03 0.  0.
          2    1    1    2  501    0  0.38620369690E+02 -0.36704796995E+02 -0.37666155761E+03  0.38041123019E+03  0.00000000000E+00 0. -1.
          1    1    1    2  502    0 -0.12320210483E+03  0.12505029074E+02  0.11846191258E+04  0.11910741402E+04  0.00000000000E+00 0. -1.
         22    1    3    3    0    0  0.90635891634E+02  0.55621366149E+02  0.50997838360E+02  0.11793803772E+03  0.00000000000E+00 0. -1.
         22    1    3    3    0    0 -0.60541564935E+01 -0.31421598227E+02  0.70171565459E+02  0.77123396223E+02  0.00000000000E+00 0. -1.
</event>
<event>
 7    1  0.5977291E-006  0.1688434E+03  0.7818608E-02  0.1260893E+00
          2   -1    0    0  502    0  0.00000000000E+00  0.00000000000E+00  0.58065748510E+03  0.58065748510E+03  0.00000000000E+00 0. -1.
          1   -1    0    0  501    0 -0.00000000000E+00 -0.00000000000E+00 -0.37911535485E+03  0.37911535485E+03  0.00000000000E+00 0. -1.
         25    2    1    2    0    0 -0.27928843961E+02 -0.11462236868E+03  0.17696102592E+03  0.24669485324E+03  0.12499935277E+03 0.  0.
          2    1    1    2  501    0  0.90156591278E+02  0.14970775203E+03 -0.31814641865E+03  0.36298452539E+03  0.00000000000E+00 0. -1.
          1    1    1    2  502    0 -0.62227747317E+02 -0.35085383353E+02  0.34272752297E+03  0.35009346132E+03  0.00000000000E+00 0. -1.
         22    1    3    3    0    0 -0.34003954061E+02 -0.76370873802E+02  0.21275122300E+02  0.86263608120E+02  0.00000000000E+00 0. -1.
         22    1    3    3    0    0  0.60751101005E+01 -0.38251494879E+02  0.15568590362E+03  0.16043124512E+03  0.00000000000E+00 0. -1.
</event>
<event>
 7    1  0.5977291E-006  0.5777819E+02  0.7818608E-02  0.1429911E+00
          2   -1    0    0  502    0  0.00000000000E+00  0.00000000000E+00  0.92103630006E+03  0.92103630006E+03  0.00000000000E+00 0. -1.
          1   -1    0    0  501    0 -0.00000000000E+00 -0.00000000000E+00 -0.45424669778E+03  0.45424669778E+03  0.00000000000E+00 0. -1.
         25    2    1    2    0    0  0.14346084326E+02 -0.28629358726E+02  0.55878414048E+03  0.57348995172E+03  0.12500223499E+03 0.  0.
          2    1    1    2  501    0 -0.20469062485E+02 -0.44053233301E+02 -0.44180071722E+03  0.44446320840E+03  0.00000000000E+00 0. -1.
          1    1    1    2  502    0  0.61229781591E+01  0.72682592027E+02  0.34980617903E+03  0.35732983773E+03  0.00000000000E+00 0. -1.
         22    1    3    3    0    0  0.29404361283E+02 -0.60912608072E+02  0.50144591406E+03  0.50598712139E+03  0.00000000000E+00 0. -1.
         22    1    3    3    0    0 -0.15058276957E+02  0.32283249346E+02  0.57338226424E+02  0.67502830332E+02  0.00000000000E+00 0. -1.
</event>
<event>
 7    1  0.5977291E-006  0.2126337E+03  0.7818608E-02  0.1149936E+00
          2   -1    0    0  502    0  0.00000000000E+00  0.00000000000E+00  0.19579508536E+04  0.19579508536E+04  0.00000000000E+00 0. -1.
          1   -1    0    0  501    0 -0.00000000000E+00 -0.00000000000E+00 -0.15011555947E+04  0.15011555947E+04  0.00000000000E+00 0. -1.
         25    2    1    2    0    0 -0.60351905035E+02  0.32658612151E+02  0.27332867127E+03  0.30828738280E+03  0.12499444175E+03 0.  0.
          2    1    1    2  501    0  0.21742818583E+02 -0.21632371911E+03 -0.14703753823E+04  0.14863621586E+04  0.00000000000E+00 0. -1.
          1    1    1    2  502    0  0.38609086452E+02  0.18366510696E+03  0.16538419700E+04  0.16644569069E+04  0.00000000000E+00 0. -1.
         22    1    3    3    0    0 -0.56303404429E+02  0.13390314533E+02  0.31950533678E+02  0.66107567463E+02  0.00000000000E+00 0. -1.
         22    1    3    3    0    0 -0.40485006059E+01  0.19268297619E+02  0.24137813759E+03  0.24217981533E+03  0.00000000000E+00 0. -1.
</event>
<event>
 7    1  0.5977291E-006  0.1468882E+03  0.7818608E-02  0.1349777E+00
          2   -1    0    0  502    0  0.00000000000E+00  0.00000000000E+00  0.52287038249E+02  0.52287038249E+02  0.00000000000E+00 0. -1.
          1   -1    0    0  501    0 -0.00000000000E+00 -0.00000000000E+00 -0.88507642131E+03  0.88507642131E+03  0.00000000000E+00 0. -1.
         25    2    1    2    0    0 -0.13085359635E+03  0.16451455181E+02 -0.39394008914E+03  0.43382914020E+03  0.12500245998E+03 0.  0.
          2    1    1    2  501    0  0.15109136254E+03 -0.46711530904E+02 -0.43953864807E+03  0.46712395582E+03  0.00000000000E+00 0. -1.
          1    1    1    2  502    0 -0.20237766192E+02  0.30260075722E+02  0.68935415886E+00  0.36410363529E+02  0.00000000000E+00 0. -1.
         22    1    3    3    0    0 -0.28275026176E+02 -0.42809238453E+02 -0.20081169254E+03  0.20726177617E+03  0.00000000000E+00 0. -1.
         22    1    3    3    0    0 -0.10257857017E+03  0.59260693635E+02 -0.19312839660E+03  0.22656736403E+03  0.00000000000E+00 0. -1.
</event>
<event>
 7    1  0.5977291E-006  0.7937490E+02  0.7818608E-02  0.1347648E+00
          2   -1    0    0  502    0  0.00000000000E+00  0.00000000000E+00  0.28863445119E+04  0.28863445119E+04  0.00000000000E+00 0. -1.
          1   -1    0    0  501    0 -0.00000000000E+00 -0.00000000000E+00 -0.15310401890E+03  0.15310401890E+03  0.00000000000E+00 0. -1.
         25    2    1    2    0    0 -0.11399179236E+03 -0.61832996405E+02  0.51045978155E+03  0.54130635080E+03  0.12500371463E+03 0.  0.
          2    1    1    2  501    0  0.78512706259E+02  0.31148521546E+01 -0.12592830995E+03  0.14843142051E+03  0.00000000000E+00 0. -1.
          1    1    1    2  502    0  0.35479086097E+02  0.58718144250E+02  0.23487090214E+04  0.23497107595E+04  0.00000000000E+00 0. -1.
         22    1    3    3    0    0 -0.12726131046E+03 -0.45574494731E+02  0.29120576125E+03  0.32105026256E+03  0.00000000000E+00 0.  1.
         22    1    3    3    0    0  0.13269518102E+02 -0.16258501674E+02  0.21925402030E+03  0.22025608824E+03  0.00000000000E+00 0.  1.
</event>
<event>
 7    1  0.5977291E-006  0.1460171E+03  0.7818608E-02  0.1333667E+00
          2   -1    0    0  502    0  0.00000000000E+00  0.00000000000E+00  0.80501493667E+03  0.80501493667E+03  0.00000000000E+00 0. -1.
          1   -1    0    0  501    0 -0.00000000000E+00 -0.00000000000E+00 -0.11735083679E+04  0.11735083679E+04  0.00000000000E+00 0. -1.
         25    2    1    2    0    0 -0.14923451515E+03 -0.57107818612E+02 -0.45393104638E+02  0.20788736596E+03  0.12499751805E+03 0.  0.
          2    1    1    2  501    0  0.31303325586E+02 -0.28136904954E+02 -0.10391238212E+04  0.10399759129E+04  0.00000000000E+00 0. -1.
          1    1    1    2  502    0  0.11793118956E+03  0.85244723566E+02  0.71602349460E+03  0.73066002572E+03  0.00000000000E+00 0. -1.
         22    1    3    3    0    0 -0.87917908937E+02  0.32350148970E+02 -0.12231264278E+02  0.94475894682E+02  0.00000000000E+00 0.  1.
         22    1    3    3    0    0 -0.61316606209E+02 -0.89457967582E+02 -0.33161840361E+02  0.11341147128E+03  0.00000000000E+00 0.  1.
</event>
<event>
 7    1  0.5977291E-006  0.1354509E+03  0.7818608E-02  0.1226373E+00
          2   -1    0    0  502    0  0.00000000000E+00  0.00000000000E+00  0.78261755816E+02  0.78261755816E+02  0.00000000000E+00 0. -1.
          1   -1    0    0  501    0 -0.00000000000E+00 -0.00000000000E+00 -0.12082457141E+04  0.12082457141E+04  0.00000000000E+00 0. -1.
         25    2    1    2    0    0 -0.17187582001E+02 -0.40404591624E+02 -0.57438871251E+03  0.58947007032E+03  0.12499850701E+03 0.  0.
          2    1    1    2  501    0 -0.12567872901E+03 -0.11212888481E+02 -0.52772121212E+03  0.54259612007E+03  0.00000000000E+00 0. -1.
          1    1    1    2  502    0  0.14286631101E+03  0.51617480105E+02 -0.27874033685E+02  0.15444127955E+03  0.00000000000E+00 0. -1.
         22    1    3    3    0    0 -0.32220587360E+02 -0.81097623254E+02 -0.33479681413E+03  0.34598251040E+03  0.00000000000E+00 0.  1.
         22    1    3    3    0    0  0.15033005360E+02  0.40693031630E+02 -0.23959189837E+03  0.24348755993E+03  0.00000000000E+00 0.  1.
</event>
<event>
 7    1  0.5977291E-006  0.3292287E+02  0.7818608E-02  0.1595807E+00
          2   -1    0    0  502    0  0.00000000000E+00  0.00000000000E+00  0.94584436411E+03  0.94584436411E+03  0.00000000000E+00 0. -1.
          1   -1    0    0  501    0 -0.00000000000E+00 -0.00000000000E+00 -0.21091150564E+02  0.21091150564E+02  0.00000000000E+00 0. -1.
         25    2    1    2    0    0 -0.41777380143E+01  0.10636278066E+02  0.36087500671E+03  0.38208303522E+03  0.12500436565E+03 0.  0.
          2    1    1    2  501    0  0.31561619911E+02 -0.14914145320E+02  0.19926131820E+02  0.40194754774E+02  0.00000000000E+00 0. -1.
          1    1    1    2  502    0 -0.27383881897E+02  0.42778672541E+01  0.54395207502E+03  0.54465772468E+03  0.00000000000E+00 0. -1.
         22    1    3    3    0    0  0.57133610353E+01  0.37572693363E+02  0.34894230373E+03  0.35100581350E+03  0.00000000000E+00 0.  1.
         22    1    3    3    0    0 -0.98910990496E+01 -0.26936415297E+02  0.11932702984E+02  0.31077221722E+02  0.00000000000E+00 0.  1.
</event>
<event>
 7    1  0.5977291E-006  0.3705297E+02  0.7818608E-02  0.1609797E+00
          2   -1    0    0  502    0  0.00000000000E+00  0.00000000000E+00  0.63329496111E+03  0.63329496111E+03  0.00000000000E+00 0. -1.
          1   -1    0    0  501    0 -0.00000000000E+00 -0.00000000000E+00 -0.75781780304E+03  0.75781780304E+03  0.00000000000E+00 0. -1.
         25    2    1    2    0    0  0.20604806621E+02 -0.55677800784E+02  0.56939024485E+02  0.14964159023E+03  0.12500390978E+03 0.  0.
          2    1    1    2  501    0 -0.70899925426E+01  0.21506919375E+02 -0.71064901711E+03  0.71100973348E+03  0.00000000000E+00 0. -1.
          1    1    1    2  502    0 -0.13514814079E+02  0.34170881409E+02  0.52918715069E+03  0.53046144044E+03  0.00000000000E+00 0. -1.
         22    1    3    3    0    0  0.71719269208E+02 -0.46607124412E+02  0.26895847450E+02  0.89661944167E+02  0.00000000000E+00 0. -1.
         22    1    3    3    0    0 -0.51114462587E+02 -0.90706763714E+01  0.30043177035E+02  0.59979646062E+02  0.00000000000E+00 0. -1.
</event>
<event>
 7    1  0.5977291E-006  0.2930110E+03  0.7818608E-02  0.1123714E+00
          2   -1    0    0  502    0  0.00000000000E+00  0.00000000000E+00  0.32606654273E+04  0.32606654273E+04  0.00000000000E+00 0. -1.
          1   -1    0    0  501    0 -0.00000000000E+00 -0.00000000000E+00 -0.54597794041E+03  0.54597794041E+03  0.00000000000E+00 0. -1.
         25    2    1    2    0    0 -0.20398400748E+03 -0.17478270110E+03  0.12568502092E+04  0.12913001787E+04  0.12500094100E+03 0.  0.
          2    1    1    2  501    0  0.11307706560E+03 -0.14919175744E+03 -0.49734885603E+03  0.53141366924E+03  0.00000000000E+00 0. -1.
          1    1    1    2  502    0  0.90906941880E+02  0.32397445854E+03  0.19551861337E+04  0.19839295198E+04  0.00000000000E+00 0. -1.
         22    1    3    3    0    0 -0.14228356799E+03 -0.18477623507E+03  0.95712033298E+03  0.98512243025E+03  0.00000000000E+00 0.  1.
         22    1    3    3    0    0 -0.61700439495E+02  0.99935339687E+01  0.29972987624E+03  0.30617774848E+03  0.00000000000E+00 0.  1.
</event>
<event>
 7    1  0.5977291E-006  0.1400621E+03  0.7818608E-02  0.1302617E+00
          2   -1    0    0  502    0  0.00000000000E+00  0.00000000000E+00  0.39975141152E+03  0.39975141152E+03  0.00000000000E+00 0. -1.
          1   -1    0    0  501    0 -0.00000000000E+00 -0.00000000000E+00 -0.12863417106E+04  0.12863417106E+04  0.00000000000E+00 0. -1.
         25    2    1    2    0    0  0.63035328589E+02 -0.13062989004E+03  0.10872376658E+03  0.22018898616E+03  0.12499884554E+03 0.  0.
          2    1    1    2  501    0 -0.58581806973E+01  0.14010127474E+03 -0.12229721067E+04  0.12309847518E+04  0.00000000000E+00 0. -1.
          1    1    1    2  502    0 -0.57177147892E+02 -0.94713847042E+01  0.22765804106E+03  0.23491938410E+03  0.00000000000E+00 0. -1.
         22    1    3    3    0    0  0.83381706983E+02 -0.14416273527E+03  0.99923967985E+02  0.19421689596E+03  0.00000000000E+00 0. -1.
         22    1    3    3    0    0 -0.20346378394E+02  0.13532845235E+02  0.87997985966E+01  0.25972090198E+02  0.00000000000E+00 0. -1.
</event>
<event>
 7    1  0.5977291E-006  0.6060978E+02  0.7818608E-02  0.1488522E+00
          2   -1    0    0  502    0  0.00000000000E+00  0.00000000000E+00  0.17252472654E+04  0.17252472654E+04  0.00000000000E+00 0. -1.
          1   -1    0    0  501    0 -0.00000000000E+00 -0.00000000000E+00 -0.11087961022E+02  0.11087961022E+02  0.00000000000E+00 0. -1.
         25    2    1    2    0    0  0.45425411791E+02  0.40729794874E+02  0.91322940450E+03  0.92376095952E+03  0.12499592337E+03 0.  0.
          2    1    1    2  501    0 -0.20714502490E+02 -0.58146812979E+02  0.16896992779E+03  0.17989157559E+03  0.00000000000E+00 0. -1.
          1    1    1    2  502    0 -0.24710909301E+02  0.17417018104E+02  0.63195997208E+03  0.63268269130E+03  0.00000000000E+00 0. -1.
         22    1    3    3    0    0  0.76094947951E+02 -0.10477389400E+02  0.42375307749E+03  0.43065866701E+03  0.00000000000E+00 0.  1.
         22    1    3    3    0    0 -0.30669536160E+02  0.51207184274E+02  0.48947632701E+03  0.49310229250E+03  0.00000000000E+00 0.  1.
</event>
<event>
 7    1  0.5977291E-006  0.9364138E+02  0.7818608E-02  0.1336903E+00
          2   -1    0    0  502    0  0.00000000000E+00  0.00000000000E+00  0.14066713973E+04  0.14066713973E+04  0.00000000000E+00 0. -1.
          1   -1    0    0  501    0 -0.00000000000E+00 -0.00000000000E+00 -0.47178444385E+03  0.47178444385E+03  0.00000000000E+00 0. -1.
         25    2    1    2    0    0 -0.14527904310E+02 -0.15273846756E+03 -0.31916390757E+02  0.20045871899E+03  0.12499977017E+03 0.  0.
          2    1    1    2  501    0  0.79929642475E+01  0.89269071728E+02 -0.34916419766E+03  0.36048369114E+03  0.00000000000E+00 0. -1.
          1    1    1    2  502    0  0.65349400624E+01  0.63469395836E+02  0.13159675419E+04  0.13175134310E+04  0.00000000000E+00 0. -1.
         22    1    3    3    0    0  0.21071888769E+02 -0.14612842570E+03 -0.54962152525E+02  0.15753850166E+03  0.00000000000E+00 0.  1.
         22    1    3    3    0    0 -0.35599793079E+02 -0.66100418643E+01  0.23045761768E+02  0.42920217336E+02  0.00000000000E+00 0.  1.
</event>
<event>
 7    1  0.5977291E-006  0.3634799E+03  0.7818608E-02  0.1182691E+00
          2   -1    0    0  502    0  0.00000000000E+00  0.00000000000E+00  0.20397684979E+04  0.20397684979E+04  0.00000000000E+00 0. -1.
          1   -1    0    0  501    0 -0.00000000000E+00 -0.00000000000E+00 -0.86895341218E+03  0.86895341218E+03  0.00000000000E+00 0. -1.
         25    2    1    2    0    0 -0.52272264273E+02  0.37197954010E+03 -0.45518376287E+03  0.60325585378E+03  0.12499679706E+03 0.  0.
          2    1    1    2  501    0 -0.69246924426E+02 -0.29576563253E+02 -0.31851780843E+03  0.32729727149E+03  0.00000000000E+00 0. -1.
          1    1    1    2  502    0  0.12151918870E+03 -0.34240297685E+03  0.19445166570E+04  0.19781687848E+04  0.00000000000E+00 0. -1.
         22    1    3    3    0    0 -0.51081328789E+02  0.27254782688E+03 -0.24208801786E+03  0.36810084010E+03  0.00000000000E+00 0.  1.
         22    1    3    3    0    0 -0.11909354839E+01  0.99431713225E+02 -0.21309574501E+03  0.23515501369E+03  0.00000000000E+00 0.  1.
</event>
<event>
 7    1  0.5977291E-006  0.3230870E+02  0.7818608E-02  0.1580187E+00
          2   -1    0    0  502    0  0.00000000000E+00  0.00000000000E+00  0.11372553081E+04  0.11372553081E+04  0.00000000000E+00 0. -1.
          1   -1    0    0  501    0 -0.00000000000E+00 -0.00000000000E+00 -0.68937689685E+03  0.68937689685E+03  0.00000000000E+00 0. -1.
         25    2    1    2    0    0 -0.55312974931E+02  0.28645776486E+02  0.76275706562E+03  0.77543718846E+03  0.12499754552E+03 0.  0.
          2    1    1    2  501    0  0.30881048765E+02 -0.94489898754E+01 -0.68199847974E+03  0.68276265931E+03  0.00000000000E+00 0. -1.
          1    1    1    2  502    0  0.24431926165E+02 -0.19196786611E+02  0.36711982535E+03  0.36843235715E+03  0.00000000000E+00 0. -1.
         22    1    3    3    0    0 -0.59806601419E+01  0.70760808709E+02  0.48723874516E+03  0.49238648959E+03  0.00000000000E+00 0.  1.
         22    1    3    3    0    0 -0.49332314789E+02 -0.42115032222E+02  0.27551832047E+03  0.28305069888E+03  0.00000000000E+00 0.  1.
</event>
<event>
 7    1  0.5977291E-006  0.1229830E+03  0.7818608E-02  0.1404119E+00
          2   -1    0    0  502    0  0.00000000000E+00  0.00000000000E+00  0.25850499219E+03  0.25850499219E+03  0.00000000000E+00 0. -1.
          1   -1    0    0  501    0 -0.00000000000E+00 -0.00000000000E+00 -0.58743884777E+03  0.58743884777E+03  0.00000000000E+00 0. -1.
         25    2    1    2    0    0 -0.10081561285E+03 -0.34057895804E+02  0.90776004748E+01  0.16441125754E+03  0.12499972286E+03 0.  0.
          2    1    1    2  501    0 -0.13526257436E+02 -0.24347859246E+02 -0.48532222998E+03  0.48612081297E+03  0.00000000000E+00 0. -1.
          1    1    1    2  502    0  0.11434187029E+03  0.58405755050E+02  0.14731077392E+03  0.19541176945E+03  0.00000000000E+00 0. -1.
         22    1    3    3    0    0 -0.75745476069E+02 -0.52261830189E+02  0.56337727296E+02  0.10790095253E+03  0.00000000000E+00 0. -1.
         22    1    3    3    0    0 -0.25070136781E+02  0.18203934385E+02 -0.47260126821E+02  0.56510305011E+02  0.00000000000E+00 0. -1.
</event>
<event>
 7    1  0.5977291E-006  0.1131125E+03  0.7818608E-02  0.1372197E+00
          2   -1    0    0  502    0  0.00000000000E+00  0.00000000000E+00  0.59563796181E+03  0.59563796181E+03  0.00000000000E+00 0. -1.
          1   -1    0    0  501    0 -0.00000000000E+00 -0.00000000000E+00 -0.20140191564E+03  0.20140191564E+03  0.00000000000E+00 0. -1.
         25    2    1    2    0    0  0.94206391519E+02  0.20320618639E+02  0.79504324719E+02  0.17673217768E+03  0.12500221292E+03 0.  0.
          2    1    1    2  501    0 -0.10082257712E+03 -0.58924699323E+02 -0.12948564880E+03  0.17436698510E+03  0.00000000000E+00 0. -1.
          1    1    1    2  502    0  0.66161856030E+01  0.38604080684E+02  0.44421737025E+03  0.44594071466E+03  0.00000000000E+00 0. -1.
         22    1    3    3    0    0  0.33108664121E+01 -0.44314462165E+02  0.10784208516E+02  0.45727809336E+02  0.00000000000E+00 0.  1.
         22    1    3    3    0    0  0.90895525107E+02  0.64635080804E+02  0.68720116203E+02  0.13100436835E+03  0.00000000000E+00 0.  1.
</event>
<event>
 7    1  0.5977291E-006  0.1053375E+03  0.7818608E-02  0.1293777E+00
          2   -1    0    0  502    0  0.00000000000E+00  0.00000000000E+00  0.84176958013E+03  0.84176958013E+03  0.00000000000E+00 0. -1.
          1   -1    0    0  501    0 -0.00000000000E+00 -0.00000000000E+00 -0.12087570398E+04  0.12087570398E+04  0.00000000000E+00 0. -1.
         25    2    1    2    0    0  0.61686278517E+01  0.42482482700E+02  0.13221975721E+03  0.18694681026E+03  0.12499692942E+03 0.  0.
          2    1    1    2  501    0 -0.87919608769E+02 -0.60078055647E+02 -0.11764170142E+04  0.11812265751E+04  0.00000000000E+00 0. -1.
          1    1    1    2  502    0  0.81750980917E+02  0.17595572947E+02  0.67720979735E+03  0.68235323455E+03  0.00000000000E+00 0. -1.
         22    1    3    3    0    0 -0.10957240705E+02 -0.33344670257E+02  0.18349385044E+01  0.35146765964E+02  0.00000000000E+00 0. -1.
         22    1    3    3    0    0  0.17125868556E+02  0.75827152957E+02  0.13038481870E+03  0.15180004429E+03  0.00000000000E+00 0. -1.
</event>
<event>
 7    1  0.5977291E-006  0.2339361E+02  0.7818608E-02  0.1695646E+00
          2   -1    0    0  502    0  0.00000000000E+00  0.00000000000E+00  0.37194589139E+03  0.37194589139E+03  0.00000000000E+00 0. -1.
          1   -1    0    0  501    0 -0.00000000000E+00 -0.00000000000E+00 -0.45974680287E+03  0.45974680287E+03  0.00000000000E+00 0. -1.
         25    2    1    2    0    0  0.26183556704E+02  0.34860694660E+02  0.57304578326E+02  0.14424952173E+03  0.12499305240E+03 0.  0.
          2    1    1    2  501    0 -0.17673397784E+02 -0.13298819066E+02 -0.41548425162E+03  0.41607255488E+03  0.00000000000E+00 0. -1.
          1    1    1    2  502    0 -0.85101589195E+01 -0.21561875594E+02  0.27037876181E+03  0.27137061765E+03  0.00000000000E+00 0. -1.
         22    1    3    3    0    0  0.74270263676E+02  0.16360512506E+02  0.52690955161E+02  0.92520674402E+02  0.00000000000E+00 0. -1.
         22    1    3    3    0    0 -0.48086706973E+02  0.18500182153E+02  0.46136231652E+01  0.51728847328E+02  0.00000000000E+00 0. -1.
</event>
<event>
 7    1  0.5977291E-006  0.2993363E+02  0.7818608E-02  0.1654134E+00
          2   -1    0    0  502    0  0.00000000000E+00  0.00000000000E+00  0.53029279300E+03  0.53029279300E+03  0.00000000000E+00 0. -1.
          1   -1    0    0  501    0 -0.00000000000E+00 -0.00000000000E+00 -0.17300419883E+03  0.17300419883E+03  0.00000000000E+00 0. -1.
         25    2    1    2    0    0 -0.15685469800E+02 -0.60359841496E+01  0.35191688149E+03  0.37383539950E+03  0.12499978950E+03 0.  0.
          2    1    1    2  501    0  0.12132980219E+02  0.27440373751E+02 -0.15994115597E+03  0.16273093343E+03  0.00000000000E+00 0. -1.
          1    1    1    2  502    0  0.35524895812E+01 -0.21404389601E+02  0.16531286865E+03  0.16673065890E+03  0.00000000000E+00 0. -1.
         22    1    3    3    0    0 -0.41349601676E+02 -0.50183094404E+02  0.26650212348E+03  0.27432009467E+03  0.00000000000E+00 0.  1.
         22    1    3    3    0    0  0.25664131876E+02  0.44147110255E+02  0.85414758011E+02  0.99515304827E+02  0.00000000000E+00 0.  1.
</event>
<event>
 7    1  0.5977291E-006  0.8811266E+02  0.7818608E-02  0.1437087E+00
          2   -1    0    0  502    0  0.00000000000E+00  0.00000000000E+00  0.12368504076E+04  0.12368504076E+04  0.00000000000E+00 0. -1.
          1   -1    0    0  501    0 -0.00000000000E+00 -0.00000000000E+00 -0.34691874364E+02  0.34691874364E+02  0.00000000000E+00 0. -1.
         25    2    1    2    0    0  0.43002358377E+02  0.58206882088E+02  0.26117243249E+03  0.29845222154E+03  0.12500178038E+03 0.  0.
          2    1    1    2  501    0 -0.72486393713E+02 -0.64626822656E+02  0.13373603452E+03  0.16527622458E+03  0.00000000000E+00 0. -1.
          1    1    1    2  502    0  0.29484035335E+02  0.64199405679E+01  0.80725006620E+03  0.80781383583E+03  0.00000000000E+00 0. -1.
         22    1    3    3    0    0  0.70616548954E+02  0.81770102426E+02  0.19067542048E+03  0.21915784862E+03  0.00000000000E+00 0. -1.
         22    1    3    3    0    0 -0.27614190576E+02 -0.23563220338E+02  0.70497012010E+02  0.79294372916E+02  0.00000000000E+00 0. -1.
</event>
<event>
 7    1  0.5977291E-006  0.8771291E+02  0.7818608E-02  0.1367101E+00
          2   -1    0    0  502    0  0.00000000000E+00  0.00000000000E+00  0.37656509656E+04  0.37656509656E+04  0.00000000000E+00 0. -1.
          1   -1    0    0  501    0 -0.00000000000E+00 -0.00000000000E+00 -0.89477417196E+01  0.89477417196E+01  0.00000000000E+00 0. -1.
         25    2    1    2    0    0  0.73690007808E+02  0.71533883873E+02  0.14433174924E+04  0.14523562533E+04  0.12500395627E+03 0.  0.
          2    1    1    2  501    0 -0.22359018996E+02 -0.83405447135E+02  0.45566161607E+03  0.46377139056E+03  0.00000000000E+00 0. -1.
          1    1    1    2  502    0 -0.51330988812E+02  0.11871563262E+02  0.18577241155E+04  0.18584710634E+04  0.00000000000E+00 0. -1.
         22    1    3    3    0    0  0.10507217202E+02 -0.27440135193E+02  0.62130693634E+03  0.62200134387E+03  0.00000000000E+00 0. -1.
         22    1    3    3    0    0  0.63182790606E+02  0.98974019066E+02  0.82201055602E+03  0.83035490947E+03  0.00000000000E+00 0. -1.
</event>
<event>
 7    1  0.5977291E-006  0.7752396E+02  0.7818608E-02  0.1429253E+00
          2   -1    0    0  502    0  0.00000000000E+00  0.00000000000E+00  0.65431105722E+03  0.65431105722E+03  0.00000000000E+00 0. -1.
          1   -1    0    0  501    0 -0.00000000000E+00 -0.00000000000E+00 -0.13459820286E+03  0.13459820286E+03  0.00000000000E+00 0. -1.
         25    2    1    2    0    0  0.92470234821E+02  0.28577705638E+02  0.19841642367E+03  0.25369494671E+03  0.12499847686E+03 0.  0.
          2    1    1    2  501    0 -0.16773363418E+02 -0.32287971438E+02 -0.10038548929E+03  0.10677595835E+03  0.00000000000E+00 0. -1.
          1    1    1    2  502    0 -0.75696871403E+02  0.37102658000E+01  0.42168191999E+03  0.42843835503E+03  0.00000000000E+00 0. -1.
         22    1    3    3    0    0  0.44127412306E+02  0.64538955388E+02  0.48201790777E+02  0.91847253163E+02  0.00000000000E+00 0. -1.
         22    1    3    3    0    0  0.48342822516E+02 -0.35961249751E+02  0.15021463289E+03  0.16184769355E+03  0.00000000000E+00 0. -1.
</event>
<event>
 7    1  0.5977291E-006  0.1234548E+03  0.7818608E-02  0.1436643E+00
          2   -1    0    0  502    0  0.00000000000E+00  0.00000000000E+00  0.22205148360E+04  0.22205148360E+04  0.00000000000E+00 0. -1.
          1   -1    0    0  501    0 -0.00000000000E+00 -0.00000000000E+00 -0.14526481083E+04  0.14526481083E+04  0.00000000000E+00 0. -1.
         25    2    1    2    0    0 -0.11580312112E+03  0.53680690023E+02 -0.84317895188E+02  0.19754996008E+03  0.12499799972E+03 0.  0.
          2    1    1    2  501    0  0.14153931453E+02  0.16327597672E+02 -0.13098650123E+04  0.13100432339E+04  0.00000000000E+00 0. -1.
          1    1    1    2  502    0  0.10164918967E+03 -0.70008287695E+02  0.21620496352E+04  0.21655697503E+04  0.00000000000E+00 0. -1.
         22    1    3    3    0    0 -0.10059521357E+03  0.91407232387E+02 -0.77011813272E+02  0.15622259283E+03  0.00000000000E+00 0. -1.
         22    1    3    3    0    0 -0.15207907551E+02 -0.37726542364E+02 -0.73060819164E+01  0.41327367250E+02  0.00000000000E+00 0. -1.
</event>
<event>
 7    1  0.5977291E-006  0.1464763E+03  0.7818608E-02  0.1316433E+00
          2   -1    0    0  502    0  0.00000000000E+00  0.00000000000E+00  0.19633350941E+04  0.19633350941E+04  0.00000000000E+00 0. -1.
          1   -1    0    0  501    0 -0.00000000000E+00 -0.00000000000E+00 -0.32584268046E+02  0.32584268046E+02  0.00000000000E+00 0. -1.
         25    2    1    2    0    0 -0.83704563067E+02  0.86912996880E+02  0.51529109039E+03  0.54379221840E+03  0.12499898418E+03 0.  0.
          2    1    1    2  501    0  0.98316738771E+02 -0.13356178235E+03  0.36934818995E+03  0.40487407455E+03  0.00000000000E+00 0. -1.
          1    1    1    2  502    0 -0.14612175705E+02  0.46648785469E+02  0.10461115458E+04  0.10472530692E+04  0.00000000000E+00 0. -1.
         22    1    3    3    0    0 -0.46366939644E+02  0.79450944994E+02  0.48886406228E+03  0.49744388341E+03  0.00000000000E+00 0. -1.
         22    1    3    3    0    0 -0.37337623422E+02  0.74620518859E+01  0.26427028110E+02  0.46348334985E+02  0.00000000000E+00 0. -1.
</event>
<event>
 7    1  0.5977291E-006  0.2282322E+03  0.7818608E-02  0.1328564E+00
          2   -1    0    0  502    0  0.00000000000E+00  0.00000000000E+00  0.89880079550E+03  0.89880079550E+03  0.00000000000E+00 0. -1.
          1   -1    0    0  501    0 -0.00000000000E+00 -0.00000000000E+00 -0.59600610345E+03  0.59600610345E+03  0.00000000000E+00 0. -1.
         25    2    1    2    0    0  0.24737732056E+03  0.75958505059E+01  0.40331561798E+03  0.48943483270E+03  0.12501892687E+03 0.  0.
          2    1    1    2  501    0 -0.22695898572E+03  0.11800312507E+02 -0.52911282932E+03  0.57585589754E+03  0.00000000000E+00 0. -1.
          1    1    1    2  502    0 -0.20418334842E+02 -0.19396163013E+02  0.42859190339E+03  0.42951616872E+03  0.00000000000E+00 0. -1.
         22    1    3    3    0    0  0.30079021329E+02  0.44710266574E+02  0.53365746714E+02  0.75839688710E+02  0.00000000000E+00 0. -1.
         22    1    3    3    0    0  0.21729829924E+03 -0.37114416069E+02  0.34994987127E+03  0.41359514399E+03  0.00000000000E+00 0. -1.
</event>
<event>
 7    1  0.5977291E-006  0.6257090E+02  0.7818608E-02  0.1418341E+00
          2   -1    0    0  502    0  0.00000000000E+00  0.00000000000E+00  0.47030131725E+04  0.47030131725E+04  0.00000000000E+00 0. -1.
          1   -1    0    0  501    0 -0.00000000000E+00 -0.00000000000E+00 -0.25383532147E+04  0.25383532147E+04  0.00000000000E+00 0. -1.
         25    2    1    2    0    0  0.40021264474E+02  0.39885288754E+02  0.71309345081E+03  0.72616744493E+03  0.12499740244E+03 0.  0.
          2    1    1    2  501    0  0.23402408934E+02 -0.43054884928E+02 -0.25313259676E+04  0.25318002587E+04  0.00000000000E+00 0. -1.
          1    1    1    2  502    0 -0.63423673408E+02  0.31695961739E+01  0.39828924745E+04  0.39833986836E+04  0.00000000000E+00 0. -1.
         22    1    3    3    0    0  0.80541499267E+02  0.15031360944E+01  0.38181704191E+03  0.39022230333E+03  0.00000000000E+00 0.  1.
         22    1    3    3    0    0 -0.40520234793E+02  0.38382152659E+02  0.33127640890E+03  0.33594514160E+03  0.00000000000E+00 0.  1.
</event>
<event>
 7    1  0.5977291E-006  0.3703181E+02  0.7818608E-02  0.1594616E+00
          2   -1    0    0  502    0  0.00000000000E+00  0.00000000000E+00  0.68864657621E+02  0.68864657621E+02  0.00000000000E+00 0. -1.
          1   -1    0    0  501    0 -0.00000000000E+00 -0.00000000000E+00 -0.47786764268E+03  0.47786764268E+03  0.00000000000E+00 0. -1.
         25    2    1    2    0    0  0.78298000703E+00 -0.25411805271E+02 -0.32534367174E+03  0.34945734117E+03  0.12500222258E+03 0.  0.
          2    1    1    2  501    0  0.22379406957E+02  0.34327129781E+02 -0.13455169303E+03  0.14065328930E+03  0.00000000000E+00 0. -1.
          1    1    1    2  502    0 -0.23162386964E+02 -0.89153245105E+01  0.50892379714E+02  0.56621669827E+02  0.00000000000E+00 0. -1.
         22    1    3    3    0    0 -0.49912119215E+02 -0.28737251870E+02 -0.78051323917E+02  0.97000301312E+02  0.00000000000E+00 0.  1.
         22    1    3    3    0    0  0.50695099222E+02  0.33254465994E+01 -0.24729234783E+03  0.25245703986E+03  0.00000000000E+00 0.  1.
</event>
<event>
 7    1  0.5977291E-006  0.5357150E+02  0.7818608E-02  0.1513795E+00
          2   -1    0    0  502    0  0.00000000000E+00  0.00000000000E+00  0.14856322517E+04  0.14856322517E+04  0.00000000000E+00 0. -1.
          1   -1    0    0  501    0 -0.00000000000E+00 -0.00000000000E+00 -0.15656180642E+03  0.15656180642E+03  0.00000000000E+00 0. -1.
         25    2    1    2    0    0 -0.25328694984E+02  0.12742378731E+02  0.32029267011E+02  0.13212913956E+03  0.12501329757E+03 0.  0.
          2    1    1    2  501    0  0.54051863334E+02 -0.14174647742E+02 -0.99024520891E+02  0.11370303561E+03  0.00000000000E+00 0. -1.
          1    1    1    2  502    0 -0.28723168350E+02  0.14322690112E+01  0.13960656992E+04  0.13963618830E+04  0.00000000000E+00 0. -1.
         22    1    3    3    0    0  0.25316333047E+02  0.39732729689E+02 -0.23170726732E+02  0.52502277139E+02  0.00000000000E+00 0. -1.
         22    1    3    3    0    0 -0.50645028031E+02 -0.26990350958E+02  0.55199993743E+02  0.79626862417E+02  0.00000000000E+00 0. -1.
</event>
<event>
 7    1  0.5977291E-006  0.1518866E+03  0.7818608E-02  0.1299205E+00
          2   -1    0    0  502    0  0.00000000000E+00  0.00000000000E+00  0.51979122633E+03  0.51979122633E+03  0.00000000000E+00 0. -1.
          1   -1    0    0  501    0 -0.00000000000E+00 -0.00000000000E+00 -0.42951456961E+03  0.42951456961E+03  0.00000000000E+00 0. -1.
         25    2    1    2    0    0 -0.11152316380E+03 -0.22261028541E+02  0.13433867357E+03  0.21587925721E+03  0.12499602002E+03 0.  0.
          2    1    1    2  501    0  0.13897333094E+03  0.70093512954E+02 -0.37075993273E+03  0.40210647221E+03  0.00000000000E+00 0. -1.
          1    1    1    2  502    0 -0.27450167146E+02 -0.47832484413E+02  0.32669791588E+03  0.33132006652E+03  0.00000000000E+00 0. -1.
         22    1    3    3    0    0 -0.55849795506E+02 -0.35911727227E+02  0.14322900802E+03  0.15787146844E+03  0.00000000000E+00 0.  1.
         22    1    3    3    0    0 -0.55673368289E+02  0.13650698687E+02 -0.88903344440E+01  0.58007788768E+02  0.00000000000E+00 0.  1.
</event>
<event>
 7    1  0.5977291E-006  0.6474276E+02  0.7818608E-02  0.1485444E+00
          2   -1    0    0  502    0  0.00000000000E+00  0.00000000000E+00  0.56258542940E+03  0.56258542940E+03  0.00000000000E+00 0. -1.
          1   -1    0    0  501    0 -0.00000000000E+00 -0.00000000000E+00 -0.16833179700E+04  0.16833179700E+04  0.00000000000E+00 0. -1.
         25    2    1    2    0    0 -0.29933320486E+02 -0.53801352719E+02  0.51503885084E+02  0.14854991211E+03  0.12499534783E+03 0.  0.
          2    1    1    2  501    0  0.53333789136E+02  0.36810915853E+02 -0.16336999651E+04  0.16349847438E+04  0.00000000000E+00 0. -1.
          1    1    1    2  502    0 -0.23400468650E+02  0.16990436866E+02  0.46146353933E+03  0.46236874355E+03  0.00000000000E+00 0. -1.
         22    1    3    3    0    0  0.42992631703E+02 -0.19781376923E+02  0.48880188537E+02  0.68036329157E+02  0.00000000000E+00 0.  1.
         22    1    3    3    0    0 -0.72925952190E+02 -0.34019975796E+02  0.26236965465E+01  0.80513582950E+02  0.00000000000E+00 0.  1.
</event>
<event>
 7    1  0.5977291E-006  0.8768597E+02  0.7818608E-02  0.1484277E+00
          2   -1    0    0  502    0  0.00000000000E+00  0.00000000000E+00  0.95542489247E+03  0.95542489247E+03  0.00000000000E+00 0. -1.
          1   -1    0    0  501    0 -0.00000000000E+00 -0.00000000000E+00 -0.38298421357E+03  0.38298421357E+03  0.00000000000E+00 0. -1.
         25    2    1    2    0    0  0.62708457492E+02  0.25935304618E+02  0.36266594296E+03  0.38955993898E+03  0.12500147683E+03 0.  0.
          2    1    1    2  501    0 -0.77543614421E+02 -0.41534675354E+02 -0.36409752040E+03  0.37457328489E+03  0.00000000000E+00 0. -1.
          1    1    1    2  502    0  0.14835156928E+02  0.15599370736E+02  0.57387225634E+03  0.57427588217E+03  0.00000000000E+00 0. -1.
         22    1    3    3    0    0  0.54349132500E+02  0.58691573111E+02  0.11792392120E+03  0.14249414076E+03  0.00000000000E+00 0. -1.
         22    1    3    3    0    0  0.83593249926E+01 -0.32756268493E+02  0.24474202176E+03  0.24706579823E+03  0.00000000000E+00 0. -1.
</event>
<event>
 7    1  0.5977291E-006  0.5735850E+02  0.7818608E-02  0.1429196E+00
          2   -1    0    0  502    0  0.00000000000E+00  0.00000000000E+00  0.80801368383E+03  0.80801368383E+03  0.00000000000E+00 0. -1.
          1   -1    0    0  501    0 -0.00000000000E+00 -0.00000000000E+00 -0.11467498715E+04  0.11467498715E+04  0.00000000000E+00 0. -1.
         25    2    1    2    0    0 -0.49346237318E+02 -0.92253047969E+01  0.27637154770E+03  0.30745152682E+03  0.12500020632E+03 0.  0.
          2    1    1    2  501    0  0.41790724586E+02 -0.39388980537E+02 -0.11293061498E+04  0.11307653764E+04  0.00000000000E+00 0. -1.
          1    1    1    2  502    0  0.75555127319E+01  0.48614285334E+02  0.51419841439E+03  0.51654665217E+03  0.00000000000E+00 0. -1.
         22    1    3    3    0    0 -0.68913946477E+02  0.32454468673E+01  0.27573942235E+03  0.28423914928E+03  0.00000000000E+00 0.  1.
         22    1    3    3    0    0  0.19567709159E+02 -0.12470751664E+02  0.63212535212E+00  0.23212377544E+02  0.00000000000E+00 0.  1.
</event>
<event>
 7    1  0.5977291E-006  0.5545862E+02  0.7818608E-02  0.1511795E+00
          2   -1    0    0  502    0  0.00000000000E+00  0.00000000000E+00  0.35921166032E+02  0.35921166032E+02  0.00000000000E+00 0. -1.
          1   -1    0    0  501    0 -0.00000000000E+00 -0.00000000000E+00 -0.25275385869E+04  0.25275385869E+04  0.00000000000E+00 0. -1.
         25    2    1    2    0    0  0.47325635910E+02 -0.37993711762E+02 -0.81081608696E+03  0.82263639855E+03  0.12499871759E+03 0.  0.
          2    1    1    2  501    0 -0.22288970668E+02  0.50879589125E+02 -0.17036536213E+04  0.17045589436E+04  0.00000000000E+00 0. -1.
          1    1    1    2  502    0 -0.25036665242E+02 -0.12885877364E+02  0.22852287470E+02  0.36264410714E+02  0.00000000000E+00 0. -1.
         22    1    3    3    0    0  0.48781683814E+02 -0.36561505878E+02 -0.15133732199E+03  0.16315447103E+03  0.00000000000E+00 0.  1.
         22    1    3    3    0    0 -0.14560479033E+01 -0.14322058834E+01 -0.65947876496E+03  0.65948192752E+03  0.00000000000E+00 0.  1.
</event>
<event>
 7    1  0.5977291E-006  0.1321508E+03  0.7818608E-02  0.1330054E+00
          2   -1    0    0  502    0  0.00000000000E+00  0.00000000000E+00  0.17607147227E+04  0.17607147227E+04  0.00000000000E+00 0. -1.
          1   -1    0    0  501    0 -0.00000000000E+00 -0.00000000000E+00 -0.23512774246E+04  0.23512774246E+04  0.00000000000E+00 0. -1.
         25    2    1    2    0    0  0.78367806340E+02  0.14813291187E+03  0.48847214750E+02  0.21469859821E+03  0.12499826014E+03 0.  0.
          2    1    1    2  501    0  0.58844089111E+01 -0.47642053035E+02 -0.22654577861E+04  0.22659663219E+04  0.00000000000E+00 0. -1.
          1    1    1    2  502    0 -0.84252215251E+02 -0.10049085883E+03  0.16260478695E+04  0.16313272272E+04  0.00000000000E+00 0. -1.
         22    1    3    3    0    0  0.68612867810E+02  0.11636917522E+02  0.32741339036E+02  0.76909939282E+02  0.00000000000E+00 0. -1.
         22    1    3    3    0    0  0.97549385304E+01  0.13649599434E+03  0.16105875714E+02  0.13778865893E+03  0.00000000000E+00 0. -1.
</event>
<event>
 7    1  0.5977291E-006  0.5940216E+02  0.7818608E-02  0.1429598E+00
          2   -1    0    0  502    0  0.00000000000E+00  0.00000000000E+00  0.49574871546E+03  0.49574871546E+03  0.00000000000E+00 0. -1.
          1   -1    0    0  501    0 -0.00000000000E+00 -0.00000000000E+00 -0.98906347869E+02  0.98906347869E+02  0.00000000000E+00 0. -1.
         25    2    1    2    0    0  0.36244354769E+01 -0.14742944196E+02  0.35184506090E+03  0.37370440564E+03  0.12501817860E+03 0.  0.
          2    1    1    2  501    0 -0.37463643628E+02  0.47878274576E+02 -0.72294350277E+02  0.94458069281E+02  0.00000000000E+00 0. -1.
          1    1    1    2  502    0  0.33839208151E+02 -0.33135330380E+02  0.11729165697E+03  0.12649258840E+03  0.00000000000E+00 0. -1.
         22    1    3    3    0    0  0.54459904751E+02 -0.38824923737E+02  0.22950685279E+03  0.23905365801E+03  0.00000000000E+00 0.  1.
         22    1    3    3    0    0 -0.50835469274E+02  0.24081979541E+02  0.12233820811E+03  0.13465074763E+03  0.00000000000E+00 0.  1.
</event>
<event>
 7    1  0.5977291E-006  0.3448084E+02  0.7818608E-02  0.1570458E+00
          2   -1    0    0  502    0  0.00000000000E+00  0.00000000000E+00  0.12522314407E+04  0.12522314407E+04  0.00000000000E+00 0. -1.
          1   -1    0    0  501    0 -0.00000000000E+00 -0.00000000000E+00 -0.18241110615E+03  0.18241110615E+03  0.00000000000E+00 0. -1.
         25    2    1    2    0    0  0.12779557753E+02 -0.61732335999E+02 -0.48647492308E+02  0.14820858143E+03  0.12500002679E+03 0.  0.
          2    1    1    2  501    0 -0.24130729243E+01  0.32593463877E+02 -0.80596421715E+02  0.86970914688E+02  0.00000000000E+00 0. -1.
          1    1    1    2  502    0 -0.10366484828E+02  0.29138872122E+02  0.11990642485E+04  0.11994630507E+04  0.00000000000E+00 0. -1.
         22    1    3    3    0    0 -0.33948050118E+02 -0.72725178933E+02 -0.58358729027E+02  0.99232872635E+02  0.00000000000E+00 0. -1.
         22    1    3    3    0    0  0.46727607871E+02  0.10992842934E+02  0.97112367191E+01  0.48975708792E+02  0.00000000000E+00 0. -1.
</event>
<event>
 7    1  0.5977291E-006  0.1038126E+03  0.7818608E-02  0.1350861E+00
          2   -1    0    0  502    0  0.00000000000E+00  0.00000000000E+00  0.16194647285E+04  0.16194647285E+04  0.00000000000E+00 0. -1.
          1   -1    0    0  501    0 -0.00000000000E+00 -0.00000000000E+00 -0.88887437607E+03  0.88887437607E+03  0.00000000000E+00 0. -1.
         25    2    1    2    0    0 -0.49975483821E+02 -0.43199536988E+02  0.25874511066E+03  0.29485300407E+03  0.12500205095E+03 0.  0.
          2    1    1    2  501    0 -0.48723864008E+01 -0.50802131355E+02 -0.86786412892E+03  0.86936341248E+03  0.00000000000E+00 0. -1.
          1    1    1    2  502    0  0.54847870222E+02  0.94001668342E+02  0.13397093707E+04  0.13441226881E+04  0.00000000000E+00 0. -1.
         22    1    3    3    0    0 -0.68270667223E+02  0.15032828208E+02  0.19237415089E+03  0.20468190896E+03  0.00000000000E+00 0.  1.
         22    1    3    3    0    0  0.18295183402E+02 -0.58232365195E+02  0.66370959770E+02  0.90171095107E+02  0.00000000000E+00 0.  1.
</event>
<event>
 7    1  0.5977291E-006  0.7438911E+02  0.7818608E-02  0.1395774E+00
          2   -1    0    0  502    0  0.00000000000E+00  0.00000000000E+00  0.59147082526E+03  0.59147082526E+03  0.00000000000E+00 0. -1.
          1   -1    0    0  501    0 -0.00000000000E+00 -0.00000000000E+00 -0.60603515789E+03  0.60603515789E+03  0.00000000000E+00 0. -1.
         25    2    1    2    0    0 -0.10585265258E+03 -0.53448407806E+02 -0.38214341207E+03  0.41918872669E+03  0.12499633931E+03 0.  0.
          2    1    1    2  501    0  0.33874201345E+02  0.35672002955E+02 -0.19997717571E+03  0.20593888442E+03  0.00000000000E+00 0. -1.
          1    1    1    2  502    0  0.71978451232E+02  0.17776404851E+02  0.56755625515E+03  0.57237837203E+03  0.00000000000E+00 0. -1.
         22    1    3    3    0    0  0.22893864084E+02 -0.31675503268E+02 -0.60204754709E+02  0.71777984156E+02  0.00000000000E+00 0.  1.
         22    1    3    3    0    0 -0.12874651666E+03 -0.21772904538E+02 -0.32193865736E+03  0.34741074254E+03  0.00000000000E+00 0.  1.
</event>
<event>
 7    1  0.5977291E-006  0.4396228E+02  0.7818608E-02  0.1558461E+00
          2   -1    0    0  502    0  0.00000000000E+00  0.00000000000E+00  0.99044151332E+02  0.99044151332E+02  0.00000000000E+00 0. -1.
          1   -1    0    0  501    0 -0.00000000000E+00 -0.00000000000E+00 -0.37975022280E+03  0.37975022280E+03  0.00000000000E+00 0. -1.
         25    2    1    2    0    0  0.22618607801E+02 -0.62092991745E+02 -0.18095867190E+03  0.22963812895E+03  0.12498195187E+03 0.  0.
          2    1    1    2  501    0 -0.17975212519E+02  0.19009613618E+02 -0.16706303826E+03  0.16909917926E+03  0.00000000000E+00 0. -1.
          1    1    1    2  502    0 -0.46433952821E+01  0.43083378126E+02  0.67315638689E+02  0.80057065914E+02  0.00000000000E+00 0. -1.
         22    1    3    3    0    0  0.56312442115E+02 -0.23883141629E+02 -0.25899971167E+02  0.66425176684E+02  0.00000000000E+00 0.  1.
         22    1    3    3    0    0 -0.33693834314E+02 -0.38209850116E+02 -0.15505870073E+03  0.16321295227E+03  0.00000000000E+00 0.  1.
</event>
<event>
 7    1  0.5977291E-006  0.9258149E+02  0.7818608E-02  0.1313281E+00
          2   -1    0    0  502    0  0.00000000000E+00  0.00000000000E+00  0.11894149004E+04  0.11894149004E+04  0.00000000000E+00 0. -1.
          1   -1    0    0  501    0 -0.00000000000E+00 -0.00000000000E+00 -0.75357108305E+02  0.75357108305E+02  0.00000000000E+00 0. -1.
         25    2    1    2    0    0 -0.22856976957E+02  0.67492021626E+02  0.12876971523E+03  0.19309092940E+03  0.12499941231E+03 0.  0.
          2    1    1    2  501    0  0.94076374133E+02 -0.83385731268E+01  0.13397353721E+02  0.95390696918E+02  0.00000000000E+00 0. -1.
          1    1    1    2  502    0 -0.71219397176E+02 -0.59153448499E+02  0.97189072315E+03  0.97629038239E+03  0.00000000000E+00 0. -1.
         22    1    3    3    0    0  0.21462971800E+02  0.87060479214E+02  0.56160999618E+02  0.10580285477E+03  0.00000000000E+00 0. -1.
         22    1    3    3    0    0 -0.44319948757E+02 -0.19568457589E+02  0.72608715610E+02  0.87288074631E+02  0.00000000000E+00 0. -1.
</event>
<event>
 7    1  0.5977291E-006  0.7199449E+02  0.7818608E-02  0.1416708E+00
          2   -1    0    0  502    0  0.00000000000E+00  0.00000000000E+00  0.15559806828E+04  0.15559806828E+04  0.00000000000E+00 0. -1.
          1   -1    0    0  501    0 -0.00000000000E+00 -0.00000000000E+00 -0.73261631383E+03  0.73261631383E+03  0.00000000000E+00 0. -1.
         25    2    1    2    0    0  0.24228020838E+02  0.20458791574E+02 -0.48091129761E+03  0.49790151092E+03  0.12499871700E+03 0.  0.
          2    1    1    2  501    0  0.42655806352E+02  0.63762447519E+01 -0.24045109963E+03  0.24428857039E+03  0.00000000000E+00 0. -1.
          1    1    1    2  502    0 -0.66883827190E+02 -0.26835036326E+02  0.15447267662E+04  0.15464069153E+04  0.00000000000E+00 0. -1.
         22    1    3    3    0    0  0.60010905791E+02 -0.26878348945E+02 -0.19165629473E+03  0.20262253025E+03  0.00000000000E+00 0.  1.
         22    1    3    3    0    0 -0.35782884953E+02  0.47337140519E+02 -0.28925500289E+03  0.29527898066E+03  0.00000000000E+00 0.  1.
</event>
<event>
 7    1  0.5977291E-006  0.1079996E+03  0.7818608E-02  0.1314899E+00
          2   -1    0    0  502    0  0.00000000000E+00  0.00000000000E+00  0.13650667530E+04  0.13650667530E+04  0.00000000000E+00 0. -1.
          1   -1    0    0  501    0 -0.00000000000E+00 -0.00000000000E+00 -0.12187791214E+03  0.12187791214E+03  0.00000000000E+00 0. -1.
         25    2    1    2    0    0  0.96340215387E+02  0.13227167732E+03  0.12235361157E+03  0.23952805396E+03  0.12500419452E+03 0.  0.
          2    1    1    2  501    0 -0.58340277702E+02 -0.33391221869E+02 -0.42329838403E+02  0.79437880885E+02  0.00000000000E+00 0. -1.
          1    1    1    2  502    0 -0.37999937685E+02 -0.98880455446E+02  0.11631650677E+04  0.11679787303E+04  0.00000000000E+00 0. -1.
         22    1    3    3    0    0  0.16066153497E+02  0.58887687749E+02 -0.16422233391E+02  0.63210527653E+02  0.00000000000E+00 0. -1.
         22    1    3    3    0    0  0.80274061890E+02  0.73383989566E+02  0.13877584497E+03  0.17631752631E+03  0.00000000000E+00 0. -1.
</event>
<event>
 7    1  0.5977291E-006  0.2135769E+03  0.7818608E-02  0.1269693E+00
          2   -1    0    0  502    0  0.00000000000E+00  0.00000000000E+00  0.10573810450E+03  0.10573810450E+03  0.00000000000E+00 0. -1.
          1   -1    0    0  501    0 -0.00000000000E+00 -0.00000000000E+00 -0.28653179618E+04  0.28653179618E+04  0.00000000000E+00 0. -1.
         25    2    1    2    0    0  0.12755724989E+03  0.12512726627E+03 -0.57811395258E+03  0.61787427658E+03  0.12500077892E+03 0.  0.
          2    1    1    2  501    0 -0.13813055853E+03 -0.17587154956E+03 -0.22534267379E+04  0.22644961727E+04  0.00000000000E+00 0. -1.
          1    1    1    2  502    0  0.10573308644E+02  0.50744283288E+02  0.71960833209E+02  0.88685616975E+02  0.00000000000E+00 0. -1.
         22    1    3    3    0    0  0.10277499639E+03  0.14652916242E+02 -0.30664158952E+03  0.32373827741E+03  0.00000000000E+00 0. -1.
         22    1    3    3    0    0  0.24782253495E+02  0.11047435003E+03 -0.27147236305E+03  0.29413599916E+03  0.00000000000E+00 0. -1.
</event>
<event>
 7    1  0.5977291E-006  0.1667755E+03  0.7818608E-02  0.1392733E+00
          2   -1    0    0  502    0  0.00000000000E+00  0.00000000000E+00  0.71818108396E+02  0.71818108396E+02  0.00000000000E+00 0. -1.
          1   -1    0    0  501    0 -0.00000000000E+00 -0.00000000000E+00 -0.12676882640E+04  0.12676882640E+04  0.00000000000E+00 0. -1.
         25    2    1    2    0    0 -0.91937110831E+02  0.12667940461E+03 -0.74264245041E+03  0.76918307208E+03  0.12499874132E+03 0.  0.
          2    1    1    2  501    0  0.10350693167E+03 -0.14595525691E+03 -0.49309378658E+03  0.52455514895E+03  0.00000000000E+00 0. -1.
          1    1    1    2  502    0 -0.11569820841E+02  0.19275852304E+02  0.39866081373E+02  0.45768151376E+02  0.00000000000E+00 0. -1.
         22    1    3    3    0    0 -0.10583186893E+03  0.62221593840E+02 -0.34685719050E+03  0.36794268823E+03  0.00000000000E+00 0. -1.
         22    1    3    3    0    0  0.13894758104E+02  0.64457810770E+02 -0.39578525991E+03  0.40124038386E+03  0.00000000000E+00 0. -1.
</event>
<event>
 7    1  0.5977291E-006  0.8129629E+02  0.7818608E-02  0.1327177E+00
          2   -1    0    0  502    0  0.00000000000E+00  0.00000000000E+00  0.33178436836E+03  0.33178436836E+03  0.00000000000E+00 0. -1.
          1   -1    0    0  501    0 -0.00000000000E+00 -0.00000000000E+00 -0.29522346591E+03  0.29522346591E+03  0.00000000000E+00 0. -1.
         25    2    1    2    0    0  0.11716069145E+03  0.29488395291E+02  0.78999452768E+02  0.19094746777E+03  0.12499531523E+03 0.  0.
          2    1    1    2  501    0 -0.46062287913E+02 -0.66242989414E+02 -0.22375888389E+03  0.23786110681E+03  0.00000000000E+00 0. -1.
          1    1    1    2  502    0 -0.71098403541E+02  0.36754594124E+02  0.18132033358E+03  0.19819925969E+03  0.00000000000E+00 0. -1.
         22    1    3    3    0    0  0.13584015713E+03 -0.33514828923E+01  0.58212731213E+02  0.14782592060E+03  0.00000000000E+00 0.  1.
         22    1    3    3    0    0 -0.18679465675E+02  0.32839878183E+02  0.20786721555E+02  0.43121547166E+02  0.00000000000E+00 0.  1.
</event>
<event>
 7    1  0.5977291E-006  0.6666368E+02  0.7818608E-02  0.1386587E+00
          2   -1    0    0  502    0  0.00000000000E+00  0.00000000000E+00  0.55220012367E+03  0.55220012367E+03  0.00000000000E+00 0. -1.
          1   -1    0    0  501    0 -0.00000000000E+00 -0.00000000000E+00 -0.49011099798E+02  0.49011099798E+02  0.00000000000E+00 0. -1.
         25    2    1    2    0    0  0.23599051545E+02  0.31688105671E+02  0.25944362465E+03  0.29068414743E+03  0.12500091167E+03 0.  0.
          2    1    1    2  501    0  0.20857141262E+02 -0.70617175644E+02  0.16146765522E+02  0.75382517034E+02  0.00000000000E+00 0. -1.
          1    1    1    2  502    0 -0.44456192807E+02  0.38929069974E+02  0.22759863370E+03  0.23514455901E+03  0.00000000000E+00 0. -1.
         22    1    3    3    0    0  0.64367666731E+02  0.16061301929E+02  0.70681163478E+02  0.96938066881E+02  0.00000000000E+00 0.  1.
         22    1    3    3    0    0 -0.40768615186E+02  0.15626803741E+02  0.18876246117E+03  0.19374608055E+03  0.00000000000E+00 0.  1.
</event>
<event>
 7    1  0.5977291E-006  0.1103473E+03  0.7818608E-02  0.1403654E+00
          2   -1    0    0  502    0  0.00000000000E+00  0.00000000000E+00  0.22949690321E+04  0.22949690321E+04  0.00000000000E+00 0. -1.
          1   -1    0    0  501    0 -0.00000000000E+00 -0.00000000000E+00 -0.12015328688E+03  0.12015328688E+03  0.00000000000E+00 0. -1.
         25    2    1    2    0    0 -0.68890643192E+02 -0.11824697553E+03  0.79203212209E+03  0.81342970565E+03  0.12499894267E+03 0.  0.
          2    1    1    2  501    0  0.16219116606E+02  0.26601365762E+02 -0.10532402343E+03  0.10983552392E+03  0.00000000000E+00 0. -1.
          1    1    1    2  502    0  0.52671526585E+02  0.91645609773E+02  0.14881076466E+04  0.14918570894E+04  0.00000000000E+00 0. -1.
         22    1    3    3    0    0 -0.92018203945E+02 -0.12808284359E+03  0.72201377308E+03  0.73903751813E+03  0.00000000000E+00 0. -1.
         22    1    3    3    0    0  0.23127560754E+02  0.98358680520E+01  0.70018349008E+02  0.74392187523E+02  0.00000000000E+00 0. -1.
</event>
<event>
 7    1  0.5977291E-006  0.7983681E+02  0.7818608E-02  0.1464273E+00
          2   -1    0    0  502    0  0.00000000000E+00  0.00000000000E+00  0.20554762917E+04  0.20554762917E+04  0.00000000000E+00 0. -1.
          1   -1    0    0  501    0 -0.00000000000E+00 -0.00000000000E+00 -0.31785096122E+02  0.31785096122E+02  0.00000000000E+00 0. -1.
         25    2    1    2    0    0  0.53151037287E+02 -0.14963104418E+02  0.36771125451E+03  0.39228295929E+03  0.12500170478E+03 0.  0.
          2    1    1    2  501    0  0.23474297024E+02 -0.13864396735E+02 -0.84452859397E+01  0.28540970064E+02  0.00000000000E+00 0. -1.
          1    1    1    2  502    0 -0.76625334311E+02  0.28827501152E+02  0.16644252270E+04  0.16664374584E+04  0.00000000000E+00 0. -1.
         22    1    3    3    0    0  0.66162926995E+02 -0.50725856811E+01  0.36988930718E+03  0.37579431022E+03  0.00000000000E+00 0. -1.
         22    1    3    3    0    0 -0.13011889709E+02 -0.98905187366E+01 -0.21780526648E+01  0.16488649068E+02  0.00000000000E+00 0. -1.
</event>
<event>
 7    1  0.5977291E-006  0.8400997E+02  0.7818608E-02  0.1462445E+00
          2   -1    0    0  502    0  0.00000000000E+00  0.00000000000E+00  0.23938488071E+04  0.23938488071E+04  0.00000000000E+00 0. -1.
          1   -1    0    0  501    0 -0.00000000000E+00 -0.00000000000E+00 -0.44539933670E+02  0.44539933670E+02  0.00000000000E+00 0. -1.
         25    2    1    2    0    0  0.66763375980E+02  0.79725657817E+02  0.11105077446E+04  0.11223484067E+04  0.12499986511E+03 0.  0.
          2    1    1    2  501    0 -0.63671060260E+02 -0.53655100522E+02  0.65625272228E+01  0.83522095820E+02  0.00000000000E+00 0. -1.
          1    1    1    2  502    0 -0.30923157201E+01 -0.26070557296E+02  0.12322386016E+04  0.12325182382E+04  0.00000000000E+00 0. -1.
         22    1    3    3    0    0 -0.16395501282E+02 -0.24296648348E+02  0.21678825158E+03  0.21876079540E+03  0.00000000000E+00 0.  1.
         22    1    3    3    0    0  0.83158877263E+02  0.10402230616E+03  0.89371949304E+03  0.90358761130E+03  0.00000000000E+00 0.  1.
</event>
<event>
 7    1  0.5977291E-006  0.3699691E+02  0.7818608E-02  0.1566036E+00
          2   -1    0    0  502    0  0.00000000000E+00  0.00000000000E+00  0.55150686305E+03  0.55150686305E+03  0.00000000000E+00 0. -1.
          1   -1    0    0  501    0 -0.00000000000E+00 -0.00000000000E+00 -0.26346299216E+03  0.26346299216E+03  0.00000000000E+00 0. -1.
         25    2    1    2    0    0 -0.35329076309E+02 -0.56330617819E+02  0.27945619357E+03  0.31327799204E+03  0.12500421608E+03 0.  0.
          2    1    1    2  501    0  0.19396616108E+02  0.31342961651E+02 -0.24430440942E+03  0.24706933121E+03  0.00000000000E+00 0. -1.
          1    1    1    2  502    0  0.15932460201E+02  0.24987656168E+02  0.25289208675E+03  0.25462253197E+03  0.00000000000E+00 0. -1.
         22    1    3    3    0    0 -0.76021988055E+02 -0.48967088836E+02  0.23853453923E+03  0.25509967633E+03  0.00000000000E+00 0. -1.
         22    1    3    3    0    0  0.40692911746E+02 -0.73635289832E+01  0.40921654334E+02  0.58178315710E+02  0.00000000000E+00 0. -1.
</event>
<event>
 7    1  0.6286156E-006  0.9897910E+02  0.7818608E-02  0.1387919E+00
          2   -1    0    0  502    0  0.00000000000E+00  0.00000000000E+00  0.21607334826E+04  0.21607334826E+04  0.00000000000E+00 0. -1.
          1   -1    0    0  501    0 -0.00000000000E+00 -0.00000000000E+00 -0.78775478292E+03  0.78775478292E+03  0.00000000000E+00 0. -1.
         25    2    1    2    0    0 -0.48435571010E+02 -0.89027467606E+02 -0.31389286008E+03  0.35274152658E+03  0.12500384969E+03 0.  0.
          2    1    1    2  501    0  0.10472839523E+02  0.99473204508E+02 -0.44875009190E+03  0.45976216000E+03  0.00000000000E+00 0. -1.
          1    1    1    2  502    0  0.37962731487E+02 -0.10445736903E+02  0.21356216517E+04  0.21359845789E+04  0.00000000000E+00 0. -1.
         22    1    3    3    0    0  0.11527753099E+02  0.17582785778E+02 -0.66586457237E+01  0.22054047477E+02  0.00000000000E+00 0.  1.
         22    1    3    3    0    0 -0.59963324109E+02 -0.10661025338E+03 -0.30723421436E+03  0.33068747911E+03  0.00000000000E+00 0.  1.
</event>
<event>
 7    1  0.5977291E-006  0.6355459E+02  0.7818608E-02  0.1428695E+00
          2   -1    0    0  502    0  0.00000000000E+00  0.00000000000E+00  0.36742450648E+03  0.36742450648E+03  0.00000000000E+00 0. -1.
          1   -1    0    0  501    0 -0.00000000000E+00 -0.00000000000E+00 -0.86743925096E+03  0.86743925096E+03  0.00000000000E+00 0. -1.
         25    2    1    2    0    0 -0.73731464121E+02  0.73763183179E+02 -0.17619496686E+03  0.23989007995E+03  0.12500099246E+03 0.  0.
          2    1    1    2  501    0  0.35835813640E+02 -0.50301459688E+02 -0.65646091553E+03  0.65935982286E+03  0.00000000000E+00 0. -1.
          1    1    1    2  502    0  0.37895650481E+02 -0.23461723491E+02  0.33264113790E+03  0.33561385463E+03  0.00000000000E+00 0. -1.
         22    1    3    3    0    0 -0.10555796004E+03  0.38019987026E+02 -0.14245980290E+03  0.18133614583E+03  0.00000000000E+00 0.  1.
         22    1    3    3    0    0  0.31826495919E+02  0.35743196153E+02 -0.33735163964E+02  0.58553934124E+02  0.00000000000E+00 0.  1.
</event>
<event>
 7    1  0.5977291E-006  0.9609140E+02  0.7818608E-02  0.1400660E+00
          2   -1    0    0  502    0  0.00000000000E+00  0.00000000000E+00  0.67477215485E+03  0.67477215485E+03  0.00000000000E+00 0. -1.
          1   -1    0    0  501    0 -0.00000000000E+00 -0.00000000000E+00 -0.23147271776E+03  0.23147271776E+03  0.00000000000E+00 0. -1.
         25    2    1    2    0    0  0.50669204385E+02 -0.54186807155E+02  0.56043468732E+02  0.15578464190E+03  0.12499762366E+03 0.  0.
          2    1    1    2  501    0 -0.42330301216E+02  0.89858946287E+02 -0.16736995748E+03  0.19462576216E+03  0.00000000000E+00 0. -1.
          1    1    1    2  502    0 -0.83389031687E+01 -0.35672139132E+02  0.55462592584E+03  0.55583446855E+03  0.00000000000E+00 0. -1.
         22    1    3    3    0    0  0.34341301965E+02 -0.93751951666E+02  0.52581162398E+02  0.11284295326E+03  0.00000000000E+00 0.  1.
         22    1    3    3    0    0  0.16327902420E+02  0.39565144511E+02  0.34623063342E+01  0.42941688634E+02  0.00000000000E+00 0.  1.
</event>
<event>
 7    1  0.5977291E-006  0.6211407E+02  0.7818608E-02  0.1445545E+00
          2   -1    0    0  502    0  0.00000000000E+00  0.00000000000E+00  0.25052678630E+04  0.25052678630E+04  0.00000000000E+00 0. -1.
          1   -1    0    0  501    0 -0.00000000000E+00 -0.00000000000E+00 -0.92374957531E+02  0.92374957531E+02  0.00000000000E+00 0. -1.
         25    2    1    2    0    0 -0.17654645498E+01  0.77125701649E+02  0.87887631307E+02  0.17117695290E+03  0.12500329094E+03 0.  0.
          2    1    1    2  501    0 -0.30516486838E+02 -0.53189695431E+02 -0.31964887611E+02  0.69153117854E+02  0.00000000000E+00 0. -1.
          1    1    1    2  502    0  0.32281951388E+02 -0.23936006219E+02  0.23569701618E+04  0.23573127498E+04  0.00000000000E+00 0. -1.
         22    1    3    3    0    0 -0.48854414252E+02  0.43537387449E+02  0.92327233028E+02  0.11316614271E+03  0.00000000000E+00 0.  1.
         22    1    3    3    0    0  0.47088949702E+02  0.33588314200E+02 -0.44396017218E+01  0.58010810185E+02  0.00000000000E+00 0.  1.
</event>
<event>
 7    1  0.5977291E-006  0.8131386E+02  0.7818608E-02  0.1474755E+00
          2   -1    0    0  502    0  0.00000000000E+00  0.00000000000E+00  0.30981200720E+04  0.30981200720E+04  0.00000000000E+00 0. -1.
          1   -1    0    0  501    0 -0.00000000000E+00 -0.00000000000E+00 -0.89221843673E+02  0.89221843673E+02  0.00000000000E+00 0. -1.
         25    2    1    2    0    0 -0.25389340248E+02 -0.10170109473E+03  0.12168059447E+03  0.20351385580E+03  0.12499596459E+03 0.  0.
          2    1    1    2  501    0 -0.13094459561E+00  0.24830050303E+02 -0.44517605355E+02  0.50974167291E+02  0.00000000000E+00 0. -1.
          1    1    1    2  502    0  0.25520284843E+02  0.76871044424E+02  0.29317352392E+04  0.29328538926E+04  0.00000000000E+00 0. -1.
         22    1    3    3    0    0  0.39903351311E+02 -0.39510933860E+02  0.93455322058E+02  0.10902884280E+03  0.00000000000E+00 0. -1.
         22    1    3    3    0    0 -0.65292691558E+02 -0.62190160867E+02  0.28225272414E+02  0.94485013005E+02  0.00000000000E+00 0. -1.
</event>
<event>
 7    1  0.5977291E-006  0.1153174E+03  0.7818608E-02  0.1258392E+00
          2   -1    0    0  502    0  0.00000000000E+00  0.00000000000E+00  0.19688251244E+04  0.19688251244E+04  0.00000000000E+00 0. -1.
          1   -1    0    0  501    0 -0.00000000000E+00 -0.00000000000E+00 -0.68116835875E+03  0.68116835875E+03  0.00000000000E+00 0. -1.
         25    2    1    2    0    0 -0.21251707446E+03  0.18886181389E+02  0.50638768119E+03  0.56353641719E+03  0.12499846022E+03 0.  0.
          2    1    1    2  501    0  0.10735774575E+03 -0.39702844954E+02 -0.64554857087E+03  0.65561799764E+03  0.00000000000E+00 0. -1.
          1    1    1    2  502    0  0.10515932871E+03  0.20816663565E+02  0.14268176553E+04  0.14308390683E+04  0.00000000000E+00 0. -1.
         22    1    3    3    0    0 -0.74830346415E+02 -0.40361516465E+02  0.27497872194E+03  0.28782274107E+03  0.00000000000E+00 0.  1.
         22    1    3    3    0    0 -0.13768672805E+03  0.59247697854E+02  0.23140895925E+03  0.27571367612E+03  0.00000000000E+00 0.  1.
</event>
<event>
 7    1  0.5977291E-006  0.7159887E+02  0.7818608E-02  0.1368859E+00
          2   -1    0    0  502    0  0.00000000000E+00  0.00000000000E+00  0.40106429346E+03  0.40106429346E+03  0.00000000000E+00 0. -1.
          1   -1    0    0  501    0 -0.00000000000E+00 -0.00000000000E+00 -0.86646589482E+02  0.86646589482E+02  0.00000000000E+00 0. -1.
         25    2    1    2    0    0  0.85118668371E+02 -0.54405427061E+02  0.13023737789E+03  0.20686069943E+03  0.12499774467E+03 0.  0.
          2    1    1    2  501    0 -0.62514658007E+02 -0.11743904882E+02 -0.18670899360E+02  0.66291811338E+02  0.00000000000E+00 0. -1.
          1    1    1    2  502    0 -0.22604010364E+02  0.66149331943E+02  0.20285122546E+03  0.21455837217E+03  0.00000000000E+00 0. -1.
         22    1    3    3    0    0  0.63774485948E+02 -0.95214923789E+02  0.95480011882E+02  0.14916266101E+03  0.00000000000E+00 0.  1.
         22    1    3    3    0    0  0.21344182423E+02  0.40809496728E+02  0.34757366005E+02  0.57698038425E+02  0.00000000000E+00 0.  1.
</event>
<event>
 7    1  0.5977291E-006  0.1398962E+03  0.7818608E-02  0.1307684E+00
          2   -1    0    0  502    0  0.00000000000E+00  0.00000000000E+00  0.58165375661E+02  0.58165375661E+02  0.00000000000E+00 0. -1.
          1   -1    0    0  501    0 -0.00000000000E+00 -0.00000000000E+00 -0.13634866336E+04  0.13634866336E+04  0.00000000000E+00 0. -1.
         25    2    1    2    0    0  0.44990829077E+02  0.89893468331E+02 -0.25913752825E+03  0.30476506900E+03  0.12499791351E+03 0.  0.
          2    1    1    2  501    0 -0.37282457798E+02 -0.14475265259E+03 -0.10507240162E+04  0.10613031001E+04  0.00000000000E+00 0. -1.
          1    1    1    2  502    0 -0.77083712790E+01  0.54859184261E+02  0.45402865011E+01  0.55583840162E+02  0.00000000000E+00 0. -1.
         22    1    3    3    0    0 -0.17739672563E+02  0.10969371498E+02 -0.16665296083E+03  0.16795306620E+03  0.00000000000E+00 0.  1.
         22    1    3    3    0    0  0.62730501640E+02  0.78924096833E+02 -0.92484567421E+02  0.13681200279E+03  0.00000000000E+00 0.  1.
</event>
<event>
 7    1  0.5977291E-006  0.1227170E+03  0.7818608E-02  0.1392487E+00
          2   -1    0    0  502    0  0.00000000000E+00  0.00000000000E+00  0.27836511380E+03  0.27836511380E+03  0.00000000000E+00 0. -1.
          1   -1    0    0  501    0 -0.00000000000E+00 -0.00000000000E+00 -0.35576190067E+03  0.35576190067E+03  0.00000000000E+00 0. -1.
         25    2    1    2    0    0 -0.52915164242E+02  0.13563265791E+03  0.79803304149E+02  0.20782172449E+03  0.12500027728E+03 0.  0.
          2    1    1    2  501    0  0.28275515206E+02 -0.11746527482E+03 -0.27724021313E+03  0.30242309985E+03  0.00000000000E+00 0. -1.
          1    1    1    2  502    0  0.24639649036E+02 -0.18167383094E+02  0.12004012211E+03  0.12388219012E+03  0.00000000000E+00 0. -1.
         22    1    3    3    0    0 -0.42677206295E+01 -0.75023813760E+01  0.53723656187E+02  0.54412594129E+02  0.00000000000E+00 0.  1.
         22    1    3    3    0    0 -0.48647443612E+02  0.14313503929E+03  0.26079647962E+02  0.15340913037E+03  0.00000000000E+00 0.  1.
</event>
<event>
 7    1  0.5977291E-006  0.2022494E+03  0.7818608E-02  0.1241434E+00
          2   -1    0    0  502    0  0.00000000000E+00  0.00000000000E+00  0.16529300622E+04  0.16529300622E+04  0.00000000000E+00 0. -1.
          1   -1    0    0  501    0 -0.00000000000E+00 -0.00000000000E+00 -0.76413590296E+03  0.76413590296E+03  0.00000000000E+00 0. -1.
         25    2    1    2    0    0 -0.63816402387E+02  0.14101452678E+03 -0.13855040620E+03  0.24244223112E+03  0.12499756155E+03 0.  0.
          2    1    1    2  501    0  0.38249319325E+02  0.61480015895E+02 -0.56481403216E+03  0.56943629468E+03  0.00000000000E+00 0. -1.
          1    1    1    2  502    0  0.25567083062E+02 -0.20249454267E+03  0.15921585976E+04  0.16051874394E+04  0.00000000000E+00 0. -1.
         22    1    3    3    0    0  0.35983085199E+02  0.58672835737E+02 -0.38312515784E+02  0.78772666195E+02  0.00000000000E+00 0. -1.
         22    1    3    3    0    0 -0.99799487586E+02  0.82341691040E+02 -0.10023789042E+03  0.16366956492E+03  0.00000000000E+00 0. -1.
</event>
<event>
 7    1  0.5977291E-006  0.7158733E+02  0.7818608E-02  0.1411180E+00
          2   -1    0    0  502    0  0.00000000000E+00  0.00000000000E+00  0.20570078091E+03  0.20570078091E+03  0.00000000000E+00 0. -1.
          1   -1    0    0  501    0 -0.00000000000E+00 -0.00000000000E+00 -0.37582138186E+03  0.37582138186E+03  0.00000000000E+00 0. -1.
         25    2    1    2    0    0  0.76242330594E+02  0.56267966130E+02 -0.15233206963E+03  0.21865345317E+03  0.12500118464E+03 0.  0.
          2    1    1    2  501    0 -0.31234581151E+02 -0.61188841146E+02 -0.18094439507E+03  0.19354727445E+03  0.00000000000E+00 0. -1.
          1    1    1    2  502    0 -0.45007749443E+02  0.49208750165E+01  0.16315586375E+03  0.16932143514E+03  0.00000000000E+00 0. -1.
         22    1    3    3    0    0  0.10138828971E+03  0.11416959027E+02 -0.12166403321E+03  0.15878308859E+03  0.00000000000E+00 0. -1.
         22    1    3    3    0    0 -0.25145959116E+02  0.44851007103E+02 -0.30668036413E+02  0.59870364584E+02  0.00000000000E+00 0. -1.
</event>
<event>
 7    1  0.5977291E-006  0.5684970E+02  0.7818608E-02  0.1453476E+00
          2   -1    0    0  502    0  0.00000000000E+00  0.00000000000E+00  0.49620037017E+03  0.49620037017E+03  0.00000000000E+00 0. -1.
          1   -1    0    0  501    0 -0.00000000000E+00 -0.00000000000E+00 -0.78297572761E+03  0.78297572761E+03  0.00000000000E+00 0. -1.
         25    2    1    2    0    0 -0.20519591027E+02 -0.65898441444E+02 -0.38183016244E+02  0.14780674935E+03  0.12500093689E+03 0.  0.
          2    1    1    2  501    0 -0.25573081735E+02  0.32576994244E+02 -0.68752291235E+03  0.68876919071E+03  0.00000000000E+00 0. -1.
          1    1    1    2  502    0  0.46092672762E+02  0.33321447200E+02  0.43893057115E+03  0.44260015772E+03  0.00000000000E+00 0. -1.
         22    1    3    3    0    0 -0.50856259686E+02 -0.85052322701E+02 -0.48703529285E+02  0.11041870544E+03  0.00000000000E+00 0.  1.
         22    1    3    3    0    0  0.30336668659E+02  0.19153881257E+02  0.10520513042E+02  0.37388043907E+02  0.00000000000E+00 0.  1.
</event>
<event>
 7    1  0.5977291E-006  0.4887814E+02  0.7818608E-02  0.1579071E+00
          2   -1    0    0  502    0  0.00000000000E+00  0.00000000000E+00  0.15792295698E+04  0.15792295698E+04  0.00000000000E+00 0. -1.
          1   -1    0    0  501    0 -0.00000000000E+00 -0.00000000000E+00 -0.14252461870E+03  0.14252461870E+03  0.00000000000E+00 0. -1.
         25    2    1    2    0    0  0.35575740055E+02  0.42662627531E+02 -0.45588976491E+01  0.13688834728E+03  0.12502760898E+03 0.  0.
          2    1    1    2  501    0 -0.15173000508E+02 -0.46040469912E+02 -0.63539696772E+02  0.79920196947E+02  0.00000000000E+00 0. -1.
          1    1    1    2  502    0 -0.20402739548E+02  0.33778423813E+01  0.15048035455E+04  0.15049456443E+04  0.00000000000E+00 0. -1.
         22    1    3    3    0    0  0.76458231634E+02  0.28326952295E+02  0.24003949839E+02  0.84996864758E+02  0.00000000000E+00 0.  1.
         22    1    3    3    0    0 -0.40882491578E+02  0.14335675236E+02 -0.28562847488E+02  0.51891482526E+02  0.00000000000E+00 0.  1.
</event>
<event>
 7    1  0.5977291E-006  0.1156431E+03  0.7818608E-02  0.1339831E+00
          2   -1    0    0  502    0  0.00000000000E+00  0.00000000000E+00  0.86186116811E+03  0.86186116811E+03  0.00000000000E+00 0. -1.
          1   -1    0    0  501    0 -0.00000000000E+00 -0.00000000000E+00 -0.24229709196E+03  0.24229709196E+03  0.00000000000E+00 0. -1.
         25    2    1    2    0    0 -0.13912345271E+03 -0.34188259068E+00  0.20858474473E+02  0.18820084685E+03  0.12501612225E+03 0.  0.
          2    1    1    2  501    0  0.31385260414E+02 -0.39394623973E+02 -0.15013738612E+03  0.15836099797E+03  0.00000000000E+00 0. -1.
          1    1    1    2  502    0  0.10773819229E+03  0.39736506564E+02  0.74884298779E+03  0.75759641525E+03  0.00000000000E+00 0. -1.
         22    1    3    3    0    0 -0.14412239211E+03  0.24188815064E+02  0.45515702321E+02  0.15306221558E+03  0.00000000000E+00 0.  1.
         22    1    3    3    0    0  0.49989394009E+01 -0.24530697654E+02 -0.24657227848E+02  0.35138631272E+02  0.00000000000E+00 0.  1.
</event>
<event>
 7    1  0.5977291E-006  0.9218757E+02  0.7818608E-02  0.1441889E+00
          2   -1    0    0  502    0  0.00000000000E+00  0.00000000000E+00  0.38720116883E+03  0.38720116883E+03  0.00000000000E+00 0. -1.
          1   -1    0    0  501    0 -0.00000000000E+00 -0.00000000000E+00 -0.50120488133E+03  0.50120488133E+03  0.00000000000E+00 0. -1.
         25    2    1    2    0    0 -0.10555688593E+03  0.33700604961E+02  0.28494611442E+03  0.33029881382E+03  0.12500012538E+03 0.  0.
          2    1    1    2  501    0  0.91435172648E+02 -0.97268532813E+01 -0.47151161884E+03  0.48039380635E+03  0.00000000000E+00 0. -1.
          1    1    1    2  502    0  0.14121713286E+02 -0.23973751680E+02  0.72561791918E+02  0.77713429999E+02  0.00000000000E+00 0. -1.
         22    1    3    3    0    0 -0.11801589088E+03  0.46814441606E+02  0.28522706260E+03  0.31220797504E+03  0.00000000000E+00 0. -1.
         22    1    3    3    0    0  0.12459004943E+02 -0.13113836645E+02 -0.28094817902E+00  0.18090838775E+02  0.00000000000E+00 0. -1.
</event>
<event>
 7    1  0.5977291E-006  0.7640132E+02  0.7818608E-02  0.1341079E+00
          2   -1    0    0  502    0  0.00000000000E+00  0.00000000000E+00  0.11635623291E+04  0.11635623291E+04  0.00000000000E+00 0. -1.
          1   -1    0    0  501    0 -0.00000000000E+00 -0.00000000000E+00 -0.87157270540E+03  0.87157270540E+03  0.00000000000E+00 0. -1.
         25    2    1    2    0    0 -0.22786052569E+02  0.14981703618E+03  0.48658411209E+03  0.52474143132E+03  0.12500049235E+03 0.  0.
          2    1    1    2  501    0  0.12884411605E+02 -0.75050135606E+02 -0.84862216146E+03  0.85203175049E+03  0.00000000000E+00 0. -1.
          1    1    1    2  502    0  0.99016409640E+01 -0.74766900576E+02  0.65402767312E+03  0.65836185272E+03  0.00000000000E+00 0. -1.
         22    1    3    3    0    0 -0.42614694578E+01  0.63528858481E+02  0.38476404106E+03  0.38999672213E+03  0.00000000000E+00 0. -1.
         22    1    3    3    0    0 -0.18524583111E+02  0.86288177702E+02  0.10182007103E+03  0.13474470919E+03  0.00000000000E+00 0. -1.
</event>
<event>
 7    1  0.5977291E-006  0.8685457E+02  0.7818608E-02  0.1351943E+00
          2   -1    0    0  502    0  0.00000000000E+00  0.00000000000E+00  0.36893405170E+04  0.36893405170E+04  0.00000000000E+00 0. -1.
          1   -1    0    0  501    0 -0.00000000000E+00 -0.00000000000E+00 -0.13646322161E+03  0.13646322161E+03  0.00000000000E+00 0. -1.
         25    2    1    2    0    0  0.13765813039E+03  0.13527673088E+02  0.61269470885E+03  0.64043157376E+03  0.12500014246E+03 0.  0.
          2    1    1    2  501    0 -0.53927656016E+02 -0.27292133054E+02 -0.11452020843E+03  0.12949104506E+03  0.00000000000E+00 0. -1.
          1    1    1    2  502    0 -0.83730474379E+02  0.13764459966E+02  0.30547027950E+04  0.30558811198E+04  0.00000000000E+00 0. -1.
         22    1    3    3    0    0  0.24732611118E+02 -0.79332983689E+01  0.38007609290E+03  0.38096256466E+03  0.00000000000E+00 0.  1.
         22    1    3    3    0    0  0.11292551928E+03  0.21460971457E+02  0.23261861595E+03  0.25946900911E+03  0.00000000000E+00 0.  1.
</event>
<event>
 7    1  0.5977291E-006  0.1598475E+03  0.7818608E-02  0.1322468E+00
          2   -1    0    0  502    0  0.00000000000E+00  0.00000000000E+00  0.14583618708E+04  0.14583618708E+04  0.00000000000E+00 0. -1.
          1   -1    0    0  501    0 -0.00000000000E+00 -0.00000000000E+00 -0.27269544679E+03  0.27269544679E+03  0.00000000000E+00 0. -1.
         25    2    1    2    0    0 -0.18037883090E+03 -0.12689594648E+02 -0.53490646234E+01  0.21988940503E+03  0.12500075801E+03 0.  0.
          2    1    1    2  501    0  0.15228336940E+03 -0.19121202566E+02 -0.12286615980E+03  0.19660096187E+03  0.00000000000E+00 0. -1.
          1    1    1    2  502    0  0.28095461503E+02  0.31810797213E+02  0.13138816485E+04  0.13145669507E+04  0.00000000000E+00 0. -1.
         22    1    3    3    0    0 -0.45519720567E+02 -0.61147055737E+02  0.35501965382E+01  0.76312589271E+02  0.00000000000E+00 0.  1.
         22    1    3    3    0    0 -0.13485911033E+03  0.48457461090E+02 -0.88992611617E+01  0.14357681576E+03  0.00000000000E+00 0.  1.
</event>
<event>
 7    1  0.5977291E-006  0.8707552E+02  0.7818608E-02  0.1446807E+00
          2   -1    0    0  502    0  0.00000000000E+00  0.00000000000E+00  0.12435947047E+04  0.12435947047E+04  0.00000000000E+00 0. -1.
          1   -1    0    0  501    0 -0.00000000000E+00 -0.00000000000E+00 -0.47372166736E+02  0.47372166736E+02  0.00000000000E+00 0. -1.
         25    2    1    2    0    0  0.42520526990E+02  0.93655039586E+02  0.13120976401E+03  0.20836648116E+03  0.12498530572E+03 0.  0.
          2    1    1    2  501    0 -0.27078643824E+02 -0.85642351435E+01  0.21783438018E+02  0.35792698233E+02  0.00000000000E+00 0. -1.
          1    1    1    2  502    0 -0.15441883166E+02 -0.85090804442E+02  0.10432293359E+04  0.10468076920E+04  0.00000000000E+00 0. -1.
         22    1    3    3    0    0  0.51655952240E+02  0.72820280631E+02  0.15716488046E+02  0.90653950104E+02  0.00000000000E+00 0.  1.
         22    1    3    3    0    0 -0.91354252502E+01  0.20834758955E+02  0.11549327596E+03  0.11771253106E+03  0.00000000000E+00 0.  1.
</event>
<event>
 7    1  0.5977291E-006  0.4257512E+02  0.7818608E-02  0.1582204E+00
          2   -1    0    0  502    0  0.00000000000E+00  0.00000000000E+00  0.47564965925E+03  0.47564965925E+03  0.00000000000E+00 0. -1.
          1   -1    0    0  501    0 -0.00000000000E+00 -0.00000000000E+00 -0.12624620305E+03  0.12624620305E+03  0.00000000000E+00 0. -1.
         25    2    1    2    0    0 -0.11039056356E+02 -0.19102955695E+02  0.20570386561E+02  0.12859283684E+03  0.12500477271E+03 0.  0.
          2    1    1    2  501    0  0.27254244712E+01 -0.23127493542E+02 -0.69167182208E+02  0.72982244352E+02  0.00000000000E+00 0. -1.
          1    1    1    2  502    0  0.83136318851E+01  0.42230449237E+02  0.39800025185E+03  0.40032078111E+03  0.00000000000E+00 0. -1.
         22    1    3    3    0    0  0.40634832401E+01  0.52737558232E+02  0.23061745707E+01  0.52944125127E+02  0.00000000000E+00 0.  1.
         22    1    3    3    0    0 -0.15102539596E+02 -0.71840513927E+02  0.18264211990E+02  0.75648711709E+02  0.00000000000E+00 0.  1.
</event>
<event>
 7    1  0.5977291E-006  0.3098481E+02  0.7818608E-02  0.1608658E+00
          2   -1    0    0  502    0  0.00000000000E+00  0.00000000000E+00  0.72213410218E+03  0.72213410218E+03  0.00000000000E+00 0. -1.
          1   -1    0    0  501    0 -0.00000000000E+00 -0.00000000000E+00 -0.99399404218E+02  0.99399404218E+02  0.00000000000E+00 0. -1.
         25    2    1    2    0    0  0.19098142870E+02  0.34178686110E+01  0.27664959069E+03  0.30419734054E+03  0.12499842030E+03 0.  0.
          2    1    1    2  501    0  0.21396716240E+01 -0.27180347946E+02 -0.82848914325E+02  0.87219791985E+02  0.00000000000E+00 0. -1.
          1    1    1    2  502    0 -0.21237814494E+02  0.23762479335E+02  0.42893402159E+03  0.43011637387E+03  0.00000000000E+00 0. -1.
         22    1    3    3    0    0 -0.66013235044E+01 -0.56764152695E+02  0.16697462770E+03  0.17648306660E+03  0.00000000000E+00 0.  1.
         22    1    3    3    0    0  0.25699466374E+02  0.60182021306E+02  0.10967496300E+03  0.12771427394E+03  0.00000000000E+00 0.  1.
</event>
<event>
 7    1  0.5977291E-006  0.6619452E+02  0.7818608E-02  0.1414311E+00
          2   -1    0    0  502    0  0.00000000000E+00  0.00000000000E+00  0.16943166329E+03  0.16943166329E+03  0.00000000000E+00 0. -1.
          1   -1    0    0  501    0 -0.00000000000E+00 -0.00000000000E+00 -0.41939154790E+03  0.41939154790E+03  0.00000000000E+00 0. -1.
         25    2    1    2    0    0 -0.34767411788E+02  0.33110802887E+02 -0.11791166282E+03  0.17842205369E+03  0.12500468320E+03 0.  0.
          2    1    1    2  501    0 -0.33213491956E+02 -0.34358201125E+02 -0.26061639034E+03  0.26496136500E+03  0.00000000000E+00 0. -1.
          1    1    1    2  502    0  0.67980903744E+02  0.12473982382E+01  0.12856816855E+03  0.14543979250E+03  0.00000000000E+00 0. -1.
         22    1    3    3    0    0  0.44265423789E+02  0.22641081823E+02 -0.23923069038E+02  0.55175715324E+02  0.00000000000E+00 0.  1.
         22    1    3    3    0    0 -0.79032835577E+02  0.10469721064E+02 -0.93988593783E+02  0.12324633836E+03  0.00000000000E+00 0.  1.
</event>
<event>
 7    1  0.5977291E-006  0.2317070E+03  0.7818608E-02  0.1310810E+00
          2   -1    0    0  502    0  0.00000000000E+00  0.00000000000E+00  0.50458455682E+03  0.50458455682E+03  0.00000000000E+00 0. -1.
          1   -1    0    0  501    0 -0.00000000000E+00 -0.00000000000E+00 -0.19871321260E+04  0.19871321260E+04  0.00000000000E+00 0. -1.
         25    2    1    2    0    0  0.16368565382E+03  0.20087101486E+03 -0.22166043582E+03  0.36318308207E+03  0.12500577752E+03 0.  0.
          2    1    1    2  501    0 -0.13589315129E+03 -0.18400289261E+03 -0.16863686848E+04  0.17018117858E+04  0.00000000000E+00 0. -1.
          1    1    1    2  502    0 -0.27792502531E+02 -0.16868122257E+02  0.42548155147E+03  0.42672181498E+03  0.00000000000E+00 0. -1.
         22    1    3    3    0    0  0.52029067642E+02 -0.53913167354E+01 -0.51578787064E+02  0.73460611560E+02  0.00000000000E+00 0. -1.
         22    1    3    3    0    0  0.11165658617E+03  0.20626233160E+03 -0.17008164876E+03  0.28972247051E+03  0.00000000000E+00 0. -1.
</event>
<event>
 7    1  0.5977291E-006  0.3232379E+03  0.7818608E-02  0.1183260E+00
          2   -1    0    0  502    0  0.00000000000E+00  0.00000000000E+00  0.14395300024E+04  0.14395300024E+04  0.00000000000E+00 0. -1.
          1   -1    0    0  501    0 -0.00000000000E+00 -0.00000000000E+00 -0.28317277969E+04  0.28317277969E+04  0.00000000000E+00 0. -1.
         25    2    1    2    0    0 -0.27883010618E+03  0.72757000056E+02  0.40683204641E+03  0.51398105554E+03  0.12499760917E+03 0.  0.
          2    1    1    2  501    0 -0.31911902496E+02  0.77849785020E+02 -0.27470428026E+04  0.27483309695E+04  0.00000000000E+00 0. -1.
          1    1    1    2  502    0  0.31074200867E+03 -0.15060678508E+03  0.94801296171E+03  0.10089457742E+04  0.00000000000E+00 0. -1.
         22    1    3    3    0    0 -0.14687377548E+03  0.19614888714E+02  0.10909821777E+03  0.18400834466E+03  0.00000000000E+00 0.  1.
         22    1    3    3    0    0 -0.13195633070E+03  0.53142111342E+02  0.29773382864E+03  0.32997271088E+03  0.00000000000E+00 0.  1.
</event>
<event>
 7    1  0.5977291E-006  0.6197370E+02  0.7818608E-02  0.1403237E+00
          2   -1    0    0  502    0  0.00000000000E+00  0.00000000000E+00  0.37352367341E+03  0.37352367341E+03  0.00000000000E+00 0. -1.
          1   -1    0    0  501    0 -0.00000000000E+00 -0.00000000000E+00 -0.73572462967E+03  0.73572462967E+03  0.00000000000E+00 0. -1.
         25    2    1    2    0    0  0.25801825431E+02  0.91222462132E+02 -0.25586147789E+03  0.30013039054E+03  0.12500353459E+03 0.  0.
          2    1    1    2  501    0  0.18398608756E+02 -0.57398640425E+02 -0.45351823073E+03  0.45750617300E+03  0.00000000000E+00 0. -1.
          1    1    1    2  502    0 -0.44200434187E+02 -0.33823821706E+02  0.34717875236E+03  0.35161173955E+03  0.00000000000E+00 0. -1.
         22    1    3    3    0    0  0.26537373014E+01  0.11593978655E+03 -0.15396781071E+03  0.19275674609E+03  0.00000000000E+00 0.  1.
         22    1    3    3    0    0  0.23148088130E+02 -0.24717324418E+02 -0.10189366718E+03  0.10737364445E+03  0.00000000000E+00 0.  1.
</event>
<event>
 7    1  0.5977291E-006  0.2651282E+02  0.7818608E-02  0.1645832E+00
          2   -1    0    0  502    0  0.00000000000E+00  0.00000000000E+00  0.23532796401E+03  0.23532796401E+03  0.00000000000E+00 0. -1.
          1   -1    0    0  501    0 -0.00000000000E+00 -0.00000000000E+00 -0.95176128306E+02  0.95176128306E+02  0.00000000000E+00 0. -1.
         25    2    1    2    0    0  0.27783082415E+02  0.30426113660E+02  0.80946718366E+02  0.15452221342E+03  0.12500838038E+03 0.  0.
          2    1    1    2  501    0 -0.24566363059E+01 -0.26225589742E+02 -0.53904226888E+02  0.59995685642E+02  0.00000000000E+00 0. -1.
          1    1    1    2  502    0 -0.25326446109E+02 -0.42005239179E+01  0.11310934422E+03  0.11598619325E+03  0.00000000000E+00 0. -1.
         22    1    3    3    0    0 -0.40703543776E+02  0.33988234963E+02  0.67002063910E+01  0.53449708675E+02  0.00000000000E+00 0.  1.
         22    1    3    3    0    0  0.68486626191E+02 -0.35621213027E+01  0.74246511975E+02  0.10107250475E+03  0.00000000000E+00 0.  1.
</event>
<event>
 7    1  0.5977291E-006  0.1252973E+03  0.7818608E-02  0.1267645E+00
          2   -1    0    0  502    0  0.00000000000E+00  0.00000000000E+00  0.15086464216E+04  0.15086464216E+04  0.00000000000E+00 0. -1.
          1   -1    0    0  501    0 -0.00000000000E+00 -0.00000000000E+00 -0.95810011358E+02  0.95810011358E+02  0.00000000000E+00 0. -1.
         25    2    1    2    0    0 -0.13322048646E+03 -0.12413274192E+03  0.11530290011E+04  0.11739919125E+04  0.12499799060E+03 0.  0.
          2    1    1    2  501    0  0.11855453877E+03  0.35208872878E+02 -0.29754403088E+02  0.12720128889E+03  0.00000000000E+00 0. -1.
          1    1    1    2  502    0  0.14665947688E+02  0.88923869039E+02  0.28956181225E+03  0.30326323157E+03  0.00000000000E+00 0. -1.
         22    1    3    3    0    0 -0.90347136591E+02 -0.39415330036E+02  0.86767523187E+03  0.87325625182E+03  0.00000000000E+00 0. -1.
         22    1    3    3    0    0 -0.42873349869E+02 -0.84717411881E+02  0.28535376919E+03  0.30073566066E+03  0.00000000000E+00 0. -1.
</event>
<event>
 7    1  0.5977291E-006  0.2147580E+03  0.7818608E-02  0.1273147E+00
          2   -1    0    0  502    0  0.00000000000E+00  0.00000000000E+00  0.15797403814E+04  0.15797403814E+04  0.00000000000E+00 0. -1.
          1   -1    0    0  501    0 -0.00000000000E+00 -0.00000000000E+00 -0.33757883094E+03  0.33757883094E+03  0.00000000000E+00 0. -1.
         25    2    1    2    0    0 -0.14279441972E+03  0.17461894821E+03  0.23509547531E+03  0.34896612280E+03  0.12500179589E+03 0.  0.
          2    1    1    2  501    0  0.16844213798E+03 -0.13186156552E+03 -0.23930887182E+03  0.32098124936E+03  0.00000000000E+00 0. -1.
          1    1    1    2  502    0 -0.25647718258E+02 -0.42757382687E+02  0.12463749469E+04  0.12473718401E+04  0.00000000000E+00 0. -1.
         22    1    3    3    0    0 -0.39203900880E+02  0.13498932184E+03  0.16913625858E+03  0.21992302476E+03  0.00000000000E+00 0.  1.
         22    1    3    3    0    0 -0.10359051884E+03  0.39629626373E+02  0.65959216727E+02  0.12904309804E+03  0.00000000000E+00 0.  1.
</event>
<event>
 7    1  0.5977291E-006  0.1592408E+03  0.7818608E-02  0.1243690E+00
          2   -1    0    0  502    0  0.00000000000E+00  0.00000000000E+00  0.83305626164E+03  0.83305626164E+03  0.00000000000E+00 0. -1.
          1   -1    0    0  501    0 -0.00000000000E+00 -0.00000000000E+00 -0.40599590000E+03  0.40599590000E+03  0.00000000000E+00 0. -1.
         25    2    1    2    0    0  0.23398873861E+03  0.41433023148E+02 -0.21397867331E+03  0.34333522556E+03  0.12499911709E+03 0.  0.
          2    1    1    2  501    0 -0.88241002628E+02  0.17133424888E+02 -0.10217409264E+03  0.13608664152E+03  0.00000000000E+00 0. -1.
          1    1    1    2  502    0 -0.14574773599E+03 -0.58566448036E+02  0.74321312760E+03  0.75963029456E+03  0.00000000000E+00 0. -1.
         22    1    3    3    0    0  0.12229802731E+03 -0.35745785947E+01 -0.18101707837E+03  0.21848745447E+03  0.00000000000E+00 0.  1.
         22    1    3    3    0    0  0.11169071131E+03  0.45007601743E+02 -0.32961594938E+02  0.12484777110E+03  0.00000000000E+00 0.  1.
</event>
<event>
 7    1  0.5977291E-006  0.2921835E+03  0.7818608E-02  0.1220354E+00
          2   -1    0    0  502    0  0.00000000000E+00  0.00000000000E+00  0.61569459829E+03  0.61569459829E+03  0.00000000000E+00 0. -1.
          1   -1    0    0  501    0 -0.00000000000E+00 -0.00000000000E+00 -0.59824216805E+03  0.59824216805E+03  0.00000000000E+00 0. -1.
         25    2    1    2    0    0 -0.29268602702E+03 -0.45192248767E+02 -0.39262804649E+03  0.50743553381E+03  0.12500635311E+03 0.  0.
          2    1    1    2  501    0  0.81984173478E+00  0.62282087332E+02 -0.10044284765E+03  0.11818839277E+03  0.00000000000E+00 0. -1.
          1    1    1    2  502    0  0.29186618529E+03 -0.17089838565E+02  0.51052332437E+03  0.58831283976E+03  0.00000000000E+00 0. -1.
         22    1    3    3    0    0 -0.72149841257E+02 -0.61290082919E+02 -0.76849966262E+02  0.12193437240E+03  0.00000000000E+00 0.  1.
         22    1    3    3    0    0 -0.22053618576E+03  0.16097834152E+02 -0.31577808023E+03  0.38550116141E+03  0.00000000000E+00 0.  1.
</event>
<event>
 7    1  0.5977291E-006  0.4543908E+03  0.7818608E-02  0.1175872E+00
          2   -1    0    0  502    0  0.00000000000E+00  0.00000000000E+00  0.41048553338E+03  0.41048553338E+03  0.00000000000E+00 0. -1.
          1   -1    0    0  501    0 -0.00000000000E+00 -0.00000000000E+00 -0.25117578920E+04  0.25117578920E+04  0.00000000000E+00 0. -1.
         25    2    1    2    0    0  0.23163316682E+02  0.40454572917E+03 -0.96278094817E+03  0.10520291756E+04  0.12499778354E+03 0.  0.
          2    1    1    2  501    0 -0.31237622565E+02  0.57044929450E+02 -0.13576273014E+04  0.13591842416E+04  0.00000000000E+00 0. -1.
          1    1    1    2  502    0  0.80743058829E+01 -0.46159065862E+03  0.21913589099E+03  0.51103000818E+03  0.00000000000E+00 0. -1.
         22    1    3    3    0    0  0.19975969305E+02  0.36078403155E+03 -0.72298689799E+03  0.80825380385E+03  0.00000000000E+00 0. -1.
         22    1    3    3    0    0  0.31873473771E+01  0.43761697614E+02 -0.23979405019E+03  0.24377537174E+03  0.00000000000E+00 0. -1.
</event>
<event>
 7    1  0.5977291E-006  0.2115935E+03  0.7818608E-02  0.1218402E+00
          2   -1    0    0  502    0  0.00000000000E+00  0.00000000000E+00  0.33964487602E+03  0.33964487602E+03  0.00000000000E+00 0. -1.
          1   -1    0    0  501    0 -0.00000000000E+00 -0.00000000000E+00 -0.39689021928E+03  0.39689021928E+03  0.00000000000E+00 0. -1.
         25    2    1    2    0    0  0.17103567464E+03 -0.21793010905E+03  0.23427211343E+01  0.30393253355E+03  0.12499104839E+03 0.  0.
          2    1    1    2  501    0 -0.49202585378E+02  0.72710309789E+02 -0.18537017045E+03  0.20510919933E+03  0.00000000000E+00 0. -1.
          1    1    1    2  502    0 -0.12183308926E+03  0.14521979926E+03  0.12578210606E+03  0.22749336242E+03  0.00000000000E+00 0. -1.
         22    1    3    3    0    0 -0.16095384004E+02 -0.45233790742E+02  0.10557211555E+02  0.49159047254E+02  0.00000000000E+00 0. -1.
         22    1    3    3    0    0  0.18713105865E+03 -0.17269631831E+03 -0.82144904203E+01  0.25477348630E+03  0.00000000000E+00 0. -1.
</event>
<event>
 7    1  0.5977291E-006  0.4445990E+02  0.7818608E-02  0.1533716E+00
          2   -1    0    0  502    0  0.00000000000E+00  0.00000000000E+00  0.13058455048E+04  0.13058455048E+04  0.00000000000E+00 0. -1.
          1   -1    0    0  501    0 -0.00000000000E+00 -0.00000000000E+00 -0.25940022967E+03  0.25940022967E+03  0.00000000000E+00 0. -1.
         25    2    1    2    0    0 -0.42617484595E+01 -0.19540617845E+02  0.28179985574E+03  0.30892765805E+03  0.12500056387E+03 0.  0.
          2    1    1    2  501    0 -0.27334108714E+02 -0.13193298183E+02 -0.24438499164E+03  0.24626254436E+03  0.00000000000E+00 0. -1.
          1    1    1    2  502    0  0.31595857174E+02  0.32733916028E+02  0.10090304110E+04  0.10100555321E+04  0.00000000000E+00 0. -1.
         22    1    3    3    0    0  0.13815738740E+02  0.51443959563E+02  0.11348032940E+03  0.12536004456E+03  0.00000000000E+00 0.  1.
         22    1    3    3    0    0 -0.18077487200E+02 -0.70984577408E+02  0.16831952634E+03  0.18356761349E+03  0.00000000000E+00 0.  1.
</event>
<event>
 7    1  0.5977291E-006  0.2016551E+03  0.7818608E-02  0.1200395E+00
          2   -1    0    0  502    0  0.00000000000E+00  0.00000000000E+00  0.17747202108E+04  0.17747202108E+04  0.00000000000E+00 0. -1.
          1   -1    0    0  501    0 -0.00000000000E+00 -0.00000000000E+00 -0.15967052213E+03  0.15967052213E+03  0.00000000000E+00 0. -1.
         25    2    1    2    0    0 -0.27306327711E+03  0.54914258520E+02  0.42480793295E+03  0.52313082758E+03  0.12499981511E+03 0.  0.
          2    1    1    2  501    0  0.10506560948E+03  0.37835933731E+02 -0.73072395184E+02  0.13345379393E+03  0.00000000000E+00 0. -1.
          1    1    1    2  502    0  0.16799766763E+03 -0.92750192251E+02  0.12633141510E+04  0.12778061115E+04  0.00000000000E+00 0. -1.
         22    1    3    3    0    0 -0.19478879653E+03 -0.15561036565E+02  0.23111960128E+03  0.30265672173E+03  0.00000000000E+00 0.  1.
         22    1    3    3    0    0 -0.78274480580E+02  0.70475295085E+02  0.19368833167E+03  0.22047410586E+03  0.00000000000E+00 0.  1.
</event>
<event>
 7    1  0.5977291E-006  0.9488248E+02  0.7818608E-02  0.1339533E+00
          2   -1    0    0  502    0  0.00000000000E+00  0.00000000000E+00  0.93995028657E+03  0.93995028657E+03  0.00000000000E+00 0. -1.
          1   -1    0    0  501    0 -0.00000000000E+00 -0.00000000000E+00 -0.17766333567E+04  0.17766333567E+04  0.00000000000E+00 0. -1.
         25    2    1    2    0    0  0.15083763400E+03 -0.16463117095E+02 -0.25866812378E+02  0.19828622894E+03  0.12500124219E+03 0.  0.
          2    1    1    2  501    0 -0.57388120165E+02  0.22243552050E+02 -0.16614182913E+04  0.16625579420E+04  0.00000000000E+00 0. -1.
          1    1    1    2  502    0 -0.93449513837E+02 -0.57804349554E+01  0.85060203353E+03  0.85573947233E+03  0.00000000000E+00 0. -1.
         22    1    3    3    0    0  0.12081895400E+03  0.43346249774E+02 -0.27812728102E+02  0.13133797951E+03  0.00000000000E+00 0. -1.
         22    1    3    3    0    0  0.30018679998E+02 -0.59809366868E+02  0.19459157245E+01  0.66948249432E+02  0.00000000000E+00 0. -1.
</event>
<event>
 7    1  0.5977291E-006  0.1730242E+03  0.7818608E-02  0.1276576E+00
          2   -1    0    0  502    0  0.00000000000E+00  0.00000000000E+00  0.13912383445E+04  0.13912383445E+04  0.00000000000E+00 0. -1.
          1   -1    0    0  501    0 -0.00000000000E+00 -0.00000000000E+00 -0.54672315069E+03  0.54672315069E+03  0.00000000000E+00 0. -1.
         25    2    1    2    0    0 -0.19930163580E+03  0.11586683678E+03  0.30694674359E+03  0.40371735464E+03  0.12500053253E+03 0.  0.
          2    1    1    2  501    0  0.14783448716E+03 -0.85254011023E+02 -0.48282402235E+03  0.51209600521E+03  0.00000000000E+00 0. -1.
          1    1    1    2  502    0  0.51467148649E+02 -0.30612825755E+02  0.10203924726E+04  0.10221481353E+04  0.00000000000E+00 0. -1.
         22    1    3    3    0    0 -0.76263258176E+02  0.62719774710E+00  0.17070717640E+03  0.18696902952E+03  0.00000000000E+00 0.  1.
         22    1    3    3    0    0 -0.12303837763E+03  0.11523963903E+03  0.13623956720E+03  0.21674832512E+03  0.00000000000E+00 0.  1.
</event>
<event>
 7    1  0.5977291E-006  0.8653955E+02  0.7818608E-02  0.1426633E+00
          2   -1    0    0  502    0  0.00000000000E+00  0.00000000000E+00  0.11774805350E+03  0.11774805350E+03  0.00000000000E+00 0. -1.
          1   -1    0    0  501    0 -0.00000000000E+00 -0.00000000000E+00 -0.20022113932E+04  0.20022113932E+04  0.00000000000E+00 0. -1.
         25    2    1    2    0    0 -0.84340434198E+02  0.62188321566E+02 -0.35357716584E+03  0.38939111325E+03  0.12501172222E+03 0.  0.
          2    1    1    2  501    0  0.36000067814E+01 -0.33054643545E+02 -0.16120753001E+04  0.16124181662E+04  0.00000000000E+00 0. -1.
          1    1    1    2  502    0  0.80740427416E+02 -0.29133678022E+02  0.81189126212E+02  0.11815016729E+03  0.00000000000E+00 0. -1.
         22    1    3    3    0    0  0.26364835851E+02  0.39474114442E+02 -0.13885693721E+03  0.14674658187E+03  0.00000000000E+00 0. -1.
         22    1    3    3    0    0 -0.11070527005E+03  0.22714207124E+02 -0.21472022863E+03  0.24264453138E+03  0.00000000000E+00 0. -1.
</event>
<event>
 7    1  0.5977291E-006  0.5531967E+02  0.7818608E-02  0.1440960E+00
          2   -1    0    0  502    0  0.00000000000E+00  0.00000000000E+00  0.72193088810E+03  0.72193088810E+03  0.00000000000E+00 0. -1.
          1   -1    0    0  501    0 -0.00000000000E+00 -0.00000000000E+00 -0.16246415774E+04  0.16246415774E+04  0.00000000000E+00 0. -1.
         25    2    1    2    0    0  0.66005599434E+02 -0.41208114789E+02 -0.37849409969E+02  0.15202214358E+03  0.12499322551E+03 0.  0.
          2    1    1    2  501    0 -0.55094778380E+02 -0.41883046401E+01 -0.15283862729E+04  0.15293847050E+04  0.00000000000E+00 0. -1.
          1    1    1    2  502    0 -0.10910821054E+02  0.45396419429E+02  0.66352499357E+03  0.66516561698E+03  0.00000000000E+00 0. -1.
         22    1    3    3    0    0  0.65833329735E+02 -0.81784397337E+02 -0.37373263529E+02  0.11144270177E+03  0.00000000000E+00 0.  1.
         22    1    3    3    0    0  0.17226969886E+00  0.40576282548E+02 -0.47614644068E+00  0.40579441811E+02  0.00000000000E+00 0.  1.
</event>
<event>
 7    1  0.5977291E-006  0.8276132E+02  0.7818608E-02  0.1364374E+00
          2   -1    0    0  502    0  0.00000000000E+00  0.00000000000E+00  0.12801305388E+03  0.12801305388E+03  0.00000000000E+00 0. -1.
          1   -1    0    0  501    0 -0.00000000000E+00 -0.00000000000E+00 -0.45520538556E+03  0.45520538556E+03  0.00000000000E+00 0. -1.
         25    2    1    2    0    0  0.47293332868E+02  0.32646244699E+02 -0.44168726702E+02  0.14449261791E+03  0.12499921434E+03 0.  0.
          2    1    1    2  501    0 -0.22245817349E+02 -0.83983273344E+02 -0.34421886084E+03  0.35501364868E+03  0.00000000000E+00 0. -1.
          1    1    1    2  502    0 -0.25047515519E+02  0.51337028644E+02  0.61195255865E+02  0.83712172855E+02  0.00000000000E+00 0. -1.
         22    1    3    3    0    0  0.22962967294E+02  0.45325465101E+02 -0.82777873375E+02  0.97128121438E+02  0.00000000000E+00 0. -1.
         22    1    3    3    0    0  0.24330365574E+02 -0.12679220402E+02  0.38609146673E+02  0.47364496470E+02  0.00000000000E+00 0. -1.
</event>
<event>
 7    1  0.5977291E-006  0.1303153E+03  0.7818608E-02  0.1382244E+00
          2   -1    0    0  502    0  0.00000000000E+00  0.00000000000E+00  0.23313108254E+04  0.23313108254E+04  0.00000000000E+00 0. -1.
          1   -1    0    0  501    0 -0.00000000000E+00 -0.00000000000E+00 -0.45701427903E+03  0.45701427903E+03  0.00000000000E+00 0. -1.
         25    2    1    2    0    0 -0.89956410257E+02 -0.94923180248E+02  0.94087717254E+03  0.95811112726E+03  0.12499804985E+03 0.  0.
          2    1    1    2  501    0 -0.20268781873E+02  0.23865876870E+02 -0.44473400866E+03  0.44583488206E+03  0.00000000000E+00 0. -1.
          1    1    1    2  502    0  0.11022519213E+03  0.71057303378E+02  0.13781533825E+04  0.13843790951E+04  0.00000000000E+00 0. -1.
         22    1    3    3    0    0 -0.11583244233E+03 -0.99201211599E+02  0.84788607123E+03  0.86149220824E+03  0.00000000000E+00 0.  1.
         22    1    3    3    0    0  0.25876032071E+02  0.42780313516E+01  0.92991101315E+02  0.96618919015E+02  0.00000000000E+00 0.  1.
</event>
<event>
 7    1  0.5977291E-006  0.1565609E+03  0.7818608E-02  0.1326364E+00
          2   -1    0    0  502    0  0.00000000000E+00  0.00000000000E+00  0.67250206045E+03  0.67250206045E+03  0.00000000000E+00 0. -1.
          1   -1    0    0  501    0 -0.00000000000E+00 -0.00000000000E+00 -0.61327679487E+03  0.61327679487E+03  0.00000000000E+00 0. -1.
         25    2    1    2    0    0  0.11995088537E+03 -0.13272824559E+03  0.29677802042E+03  0.36838565192E+03  0.12500317220E+03 0.  0.
          2    1    1    2  501    0 -0.78151621352E+02  0.13498038051E+03 -0.56558681517E+03  0.58669909199E+03  0.00000000000E+00 0. -1.
          1    1    1    2  502    0 -0.41799264014E+02 -0.22521349251E+01  0.32803406034E+03  0.33069411141E+03  0.00000000000E+00 0. -1.
         22    1    3    3    0    0  0.72282536036E+02 -0.35855383589E+02  0.40472409703E+02  0.90268430225E+02  0.00000000000E+00 0.  1.
         22    1    3    3    0    0  0.47668349330E+02 -0.96872861999E+02  0.25630561071E+03  0.27811722169E+03  0.00000000000E+00 0.  1.
</event>
<event>
 7    1  0.5977291E-006  0.5012554E+02  0.7818608E-02  0.1575918E+00
          2   -1    0    0  502    0  0.00000000000E+00  0.00000000000E+00  0.15322095659E+02  0.15322095659E+02  0.00000000000E+00 0. -1.
          1   -1    0    0  501    0 -0.00000000000E+00 -0.00000000000E+00 -0.20254642143E+04  0.20254642143E+04  0.00000000000E+00 0. -1.
         25    2    1    2    0    0 -0.51587692821E+02  0.19415854378E+01 -0.50761694219E+03  0.52532428817E+03  0.12500235175E+03 0.  0.
          2    1    1    2  501    0  0.45389634134E+02 -0.21548821596E+02 -0.14910832155E+04  0.14919295312E+04  0.00000000000E+00 0. -1.
          1    1    1    2  502    0  0.61980586871E+01  0.19607236159E+02 -0.11441960941E+02  0.23532490549E+02  0.00000000000E+00 0. -1.
         22    1    3    3    0    0 -0.86516133130E+01 -0.35353517958E+00  0.55983287332E+01  0.10310998237E+02  0.00000000000E+00 0.  1.
         22    1    3    3    0    0 -0.42936079508E+02  0.22951206174E+01 -0.51321527092E+03  0.51501328994E+03  0.00000000000E+00 0.  1.
</event>
<event>
 7    1  0.5977291E-006  0.1049492E+03  0.7818608E-02  0.1301340E+00
          2   -1    0    0  502    0  0.00000000000E+00  0.00000000000E+00  0.17600237148E+04  0.17600237148E+04  0.00000000000E+00 0. -1.
          1   -1    0    0  501    0 -0.00000000000E+00 -0.00000000000E+00 -0.11092385346E+03  0.11092385346E+03  0.00000000000E+00 0. -1.
         25    2    1    2    0    0 -0.76670642118E+02 -0.12789741793E+03  0.10033434671E+03  0.21892176526E+03  0.12499448507E+03 0.  0.
          2    1    1    2  501    0  0.81861412500E+02  0.49810292387E+02 -0.53189518420E+01  0.95972117477E+02  0.00000000000E+00 0. -1.
          1    1    1    2  502    0 -0.51907703824E+01  0.78087125543E+02  0.15540844664E+04  0.15560536855E+04  0.00000000000E+00 0. -1.
         22    1    3    3    0    0  0.33765576302E+02 -0.43297097978E+02  0.21084947275E+02  0.58816050853E+02  0.00000000000E+00 0.  1.
         22    1    3    3    0    0 -0.11043621842E+03 -0.84600319951E+02  0.79249399433E+02  0.16010571441E+03  0.00000000000E+00 0.  1.
</event>
<event>
 7    1  0.5977291E-006  0.2558663E+03  0.7818608E-02  0.1282977E+00
          2   -1    0    0  502    0  0.00000000000E+00  0.00000000000E+00  0.17351616775E+03  0.17351616775E+03  0.00000000000E+00 0. -1.
          1   -1    0    0  501    0 -0.00000000000E+00 -0.00000000000E+00 -0.13501018913E+04  0.13501018913E+04  0.00000000000E+00 0. -1.
         25    2    1    2    0    0  0.24139125638E+02 -0.28438360880E+03 -0.32050287970E+03  0.44699370849E+03  0.12499818078E+03 0.  0.
          2    1    1    2  501    0 -0.29473958630E+02  0.24665809770E+03 -0.94647444608E+03  0.97853094406E+03  0.00000000000E+00 0. -1.
          1    1    1    2  502    0  0.53348329924E+01  0.37725511100E+02  0.90391602269E+02  0.98093406463E+02  0.00000000000E+00 0. -1.
         22    1    3    3    0    0  0.74238595085E+02 -0.16224096131E+03 -0.16513184044E+03  0.24310907686E+03  0.00000000000E+00 0.  1.
         22    1    3    3    0    0 -0.50099469447E+02 -0.12214264749E+03 -0.15537103926E+03  0.20388463163E+03  0.00000000000E+00 0.  1.
</event>
<event>
 7    1  0.5977291E-006  0.1516739E+03  0.7818608E-02  0.1268078E+00
          2   -1    0    0  502    0  0.00000000000E+00  0.00000000000E+00  0.44936543272E+03  0.44936543272E+03  0.00000000000E+00 0. -1.
          1   -1    0    0  501    0 -0.00000000000E+00 -0.00000000000E+00 -0.76379994872E+03  0.76379994872E+03  0.00000000000E+00 0. -1.
         25    2    1    2    0    0  0.80167398286E+02  0.17324342889E+03 -0.37890619311E+03  0.44230648491E+03  0.12500010407E+03 0.  0.
          2    1    1    2  501    0 -0.15690411674E+02 -0.13664506822E+03 -0.33627250403E+03  0.36331427257E+03  0.00000000000E+00 0. -1.
          1    1    1    2  502    0 -0.64476986612E+02 -0.36598360669E+02  0.40074418113E+03  0.40754462396E+03  0.00000000000E+00 0. -1.
         22    1    3    3    0    0 -0.18327894718E+02  0.24388285736E+01 -0.43044083551E+01  0.18983875813E+02  0.00000000000E+00 0. -1.
         22    1    3    3    0    0  0.98495293004E+02  0.17080460032E+03 -0.37460178475E+03  0.42332260910E+03  0.00000000000E+00 0. -1.
</event>
<event>
 7    1  0.5977291E-006  0.6886114E+02  0.7818608E-02  0.1473537E+00
          2   -1    0    0  502    0  0.00000000000E+00  0.00000000000E+00  0.97220090164E+03  0.97220090164E+03  0.00000000000E+00 0. -1.
          1   -1    0    0  501    0 -0.00000000000E+00 -0.00000000000E+00 -0.53185690236E+03  0.53185690236E+03  0.00000000000E+00 0. -1.
         25    2    1    2    0    0 -0.39303750874E+02 -0.42204915437E+02  0.38951630369E+03  0.41313021269E+03  0.12501032789E+03 0.  0.
          2    1    1    2  501    0  0.21221031420E+02  0.65609087655E+02 -0.51737786430E+03  0.52195281303E+03  0.00000000000E+00 0. -1.
          1    1    1    2  502    0  0.18082719454E+02 -0.23404172218E+02  0.56820555989E+03  0.56897477827E+03  0.00000000000E+00 0. -1.
         22    1    3    3    0    0 -0.56129050467E+02  0.23446124900E+02  0.25922531917E+03  0.26626670309E+03  0.00000000000E+00 0.  1.
         22    1    3    3    0    0  0.16825299593E+02 -0.65651040336E+02  0.13029098453E+03  0.14686350960E+03  0.00000000000E+00 0.  1.
</event>
<event>
 7    1  0.5977291E-006  0.1150778E+03  0.7818608E-02  0.1422651E+00
          2   -1    0    0  502    0  0.00000000000E+00  0.00000000000E+00  0.17968553124E+04  0.17968553124E+04  0.00000000000E+00 0. -1.
          1   -1    0    0  501    0 -0.00000000000E+00 -0.00000000000E+00 -0.24245281891E+03  0.24245281891E+03  0.00000000000E+00 0. -1.
         25    2    1    2    0    0 -0.81788087661E+02  0.37505626900E+02 -0.18675190724E+01  0.15402634536E+03  0.12499865641E+03 0.  0.
          2    1    1    2  501    0 -0.24127784575E+02  0.90713916148E+01 -0.16153789773E+03  0.16358157763E+03  0.00000000000E+00 0. -1.
          1    1    1    2  502    0  0.10591587224E+03 -0.46577018515E+02  0.17178079103E+04  0.17217002084E+04  0.00000000000E+00 0. -1.
         22    1    3    3    0    0 -0.33762208379E+01  0.59878888534E+02  0.29278505399E+02  0.66739126737E+02  0.00000000000E+00 0.  1.
         22    1    3    3    0    0 -0.78411866823E+02 -0.22373261634E+02 -0.31146024471E+02  0.87287218624E+02  0.00000000000E+00 0.  1.
</event>
<event>
 7    1  0.5977291E-006  0.1004281E+03  0.7818608E-02  0.1316751E+00
          2   -1    0    0  502    0  0.00000000000E+00  0.00000000000E+00  0.14306847077E+04  0.14306847077E+04  0.00000000000E+00 0. -1.
          1   -1    0    0  501    0 -0.00000000000E+00 -0.00000000000E+00 -0.28838012985E+03  0.28838012985E+03  0.00000000000E+00 0. -1.
         25    2    1    2    0    0 -0.80210133224E+02 -0.13374156843E+03  0.56625656123E+02  0.20773676801E+03  0.12501050857E+03 0.  0.
          2    1    1    2  501    0  0.72942792293E+02  0.63019399929E+02 -0.20087738538E+03  0.22280893086E+03  0.00000000000E+00 0. -1.
          1    1    1    2  502    0  0.72673409306E+01  0.70722168505E+02  0.12865563071E+04  0.12885191387E+04  0.00000000000E+00 0. -1.
         22    1    3    3    0    0 -0.29671411443E+02  0.16939298007E+02 -0.97081085296E+01  0.35518725276E+02  0.00000000000E+00 0. -1.
         22    1    3    3    0    0 -0.50538721781E+02 -0.15068086644E+03  0.66333764653E+02  0.17221804274E+03  0.00000000000E+00 0. -1.
</event>
<event>
 7    1  0.5977291E-006  0.1162037E+03  0.7818608E-02  0.1297296E+00
          2   -1    0    0  502    0  0.00000000000E+00  0.00000000000E+00  0.87913875949E+03  0.87913875949E+03  0.00000000000E+00 0. -1.
          1   -1    0    0  501    0 -0.00000000000E+00 -0.00000000000E+00 -0.27538259145E+04  0.27538259145E+04  0.00000000000E+00 0. -1.
         25    2    1    2    0    0  0.55114919216E+02  0.57794427331E+02 -0.42119074501E+03  0.44656266126E+03  0.12505485437E+03 0.  0.
          2    1    1    2  501    0 -0.18213194090E+02 -0.12120643344E+03 -0.23167732328E+04  0.23200131319E+04  0.00000000000E+00 0. -1.
          1    1    1    2  502    0 -0.36901725126E+02  0.63412006109E+02  0.86327682286E+03  0.86638888077E+03  0.00000000000E+00 0. -1.
         22    1    3    3    0    0  0.93490002701E+02  0.22324125044E+02 -0.27449774874E+03  0.29083975180E+03  0.00000000000E+00 0. -1.
         22    1    3    3    0    0 -0.38375083485E+02  0.35470302286E+02 -0.14669299627E+03  0.15572290946E+03  0.00000000000E+00 0. -1.
</event>
<event>
 7    1  0.5977291E-006  0.7404913E+02  0.7818608E-02  0.1485044E+00
          2   -1    0    0  502    0  0.00000000000E+00  0.00000000000E+00  0.22283633599E+04  0.22283633599E+04  0.00000000000E+00 0. -1.
          1   -1    0    0  501    0 -0.00000000000E+00 -0.00000000000E+00 -0.10162567714E+04  0.10162567714E+04  0.00000000000E+00 0. -1.
         25    2    1    2    0    0 -0.32952502393E+02  0.85791661393E+02  0.13887523196E+02  0.15576630598E+03  0.12499680875E+03 0.  0.
          2    1    1    2  501    0  0.21939628052E+02 -0.12708812858E+02 -0.94451012638E+03  0.94485037971E+03  0.00000000000E+00 0. -1.
          1    1    1    2  502    0  0.11012874341E+02 -0.73082848534E+02  0.21427291917E+04  0.21440034456E+04  0.00000000000E+00 0. -1.
         22    1    3    3    0    0 -0.57584796938E+02  0.60979423632E+02 -0.38897174173E+02  0.92452631674E+02  0.00000000000E+00 0.  1.
         22    1    3    3    0    0  0.24632294545E+02  0.24812237761E+02  0.52784697369E+02  0.63313674302E+02  0.00000000000E+00 0.  1.
</event>
<event>
 7    1  0.5977291E-006  0.5781754E+02  0.7818608E-02  0.1419976E+00
          2   -1    0    0  502    0  0.00000000000E+00  0.00000000000E+00  0.80778909063E+02  0.80778909063E+02  0.00000000000E+00 0. -1.
          1   -1    0    0  501    0 -0.00000000000E+00 -0.00000000000E+00 -0.32910345014E+04  0.32910345014E+04  0.00000000000E+00 0. -1.
         25    2    1    2    0    0  0.40660187085E+02 -0.32511417625E+02 -0.69043989320E+03  0.70359494594E+03  0.12501343423E+03 0.  0.
          2    1    1    2  501    0 -0.56646457914E+02 -0.17358353199E+02 -0.25843948610E+04  0.25850738734E+04  0.00000000000E+00 0. -1.
          1    1    1    2  502    0  0.15986270829E+02  0.49869770825E+02  0.64579161800E+02  0.83144591140E+02  0.00000000000E+00 0. -1.
         22    1    3    3    0    0  0.78843228872E+02 -0.37951196752E+02 -0.34157789641E+03  0.35260744092E+03  0.00000000000E+00 0. -1.
         22    1    3    3    0    0 -0.38183041787E+02  0.54397791262E+01 -0.34886199679E+03  0.35098750502E+03  0.00000000000E+00 0. -1.
</event>
<event>
 7    1  0.5977291E-006  0.8537889E+02  0.7818608E-02  0.1411237E+00
          2   -1    0    0  502    0  0.00000000000E+00  0.00000000000E+00  0.11733090527E+04  0.11733090527E+04  0.00000000000E+00 0. -1.
          1   -1    0    0  501    0 -0.00000000000E+00 -0.00000000000E+00 -0.14595418846E+03  0.14595418846E+03  0.00000000000E+00 0. -1.
         25    2    1    2    0    0  0.40906406835E+01  0.69493488283E+02 -0.28405831226E+02  0.14587135657E+03  0.12500193264E+03 0.  0.
          2    1    1    2  501    0  0.24095411129E+02 -0.94898111837E+02 -0.17499673841E+02  0.99460942346E+02  0.00000000000E+00 0. -1.
          1    1    1    2  502    0 -0.28186051813E+02  0.25404623554E+02  0.10732603693E+04  0.10739309423E+04  0.00000000000E+00 0. -1.
         22    1    3    3    0    0 -0.25333088088E+02  0.70614427759E+02 -0.64747674736E+02  0.99098053177E+02  0.00000000000E+00 0.  1.
         22    1    3    3    0    0  0.29423728772E+02 -0.11209394758E+01  0.36341843510E+02  0.46773303388E+02  0.00000000000E+00 0.  1.
</event>
<event>
 7    1  0.5977291E-006  0.7037757E+02  0.7818608E-02  0.1370052E+00
          2   -1    0    0  502    0  0.00000000000E+00  0.00000000000E+00  0.22238771208E+03  0.22238771208E+03  0.00000000000E+00 0. -1.
          1   -1    0    0  501    0 -0.00000000000E+00 -0.00000000000E+00 -0.19255680133E+04  0.19255680133E+04  0.00000000000E+00 0. -1.
         25    2    1    2    0    0  0.75074428907E+01 -0.78583311319E+01  0.40450584514E+02  0.13182792943E+03  0.12499695245E+03 0.  0.
          2    1    1    2  501    0 -0.78869913464E+01 -0.69934235237E+02 -0.18680580570E+04  0.18693832957E+04  0.00000000000E+00 0. -1.
          1    1    1    2  502    0  0.37954845574E+00  0.77792566369E+02  0.12442717121E+03  0.14674450032E+03  0.00000000000E+00 0. -1.
         22    1    3    3    0    0  0.59599321111E+02  0.24069594734E+02  0.18180924855E+02  0.66797982725E+02  0.00000000000E+00 0. -1.
         22    1    3    3    0    0 -0.52091878220E+02 -0.31927925866E+02  0.22269659659E+02  0.65029946701E+02  0.00000000000E+00 0. -1.
</event>
<event>
 7    1  0.5977291E-006  0.3395833E+03  0.7818608E-02  0.1270032E+00
          2   -1    0    0  502    0  0.00000000000E+00  0.00000000000E+00  0.17651876957E+04  0.17651876957E+04  0.00000000000E+00 0. -1.
          1   -1    0    0  501    0 -0.00000000000E+00 -0.00000000000E+00 -0.12329327034E+04  0.12329327034E+04  0.00000000000E+00 0. -1.
         25    2    1    2    0    0 -0.25920614735E+03 -0.26013064592E+03 -0.15216712780E+02  0.38821856794E+03  0.12500531339E+03 0.  0.
          2    1    1    2  501    0  0.13066744777E+02  0.29750578238E+02 -0.10129525043E+04  0.10134735382E+04  0.00000000000E+00 0. -1.
          1    1    1    2  502    0  0.24613940258E+03  0.23038006768E+03  0.15604242094E+04  0.15964282929E+04  0.00000000000E+00 0. -1.
         22    1    3    3    0    0 -0.15321365607E+03 -0.19632449093E+03 -0.60841224248E+02  0.25635792306E+03  0.00000000000E+00 0.  1.
         22    1    3    3    0    0 -0.10599249128E+03 -0.63806154985E+02  0.45624511468E+02  0.13186064488E+03  0.00000000000E+00 0.  1.
</event>
<event>
 7    1  0.5977291E-006  0.5094549E+02  0.7818608E-02  0.1463428E+00
          2   -1    0    0  502    0  0.00000000000E+00  0.00000000000E+00  0.11057855665E+04  0.11057855665E+04  0.00000000000E+00 0. -1.
          1   -1    0    0  501    0 -0.00000000000E+00 -0.00000000000E+00 -0.19944026713E+04  0.19944026713E+04  0.00000000000E+00 0. -1.
         25    2    1    2    0    0  0.89047189810E+02 -0.15528991411E+02  0.11791290992E+03  0.19416209036E+03  0.12499964567E+03 0.  0.
          2    1    1    2  501    0 -0.50716084169E+02 -0.39258367440E+01 -0.19554607762E+04  0.19561222816E+04  0.00000000000E+00 0. -1.
          1    1    1    2  502    0 -0.38331105642E+02  0.19454828155E+02  0.94893076158E+03  0.94990386580E+03  0.00000000000E+00 0. -1.
         22    1    3    3    0    0  0.10284672702E+03  0.77194954460E+01  0.38189730366E+02  0.10997952252E+03  0.00000000000E+00 0.  1.
         22    1    3    3    0    0 -0.13799537210E+02 -0.23248486857E+02  0.79723179557E+02  0.84182567834E+02  0.00000000000E+00 0.  1.
</event>
<event>
 7    1  0.5977291E-006  0.9050940E+02  0.7818608E-02  0.1365421E+00
          2   -1    0    0  502    0  0.00000000000E+00  0.00000000000E+00  0.16003567608E+04  0.16003567608E+04  0.00000000000E+00 0. -1.
          1   -1    0    0  501    0 -0.00000000000E+00 -0.00000000000E+00 -0.22420433690E+03  0.22420433690E+03  0.00000000000E+00 0. -1.
         25    2    1    2    0    0 -0.38234296510E+02  0.15698553140E+02 -0.23631679709E+02  0.13375739966E+03  0.12499711867E+03 0.  0.
          2    1    1    2  501    0 -0.36847068677E+02  0.36375754245E+02 -0.13950567739E+03  0.14880435474E+03  0.00000000000E+00 0. -1.
          1    1    1    2  502    0  0.75081365187E+02 -0.52074307385E+02  0.15392897810E+04  0.15419993433E+04  0.00000000000E+00 0. -1.
         22    1    3    3    0    0  0.35665261448E+02  0.17124828812E+02 -0.41892629072E+02  0.57621723391E+02  0.00000000000E+00 0. -1.
         22    1    3    3    0    0 -0.73899557957E+02 -0.14262756727E+01  0.18260949363E+02  0.76135676264E+02  0.00000000000E+00 0. -1.
</event>
<event>
 7    1  0.5977291E-006  0.9458457E+02  0.7818608E-02  0.1336626E+00
          2   -1    0    0  502    0  0.00000000000E+00  0.00000000000E+00  0.35986433419E+03  0.35986433419E+03  0.00000000000E+00 0. -1.
          1   -1    0    0  501    0 -0.00000000000E+00 -0.00000000000E+00 -0.12578428333E+04  0.12578428333E+04  0.00000000000E+00 0. -1.
         25    2    1    2    0    0  0.21937306013E+02  0.37237799202E+02 -0.90144272578E+03  0.91108870639E+03  0.12496297040E+03 0.  0.
          2    1    1    2  501    0  0.63117442658E+02  0.50719972532E+01 -0.34226619229E+03  0.34807424942E+03  0.00000000000E+00 0. -1.
          1    1    1    2  502    0 -0.85054748671E+02 -0.42309796455E+02  0.34573041895E+03  0.35854421169E+03  0.00000000000E+00 0. -1.
         22    1    3    3    0    0 -0.32628480608E+02  0.28866891209E+02 -0.72277998865E+03  0.72409172564E+03  0.00000000000E+00 0. -1.
         22    1    3    3    0    0  0.54565786621E+02  0.83709079934E+01 -0.17866273713E+03  0.18699698075E+03  0.00000000000E+00 0. -1.
</event>
<event>
 7    1  0.5977291E-006  0.1477326E+03  0.7818608E-02  0.1325515E+00
          2   -1    0    0  502    0  0.00000000000E+00  0.00000000000E+00  0.54958157427E+03  0.54958157427E+03  0.00000000000E+00 0. -1.
          1   -1    0    0  501    0 -0.00000000000E+00 -0.00000000000E+00 -0.29412511848E+03  0.29412511848E+03  0.00000000000E+00 0. -1.
         25    2    1    2    0    0 -0.10703378762E+03  0.44811855497E+01 -0.59610056685E+02  0.17509030004E+03  0.12500776614E+03 0.  0.
          2    1    1    2  501    0 -0.44691947601E+02  0.61921038859E+00 -0.16196077015E+03  0.16801501323E+03  0.00000000000E+00 0. -1.
          1    1    1    2  502    0  0.15172573522E+03 -0.51003959383E+01  0.47702728263E+03  0.50060137948E+03  0.00000000000E+00 0. -1.
         22    1    3    3    0    0  0.21640147452E+02  0.17871366290E+01 -0.39155006936E+02  0.44772808793E+02  0.00000000000E+00 0. -1.
         22    1    3    3    0    0 -0.12867393507E+03  0.26940489207E+01 -0.20455049749E+02  0.13031749125E+03  0.00000000000E+00 0. -1.
</event>
<event>
 7    1  0.5977291E-006  0.1100420E+03  0.7818608E-02  0.1262882E+00
          2   -1    0    0  502    0  0.00000000000E+00  0.00000000000E+00  0.89421301348E+02  0.89421301348E+02  0.00000000000E+00 0. -1.
          1   -1    0    0  501    0 -0.00000000000E+00 -0.00000000000E+00 -0.16786823003E+04  0.16786823003E+04  0.00000000000E+00 0. -1.
         25    2    1    2    0    0  0.16140226057E+02 -0.31742198129E+02 -0.62451747452E+03  0.63790919504E+03  0.12505195358E+03 0.  0.
          2    1    1    2  501    0  0.10010123627E+03  0.39175738912E+02 -0.10021175515E+04  0.10078663518E+04  0.00000000000E+00 0. -1.
          1    1    1    2  502    0 -0.11624146233E+03 -0.74335407831E+01  0.37374027088E+02  0.12232805481E+03  0.00000000000E+00 0. -1.
         22    1    3    3    0    0  0.21349728843E+02  0.43167153407E+02 -0.35035939129E+03  0.35365366833E+03  0.00000000000E+00 0. -1.
         22    1    3    3    0    0 -0.52095027859E+01 -0.74909351535E+02 -0.27415808323E+03  0.28425552671E+03  0.00000000000E+00 0. -1.
</event>
<event>
 7    1  0.5977291E-006  0.8104484E+02  0.7818608E-02  0.1378551E+00
          2   -1    0    0  502    0  0.00000000000E+00  0.00000000000E+00  0.16700816866E+04  0.16700816866E+04  0.00000000000E+00 0. -1.
          1   -1    0    0  501    0 -0.00000000000E+00 -0.00000000000E+00 -0.39851026442E+02  0.39851026442E+02  0.00000000000E+00 0. -1.
         25    2    1    2    0    0 -0.34094046245E+02  0.76852273348E+02  0.14290802286E+04  0.14369984959E+04  0.12500280591E+03 0.  0.
          2    1    1    2  501    0  0.51417139826E+02  0.69531640281E+01 -0.25912314942E+01  0.51949814615E+02  0.00000000000E+00 0. -1.
          1    1    1    2  502    0 -0.17323093582E+02 -0.83805437376E+02  0.20374166308E+03  0.22098440257E+03  0.00000000000E+00 0. -1.
         22    1    3    3    0    0 -0.66244303436E+01 -0.18026169864E+02  0.39593398915E+02  0.44005262355E+02  0.00000000000E+00 0.  1.
         22    1    3    3    0    0 -0.27469615901E+02  0.94878443212E+02  0.13894868297E+04  0.13929932335E+04  0.00000000000E+00 0.  1.
</event>
<event>
 7    1  0.5977291E-006  0.2205396E+03  0.7818608E-02  0.1136335E+00
          2   -1    0    0  502    0  0.00000000000E+00  0.00000000000E+00  0.17497974888E+04  0.17497974888E+04  0.00000000000E+00 0. -1.
          1   -1    0    0  501    0 -0.00000000000E+00 -0.00000000000E+00 -0.16619425052E+04  0.16619425052E+04  0.00000000000E+00 0. -1.
         25    2    1    2    0    0 -0.32031710700E+03 -0.21863767343E+03  0.28174823909E+03  0.49539105151E+03  0.12499896961E+03 0.  0.
          2    1    1    2  501    0  0.10944960799E+03  0.18848543049E+03 -0.15390620918E+04  0.15544188936E+04  0.00000000000E+00 0. -1.
          1    1    1    2  502    0  0.21086749901E+03  0.30152242947E+02  0.13451688363E+04  0.13619300489E+04  0.00000000000E+00 0. -1.
         22    1    3    3    0    0 -0.10661664204E+03 -0.14594132830E+03  0.14262772168E+03  0.23023606724E+03  0.00000000000E+00 0.  1.
         22    1    3    3    0    0 -0.21370046496E+03 -0.72696345136E+02  0.13912051741E+03  0.26515498427E+03  0.00000000000E+00 0.  1.
</event>
<event>
 7    1  0.5977291E-006  0.7782834E+02  0.7818608E-02  0.1449189E+00
          2   -1    0    0  502    0  0.00000000000E+00  0.00000000000E+00  0.22670906313E+04  0.22670906313E+04  0.00000000000E+00 0. -1.
          1   -1    0    0  501    0 -0.00000000000E+00 -0.00000000000E+00 -0.60750627394E+03  0.60750627394E+03  0.00000000000E+00 0. -1.
         25    2    1    2    0    0 -0.60145479746E+02 -0.27721811343E+02  0.33001245846E+03  0.35905425745E+03  0.12500303794E+03 0.  0.
          2    1    1    2  501    0  0.70318050921E+01 -0.30418649376E+02 -0.59176729908E+03  0.59259031107E+03  0.00000000000E+00 0. -1.
          1    1    1    2  502    0  0.53113674654E+02  0.58140460719E+02  0.19213391980E+04  0.19229523367E+04  0.00000000000E+00 0. -1.
         22    1    3    3    0    0  0.14287262902E+02 -0.58971824868E+02  0.13652810726E+03  0.14940457183E+03  0.00000000000E+00 0.  1.
         22    1    3    3    0    0 -0.74432742648E+02  0.31250013525E+02  0.19348435120E+03  0.20964968562E+03  0.00000000000E+00 0.  1.
</event>
<event>
 7    1  0.5977291E-006  0.8380911E+02  0.7818608E-02  0.1443568E+00
          2   -1    0    0  502    0  0.00000000000E+00  0.00000000000E+00  0.11824804296E+04  0.11824804296E+04  0.00000000000E+00 0. -1.
          1   -1    0    0  501    0 -0.00000000000E+00 -0.00000000000E+00 -0.17979221401E+04  0.17979221401E+04  0.00000000000E+00 0. -1.
         25    2    1    2    0    0 -0.10971919795E+03 -0.62758562435E+01 -0.53558697354E+02  0.17484603903E+03  0.12499965813E+03 0.  0.
          2    1    1    2  501    0  0.26633323096E+02  0.14290885185E+02 -0.16820311123E+04  0.16823026559E+04  0.00000000000E+00 0. -1.
          1    1    1    2  502    0  0.83085874850E+02 -0.80150289416E+01  0.11201480991E+04  0.11232538748E+04  0.00000000000E+00 0. -1.
         22    1    3    3    0    0 -0.81723945351E+02 -0.49689664252E+02  0.62118279116E+01  0.95845984701E+02  0.00000000000E+00 0.  1.
         22    1    3    3    0    0 -0.27995252595E+02  0.43413808009E+02 -0.59770525266E+02  0.79000054330E+02  0.00000000000E+00 0.  1.
</event>
<event>
 7    1  0.5977291E-006  0.1019888E+03  0.7818608E-02  0.1404073E+00
          2   -1    0    0  502    0  0.00000000000E+00  0.00000000000E+00  0.11424437481E+04  0.11424437481E+04  0.00000000000E+00 0. -1.
          1   -1    0    0  501    0 -0.00000000000E+00 -0.00000000000E+00 -0.19338810923E+03  0.19338810923E+03  0.00000000000E+00 0. -1.
         25    2    1    2    0    0 -0.89032743218E+02  0.38953431932E+02 -0.13844571992E+03  0.21032016725E+03  0.12499262443E+03 0.  0.
          2    1    1    2  501    0 -0.12790456803E+02 -0.31068426205E+02  0.37661996882E+00  0.33600368074E+02  0.00000000000E+00 0. -1.
          1    1    1    2  502    0  0.10182320002E+03 -0.78850057274E+01  0.10871247388E+04  0.10919113220E+04  0.00000000000E+00 0. -1.
         22    1    3    3    0    0 -0.54138545641E+02 -0.42755099008E+02 -0.52332375179E+02  0.86589018398E+02  0.00000000000E+00 0.  1.
         22    1    3    3    0    0 -0.34894197577E+02  0.81708530940E+02 -0.86113344741E+02  0.12373114885E+03  0.00000000000E+00 0.  1.
</event>
<event>
 7    1  0.5977291E-006  0.2005869E+03  0.7818608E-02  0.1240054E+00
          2   -1    0    0  502    0  0.00000000000E+00  0.00000000000E+00  0.18007320088E+04  0.18007320088E+04  0.00000000000E+00 0. -1.
          1   -1    0    0  501    0 -0.00000000000E+00 -0.00000000000E+00 -0.78370767207E+03  0.78370767207E+03  0.00000000000E+00 0. -1.
         25    2    1    2    0    0  0.10664755379E+03  0.22799412635E+03  0.10345033314E+03  0.29947007201E+03  0.12500132089E+03 0.  0.
          2    1    1    2  501    0  0.15443027097E+02 -0.72407752979E+02 -0.67755939163E+03  0.68159232608E+03  0.00000000000E+00 0. -1.
          1    1    1    2  502    0 -0.12209058088E+03 -0.15558637337E+03  0.15911333952E+04  0.16033772828E+04  0.00000000000E+00 0. -1.
         22    1    3    3    0    0  0.96114393616E+02  0.98206141861E+02  0.73064646592E+01  0.13760743943E+03  0.00000000000E+00 0. -1.
         22    1    3    3    0    0  0.10533160171E+02  0.12978798449E+03  0.96143868477E+02  0.16186263259E+03  0.00000000000E+00 0. -1.
</event>
<event>
 7    1  0.5977291E-006  0.8953735E+02  0.7818608E-02  0.1337413E+00
          2   -1    0    0  502    0  0.00000000000E+00  0.00000000000E+00  0.71304297635E+03  0.71304297635E+03  0.00000000000E+00 0. -1.
          1   -1    0    0  501    0 -0.00000000000E+00 -0.00000000000E+00 -0.32499805634E+03  0.32499805634E+03  0.00000000000E+00 0. -1.
         25    2    1    2    0    0  0.12566844350E+03 -0.15649818504E+01 -0.27131563265E+02  0.17932111591E+03  0.12499973611E+03 0.  0.
          2    1    1    2  501    0 -0.75992521291E+02 -0.42545621792E+02 -0.21139699877E+03  0.22863439005E+03  0.00000000000E+00 0. -1.
          1    1    1    2  502    0 -0.49675922206E+02  0.44110603642E+02  0.62657348204E+03  0.63008552674E+03  0.00000000000E+00 0. -1.
         22    1    3    3    0    0  0.35152308817E+02  0.33949871220E+02  0.38326743123E+02  0.62106503761E+02  0.00000000000E+00 0. -1.
         22    1    3    3    0    0  0.90516134680E+02 -0.35514853071E+02 -0.65458306387E+02  0.11721461215E+03  0.00000000000E+00 0. -1.
</event>
<event>
 7    1  0.5977291E-006  0.9373129E+02  0.7818608E-02  0.1309887E+00
          2   -1    0    0  502    0  0.00000000000E+00  0.00000000000E+00  0.29792579287E+03  0.29792579287E+03  0.00000000000E+00 0. -1.
          1   -1    0    0  501    0 -0.00000000000E+00 -0.00000000000E+00 -0.54558691939E+03  0.54558691939E+03  0.00000000000E+00 0. -1.
         25    2    1    2    0    0 -0.66601768446E+02 -0.70702157866E+01  0.13030394390E+03  0.19258348023E+03  0.12499398205E+03 0.  0.
          2    1    1    2  501    0 -0.46104320872E+02  0.66651183539E+02 -0.48052452116E+03  0.48731078800E+03  0.00000000000E+00 0. -1.
          1    1    1    2  502    0  0.11270608932E+03 -0.59580967752E+02  0.10255945074E+03  0.16361844402E+03  0.00000000000E+00 0. -1.
         22    1    3    3    0    0 -0.10142958830E+03 -0.17567164197E+01  0.71773215596E+02  0.12426762214E+03  0.00000000000E+00 0. -1.
         22    1    3    3    0    0  0.34827819849E+02 -0.53134993670E+01  0.58530728306E+02  0.68315858093E+02  0.00000000000E+00 0. -1.
</event>
<event>
 7    1  0.5977291E-006  0.1253963E+03  0.7818608E-02  0.1401210E+00
          2   -1    0    0  502    0  0.00000000000E+00  0.00000000000E+00  0.57546850439E+03  0.57546850439E+03  0.00000000000E+00 0. -1.
          1   -1    0    0  501    0 -0.00000000000E+00 -0.00000000000E+00 -0.12437559365E+03  0.12437559365E+03  0.00000000000E+00 0. -1.
         25    2    1    2    0    0  0.13699147498E+03 -0.55847495547E+02  0.15064563286E+03  0.24536734443E+03  0.12500168013E+03 0.  0.
          2    1    1    2  501    0 -0.11060041834E+03  0.46641183098E+02 -0.29291847943E+02  0.12355510857E+03  0.00000000000E+00 0. -1.
          1    1    1    2  502    0 -0.26391056639E+02  0.92063124490E+01  0.32973912582E+03  0.33092164504E+03  0.00000000000E+00 0. -1.
         22    1    3    3    0    0 -0.76689769004E+01 -0.47871754039E+02  0.31824236790E+02  0.57993965968E+02  0.00000000000E+00 0. -1.
         22    1    3    3    0    0  0.14466045188E+03 -0.79757415073E+01  0.11882139607E+03  0.18737337846E+03  0.00000000000E+00 0. -1.
</event>
<event>
 7    1  0.5977291E-006  0.1381156E+03  0.7818608E-02  0.1283291E+00
          2   -1    0    0  502    0  0.00000000000E+00  0.00000000000E+00  0.53592055094E+03  0.53592055094E+03  0.00000000000E+00 0. -1.
          1   -1    0    0  501    0 -0.00000000000E+00 -0.00000000000E+00 -0.22782571474E+03  0.22782571474E+03  0.00000000000E+00 0. -1.
         25    2    1    2    0    0  0.64433749616E+02  0.10174517043E+03  0.85616378260E+02  0.19354212162E+03  0.12499840326E+03 0.  0.
          2    1    1    2  501    0 -0.12702893633E+03 -0.69582417569E+02 -0.13971205566E+03  0.20123996123E+03  0.00000000000E+00 0. -1.
          1    1    1    2  502    0  0.62595186714E+02 -0.32162752865E+02  0.36219051360E+03  0.36896418283E+03  0.00000000000E+00 0. -1.
         22    1    3    3    0    0 -0.99231790750E+01  0.10536510491E+02 -0.27016378486E+02  0.30649180132E+02  0.00000000000E+00 0. -1.
         22    1    3    3    0    0  0.74356928691E+02  0.91208659943E+02  0.11263275675E+03  0.16289294148E+03  0.00000000000E+00 0. -1.
</event>
<event>
 7    1  0.5977291E-006  0.1891339E+03  0.7818608E-02  0.1337709E+00
          2   -1    0    0  502    0  0.00000000000E+00  0.00000000000E+00  0.21435585638E+04  0.21435585638E+04  0.00000000000E+00 0. -1.
          1   -1    0    0  501    0 -0.00000000000E+00 -0.00000000000E+00 -0.17663480889E+03  0.17663480889E+03  0.00000000000E+00 0. -1.
         25    2    1    2    0    0 -0.12861750999E+03  0.15978539572E+03  0.77615348088E+03  0.81247273452E+03  0.12499552753E+03 0.  0.
          2    1    1    2  501    0  0.13653046307E+03 -0.12943046715E+03 -0.10238450657E+03  0.21418543452E+03  0.00000000000E+00 0. -1.
          1    1    1    2  502    0 -0.79129530857E+01 -0.30354928575E+02  0.12931547806E+04  0.12935352037E+04  0.00000000000E+00 0. -1.
         22    1    3    3    0    0  0.21655023165E+02  0.17935545211E+02  0.48668621323E+02  0.56207281661E+02  0.00000000000E+00 0.  1.
         22    1    3    3    0    0 -0.15027253315E+03  0.14184985051E+03  0.72748485956E+03  0.75626545286E+03  0.00000000000E+00 0.  1.
</event>
<event>
 7    1  0.5977291E-006  0.1053775E+03  0.7818608E-02  0.1409179E+00
          2   -1    0    0  502    0  0.00000000000E+00  0.00000000000E+00  0.15350913803E+03  0.15350913803E+03  0.00000000000E+00 0. -1.
          1   -1    0    0  501    0 -0.00000000000E+00 -0.00000000000E+00 -0.92623777554E+03  0.92623777554E+03  0.00000000000E+00 0. -1.
         25    2    1    2    0    0  0.12605773145E+03  0.11334093109E+02 -0.56834388554E+03  0.59553415313E+03  0.12500856765E+03 0.  0.
          2    1    1    2  501    0 -0.21894402817E+02 -0.22286261048E+02 -0.32383989030E+03  0.32534338299E+03  0.00000000000E+00 0. -1.
          1    1    1    2  502    0 -0.10416332863E+03  0.10952167939E+02  0.11945513834E+03  0.15886937745E+03  0.00000000000E+00 0. -1.
         22    1    3    3    0    0  0.11791815560E+03  0.32652884214E+02 -0.27129795085E+03  0.29761297082E+03  0.00000000000E+00 0. -1.
         22    1    3    3    0    0  0.81395758540E+01 -0.21318791105E+02 -0.29704593470E+03  0.29792118231E+03  0.00000000000E+00 0. -1.
</event>
<event>
 7    1  0.5977291E-006  0.4617611E+02  0.7818608E-02  0.1506166E+00
          2   -1    0    0  502    0  0.00000000000E+00  0.00000000000E+00  0.71511940115E+02  0.71511940115E+02  0.00000000000E+00 0. -1.
          1   -1    0    0  501    0 -0.00000000000E+00 -0.00000000000E+00 -0.55457477390E+03  0.55457477390E+03  0.00000000000E+00 0. -1.
         25    2    1    2    0    0 -0.33608950983E+02  0.30059102514E+01 -0.32499389616E+03  0.34983478535E+03  0.12499898967E+03 0.  0.
          2    1    1    2  501    0  0.34248611056E+02 -0.38135631520E+02 -0.20854469864E+03  0.21475144954E+03  0.00000000000E+00 0. -1.
          1    1    1    2  502    0 -0.63966007262E+00  0.35129721269E+02  0.50475761016E+02  0.61500479116E+02  0.00000000000E+00 0. -1.
         22    1    3    3    0    0  0.17800450438E+02  0.35328239545E+02 -0.32774263761E+02  0.51372102451E+02  0.00000000000E+00 0. -1.
         22    1    3    3    0    0 -0.51409401422E+02 -0.32322329294E+02 -0.29221963240E+03  0.29846268290E+03  0.00000000000E+00 0. -1.
</event>
<event>
 7    1  0.5977291E-006  0.9933298E+02  0.7818608E-02  0.1411756E+00
          2   -1    0    0  502    0  0.00000000000E+00  0.00000000000E+00  0.94621232528E+03  0.94621232528E+03  0.00000000000E+00 0. -1.
          1   -1    0    0  501    0 -0.00000000000E+00 -0.00000000000E+00 -0.10607166230E+04  0.10607166230E+04  0.00000000000E+00 0. -1.
         25    2    1    2    0    0 -0.10303572725E+02 -0.94826403915E+02 -0.60331002723E+03  0.62346284521E+03  0.12499887963E+03 0.  0.
          2    1    1    2  501    0  0.32418349868E+02 -0.20539613036E+01 -0.44409817678E+03  0.44528458180E+03  0.00000000000E+00 0. -1.
          1    1    1    2  502    0 -0.22114777144E+02  0.96880365219E+02  0.93290390628E+03  0.93818152128E+03  0.00000000000E+00 0. -1.
         22    1    3    3    0    0  0.28984982581E+02  0.99517867975E+01 -0.47700722864E+02  0.56696792127E+02  0.00000000000E+00 0.  1.
         22    1    3    3    0    0 -0.39288555306E+02 -0.10477819071E+03 -0.55560930437E+03  0.56676605308E+03  0.00000000000E+00 0.  1.
</event>
<event>
 7    1  0.5977291E-006  0.8960648E+02  0.7818608E-02  0.1361430E+00
          2   -1    0    0  502    0  0.00000000000E+00  0.00000000000E+00  0.18081707114E+03  0.18081707114E+03  0.00000000000E+00 0. -1.
          1   -1    0    0  501    0 -0.00000000000E+00 -0.00000000000E+00 -0.15355393417E+03  0.15355393417E+03  0.00000000000E+00 0. -1.
         25    2    1    2    0    0 -0.43297566820E+02 -0.45497138955E+02  0.88296663555E+01  0.14017160314E+03  0.12500178548E+03 0.  0.
          2    1    1    2  501    0 -0.53336150933E+02  0.88982940151E+01 -0.47207651507E+02  0.71780826086E+02  0.00000000000E+00 0. -1.
          1    1    1    2  502    0  0.96633717754E+02  0.36598844940E+02  0.65641122125E+02  0.12241857609E+03  0.00000000000E+00 0. -1.
         22    1    3    3    0    0 -0.61507102262E+02 -0.14171130339E+02 -0.43403120036E+02  0.76601405944E+02  0.00000000000E+00 0.  1.
         22    1    3    3    0    0  0.18209535442E+02 -0.31326008616E+02  0.52232786392E+02  0.63570197193E+02  0.00000000000E+00 0.  1.
</event>
<event>
 7    1  0.5977291E-006  0.4690216E+02  0.7818608E-02  0.1535185E+00
          2   -1    0    0  502    0  0.00000000000E+00  0.00000000000E+00  0.44072841446E+02  0.44072841446E+02  0.00000000000E+00 0. -1.
          1   -1    0    0  501    0 -0.00000000000E+00 -0.00000000000E+00 -0.87483367467E+03  0.87483367467E+03  0.00000000000E+00 0. -1.
         25    2    1    2    0    0 -0.10456130658E+02 -0.43819278677E+02 -0.14729720620E+03  0.19837677827E+03  0.12500967702E+03 0.  0.
          2    1    1    2  501    0  0.35800905360E+02  0.30795692478E+02 -0.68973742083E+03  0.69135214558E+03  0.00000000000E+00 0. -1.
          1    1    1    2  502    0 -0.25344774702E+02  0.13023586199E+02  0.62737938046E+01  0.29177592273E+02  0.00000000000E+00 0. -1.
         22    1    3    3    0    0 -0.19226335421E+02  0.36555846683E+02 -0.90765083883E+02  0.99721022622E+02  0.00000000000E+00 0. -1.
         22    1    3    3    0    0  0.87702047637E+01 -0.80375125360E+02 -0.56532122316E+02  0.98655755644E+02  0.00000000000E+00 0. -1.
</event>
<event>
 7    1  0.5977291E-006  0.9172871E+02  0.7818608E-02  0.1333398E+00
          2   -1    0    0  502    0  0.00000000000E+00  0.00000000000E+00  0.34179769218E+04  0.34179769218E+04  0.00000000000E+00 0. -1.
          1   -1    0    0  501    0 -0.00000000000E+00 -0.00000000000E+00 -0.21297422274E+04  0.21297422274E+04  0.00000000000E+00 0. -1.
         25    2    1    2    0    0 -0.87989201194E+01  0.11419433164E+03 -0.40119996816E+03  0.43555009229E+03  0.12499880828E+03 0.  0.
          2    1    1    2  501    0  0.56710535069E+02 -0.35974531102E+02 -0.17100894520E+04  0.17114076620E+04  0.00000000000E+00 0. -1.
          1    1    1    2  502    0 -0.47911614950E+02 -0.78219800540E+02  0.33995241145E+04  0.34007613949E+04  0.00000000000E+00 0. -1.
         22    1    3    3    0    0 -0.28852301971E+02  0.10030089616E+03 -0.39737960281E+03  0.41085675585E+03  0.00000000000E+00 0.  1.
         22    1    3    3    0    0  0.20053381852E+02  0.13893435483E+02 -0.38203653502E+01  0.24693336442E+02  0.00000000000E+00 0.  1.
</event>
<event>
 7    1  0.5977291E-006  0.9632782E+02  0.7818608E-02  0.1447401E+00
          2   -1    0    0  502    0  0.00000000000E+00  0.00000000000E+00  0.16355049627E+04  0.16355049627E+04  0.00000000000E+00 0. -1.
          1   -1    0    0  501    0 -0.00000000000E+00 -0.00000000000E+00 -0.91056143028E+02  0.91056143028E+02  0.00000000000E+00 0. -1.
         25    2    1    2    0    0 -0.17090991241E+02 -0.90456753722E+02  0.42173130125E+03  0.44939627976E+03  0.12500079814E+03 0.  0.
          2    1    1    2  501    0  0.24696224277E+02 -0.65894686766E+01 -0.73075219170E+02  0.77416485633E+02  0.00000000000E+00 0. -1.
          1    1    1    2  502    0 -0.76052330358E+01  0.97046222398E+02  0.11957927376E+04  0.11997483403E+04  0.00000000000E+00 0. -1.
         22    1    3    3    0    0 -0.65468978995E+02 -0.57399964971E+02  0.32354669728E+03  0.33505732123E+03  0.00000000000E+00 0. -1.
         22    1    3    3    0    0  0.48377987754E+02 -0.33056788751E+02  0.98184603966E+02  0.11433895853E+03  0.00000000000E+00 0. -1.
</event>
<event>
 7    1  0.5977291E-006  0.8637766E+02  0.7818608E-02  0.1375245E+00
          2   -1    0    0  502    0  0.00000000000E+00  0.00000000000E+00  0.10587962489E+04  0.10587962489E+04  0.00000000000E+00 0. -1.
          1   -1    0    0  501    0 -0.00000000000E+00 -0.00000000000E+00 -0.77200067500E+03  0.77200067500E+03  0.00000000000E+00 0. -1.
         25    2    1    2    0    0 -0.49083866421E+02 -0.67085976507E+02  0.23802140455E+02  0.15199197475E+03  0.12500105724E+03 0.  0.
          2    1    1    2  501    0  0.81822088162E+02  0.29269905494E+02 -0.70459046355E+03  0.70992908294E+03  0.00000000000E+00 0. -1.
          1    1    1    2  502    0 -0.32738221740E+02  0.37816071013E+02  0.96758389701E+03  0.96887586622E+03  0.00000000000E+00 0. -1.
         22    1    3    3    0    0 -0.77382349623E+02 -0.76059532024E+01  0.34841767827E+02  0.85204620430E+02  0.00000000000E+00 0.  1.
         22    1    3    3    0    0  0.28298483202E+02 -0.59480023305E+02 -0.11039627372E+02  0.66787354315E+02  0.00000000000E+00 0.  1.
</event>
<event>
 7    1  0.5977291E-006  0.3537541E+02  0.7818608E-02  0.1629479E+00
          2   -1    0    0  502    0  0.00000000000E+00  0.00000000000E+00  0.72741180713E+02  0.72741180713E+02  0.00000000000E+00 0. -1.
          1   -1    0    0  501    0 -0.00000000000E+00 -0.00000000000E+00 -0.24243910768E+03  0.24243910768E+03  0.00000000000E+00 0. -1.
         25    2    1    2    0    0 -0.19205296543E+02 -0.37631632035E+02 -0.12626438577E+03  0.18263224859E+03  0.12500743964E+03 0.  0.
          2    1    1    2  501    0  0.29447153191E+02  0.19146829306E+02 -0.81646306638E+02  0.88881130119E+02  0.00000000000E+00 0. -1.
          1    1    1    2  502    0 -0.10241856648E+02  0.18484802729E+02  0.38212765439E+02  0.43666909692E+02  0.00000000000E+00 0. -1.
         22    1    3    3    0    0 -0.19917352075E+02  0.36306976678E+02 -0.65538161849E+01  0.41926721501E+02  0.00000000000E+00 0.  1.
         22    1    3    3    0    0  0.71205553232E+00 -0.73938608714E+02 -0.11971056959E+03  0.14070552709E+03  0.00000000000E+00 0.  1.
</event>
<event>
 7    1  0.5977291E-006  0.1478204E+03  0.7818608E-02  0.1343961E+00
          2   -1    0    0  502    0  0.00000000000E+00  0.00000000000E+00  0.16185811797E+04  0.16185811797E+04  0.00000000000E+00 0. -1.
          1   -1    0    0  501    0 -0.00000000000E+00 -0.00000000000E+00 -0.38829600490E+03  0.38829600490E+03  0.00000000000E+00 0. -1.
         25    2    1    2    0    0 -0.11127730386E+03 -0.60275612174E+02  0.72434413226E+03  0.74586520916E+03  0.12499880207E+03 0.  0.
          2    1    1    2  501    0 -0.37587129967E+02 -0.57427480920E+01 -0.36904617500E+03  0.37099979889E+03  0.00000000000E+00 0. -1.
          1    1    1    2  502    0  0.14886443382E+03  0.66018360266E+02  0.87498721757E+03  0.89001217658E+03  0.00000000000E+00 0. -1.
         22    1    3    3    0    0 -0.11903794400E+03 -0.43965953541E+02  0.37180782328E+03  0.39286650994E+03  0.00000000000E+00 0.  1.
         22    1    3    3    0    0  0.77606401415E+01 -0.16309658632E+02  0.35253630898E+03  0.35299869922E+03  0.00000000000E+00 0.  1.
</event>
<event>
 7    1  0.5977291E-006  0.1897997E+03  0.7818608E-02  0.1212899E+00
          2   -1    0    0  502    0  0.00000000000E+00  0.00000000000E+00  0.91366647441E+02  0.91366647441E+02  0.00000000000E+00 0. -1.
          1   -1    0    0  501    0 -0.00000000000E+00 -0.00000000000E+00 -0.16776830701E+04  0.16776830701E+04  0.00000000000E+00 0. -1.
         25    2    1    2    0    0  0.44637827740E+01  0.18416913274E+03 -0.81096297169E+03  0.84096620086E+03  0.12500005887E+03 0.  0.
          2    1    1    2  501    0  0.99249884977E+02 -0.18184248513E+03 -0.79582165840E+03  0.82234380951E+03  0.00000000000E+00 0. -1.
          1    1    1    2  502    0 -0.10371366775E+03 -0.23266476125E+01  0.20468207393E+02  0.10573970721E+03  0.00000000000E+00 0. -1.
         22    1    3    3    0    0 -0.12730076295E+01  0.10525653497E+03 -0.67892729332E+03  0.68703917524E+03  0.00000000000E+00 0. -1.
         22    1    3    3    0    0  0.57367904036E+01  0.78912597775E+02 -0.13203567838E+03  0.15392702562E+03  0.00000000000E+00 0. -1.
</event>
<event>
 7    1  0.5977291E-006  0.1072281E+03  0.7818608E-02  0.1336160E+00
          2   -1    0    0  502    0  0.00000000000E+00  0.00000000000E+00  0.19907495877E+03  0.19907495877E+03  0.00000000000E+00 0. -1.
          1   -1    0    0  501    0 -0.00000000000E+00 -0.00000000000E+00 -0.54876398432E+03  0.54876398432E+03  0.00000000000E+00 0. -1.
         25    2    1    2    0    0 -0.49172790059E+02 -0.97410778788E+02 -0.23009146039E+03  0.28367676775E+03  0.12499442113E+03 0.  0.
          2    1    1    2  501    0  0.92061334494E+02  0.61275790258E+02 -0.27636233653E+03  0.29766785657E+03  0.00000000000E+00 0. -1.
          1    1    1    2  502    0 -0.42888544435E+02  0.36134988531E+02  0.15676477136E+03  0.16649431876E+03  0.00000000000E+00 0. -1.
         22    1    3    3    0    0 -0.34513860319E+02  0.51956065108E+00 -0.14892525535E+01  0.34549882352E+02  0.00000000000E+00 0.  1.
         22    1    3    3    0    0 -0.14658929740E+02 -0.97930339439E+02 -0.22860220783E+03  0.24912688540E+03  0.00000000000E+00 0.  1.
</event>
<event>
 7    1  0.5977291E-006  0.5386071E+03  0.7818608E-02  0.1238962E+00
          2   -1    0    0  502    0  0.00000000000E+00  0.00000000000E+00  0.89266503146E+03  0.89266503146E+03  0.00000000000E+00 0. -1.
          1   -1    0    0  501    0 -0.00000000000E+00 -0.00000000000E+00 -0.10814847136E+04  0.10814847136E+04  0.00000000000E+00 0. -1.
         25    2    1    2    0    0 -0.99350673742E+02  0.54920700153E+03  0.43477210144E+03  0.71843620963E+03  0.12499968086E+03 0.  0.
          2    1    1    2  501    0  0.78950826750E+02 -0.53020320232E+03 -0.86232460610E+03  0.10153582595E+04  0.00000000000E+00 0. -1.
          1    1    1    2  502    0  0.20399846992E+02 -0.19003799206E+02  0.23873282251E+03  0.24035527597E+03  0.00000000000E+00 0. -1.
         22    1    3    3    0    0 -0.12838389664E+03  0.47873082850E+03  0.38082627121E+03  0.62505542147E+03  0.00000000000E+00 0. -1.
         22    1    3    3    0    0  0.29033222902E+02  0.70476173029E+02  0.53945830229E+02  0.93380788152E+02  0.00000000000E+00 0. -1.
</event>
<event>
 7    1  0.5977291E-006  0.1111069E+03  0.7818608E-02  0.1406479E+00
          2   -1    0    0  502    0  0.00000000000E+00  0.00000000000E+00  0.20579864237E+04  0.20579864237E+04  0.00000000000E+00 0. -1.
          1   -1    0    0  501    0 -0.00000000000E+00 -0.00000000000E+00 -0.12466050458E+04  0.12466050458E+04  0.00000000000E+00 0. -1.
         25    2    1    2    0    0  0.15436176399E+02  0.81294931756E+02 -0.56075535174E+00  0.14989166369E+03  0.12498021813E+03 0.  0.
          2    1    1    2  501    0  0.15336059606E+02  0.26090079248E+02 -0.11696100198E+04  0.11700014895E+04  0.00000000000E+00 0. -1.
          1    1    1    2  502    0 -0.30772236005E+02 -0.10738501100E+03  0.19815521531E+04  0.19846983163E+04  0.00000000000E+00 0. -1.
         22    1    3    3    0    0  0.13558902238E+02  0.83654069243E+02  0.50559974719E+02  0.98682106658E+02  0.00000000000E+00 0.  1.
         22    1    3    3    0    0  0.18772741613E+01 -0.23591374864E+01 -0.51120730071E+02  0.51209557028E+02  0.00000000000E+00 0.  1.
</event>
<event>
 7    1  0.5977291E-006  0.6707508E+02  0.7818608E-02  0.1531105E+00
          2   -1    0    0  502    0  0.00000000000E+00  0.00000000000E+00  0.24209258534E+04  0.24209258534E+04  0.00000000000E+00 0. -1.
          1   -1    0    0  501    0 -0.00000000000E+00 -0.00000000000E+00 -0.15120521116E+03  0.15120521116E+03  0.00000000000E+00 0. -1.
         25    2    1    2    0    0 -0.39980849788E+02 -0.57366126454E+02  0.65158869548E+03  0.66714606999E+03  0.12500683902E+03 0.  0.
          2    1    1    2  501    0 -0.12796175210E+02  0.15973007999E+02 -0.14205439415E+03  0.14352118304E+03  0.00000000000E+00 0. -1.
          1    1    1    2  502    0  0.52777024998E+02  0.41393118455E+02  0.17601863409E+04  0.17614638115E+04  0.00000000000E+00 0. -1.
         22    1    3    3    0    0  0.42576556050E+00 -0.24481745055E+02  0.56881904944E+03  0.56934580715E+03  0.00000000000E+00 0.  1.
         22    1    3    3    0    0 -0.40406615349E+02 -0.32884381399E+02  0.82769646044E+02  0.97800262832E+02  0.00000000000E+00 0.  1.
</event>
<event>
 7    1  0.5977291E-006  0.6488831E+02  0.7818608E-02  0.1430770E+00
          2   -1    0    0  502    0  0.00000000000E+00  0.00000000000E+00  0.26135866038E+02  0.26135866038E+02  0.00000000000E+00 0. -1.
          1   -1    0    0  501    0 -0.00000000000E+00 -0.00000000000E+00 -0.70084740592E+03  0.70084740592E+03  0.00000000000E+00 0. -1.
         25    2    1    2    0    0 -0.22475421501E+02  0.47557177111E+02 -0.29234101438E+03  0.32226180607E+03  0.12499029280E+03 0.  0.
          2    1    1    2  501    0  0.62544590373E+02 -0.32028805262E+02 -0.32787853870E+03  0.33532373356E+03  0.00000000000E+00 0. -1.
          1    1    1    2  502    0 -0.40069168872E+02 -0.15528371849E+02 -0.54491986804E+02  0.69397732328E+02  0.00000000000E+00 0. -1.
         22    1    3    3    0    0  0.57718531176E+01 -0.36130768643E+02 -0.36831660685E+02  0.51916451727E+02  0.00000000000E+00 0. -1.
         22    1    3    3    0    0 -0.28247274618E+02  0.83687945754E+02 -0.25550935369E+03  0.27034535434E+03  0.00000000000E+00 0. -1.
</event>
<event>
 7    1  0.5977291E-006  0.6106895E+02  0.7818608E-02  0.1429846E+00
          2   -1    0    0  502    0  0.00000000000E+00  0.00000000000E+00  0.11914108419E+04  0.11914108419E+04  0.00000000000E+00 0. -1.
          1   -1    0    0  501    0 -0.00000000000E+00 -0.00000000000E+00 -0.63575565871E+03  0.63575565871E+03  0.00000000000E+00 0. -1.
         25    2    1    2    0    0  0.22560875331E+02 -0.10242224372E+02  0.10230946002E+04  0.10309997617E+04  0.12499620574E+03 0.  0.
          2    1    1    2  501    0 -0.58140859804E+02 -0.18884423008E+02 -0.62707151766E+03  0.63004418041E+03  0.00000000000E+00 0. -1.
          1    1    1    2  502    0  0.35579984473E+02  0.29126647380E+02  0.15963210065E+03  0.16612255850E+03  0.00000000000E+00 0. -1.
         22    1    3    3    0    0 -0.43365215242E+02  0.85541873639E+01  0.66078253040E+03  0.66225921549E+03  0.00000000000E+00 0.  1.
         22    1    3    3    0    0  0.65926090573E+02 -0.18796411736E+02  0.36231206976E+03  0.36874054619E+03  0.00000000000E+00 0.  1.
</event>
<event>
 7    1  0.5977291E-006  0.6776179E+02  0.7818608E-02  0.1494957E+00
          2   -1    0    0  502    0  0.00000000000E+00  0.00000000000E+00  0.16762792373E+04  0.16762792373E+04  0.00000000000E+00 0. -1.
          1   -1    0    0  501    0 -0.00000000000E+00 -0.00000000000E+00 -0.15963705913E+03  0.15963705913E+03  0.00000000000E+00 0. -1.
         25    2    1    2    0    0 -0.43911819206E+02  0.11350606607E+02  0.16992197023E+03  0.21576816161E+03  0.12500135783E+03 0.  0.
          2    1    1    2  501    0 -0.24577125815E+02 -0.80389547041E+01 -0.13469106884E+03  0.13715080726E+03  0.00000000000E+00 0. -1.
          1    1    1    2  502    0  0.68488945021E+02 -0.33116519030E+01  0.14814112767E+04  0.14829973275E+04  0.00000000000E+00 0. -1.
         22    1    3    3    0    0  0.10651173611E+01  0.53370668764E+01  0.17030246015E+03  0.17038939724E+03  0.00000000000E+00 0.  1.
         22    1    3    3    0    0 -0.44976936567E+02  0.60135397306E+01 -0.38048991608E+00  0.45378764368E+02  0.00000000000E+00 0.  1.
</event>
<event>
 7    1  0.5977291E-006  0.1127615E+03  0.7818608E-02  0.1316510E+00
          2   -1    0    0  502    0  0.00000000000E+00  0.00000000000E+00  0.82884740449E+03  0.82884740449E+03  0.00000000000E+00 0. -1.
          1   -1    0    0  501    0 -0.00000000000E+00 -0.00000000000E+00 -0.20693281362E+03  0.20693281362E+03  0.00000000000E+00 0. -1.
         25    2    1    2    0    0 -0.82822983167E+02 -0.22077744130E+02  0.37671099912E+01  0.15161174030E+03  0.12499942141E+03 0.  0.
          2    1    1    2  501    0  0.54144499222E+01 -0.63223936095E+02 -0.12071708101E+03  0.13637886937E+03  0.00000000000E+00 0. -1.
          1    1    1    2  502    0  0.77408533245E+02  0.85301680225E+02  0.73886456188E+03  0.74778960843E+03  0.00000000000E+00 0. -1.
         22    1    3    3    0    0 -0.62753857400E+02 -0.59144025427E+02  0.40897447133E+02  0.95439318649E+02  0.00000000000E+00 0.  1.
         22    1    3    3    0    0 -0.20069125767E+02  0.37066281297E+02 -0.37130337141E+02  0.56172421654E+02  0.00000000000E+00 0.  1.
</event>
<event>
 7    1  0.5977291E-006  0.7852286E+02  0.7818608E-02  0.1336544E+00
          2   -1    0    0  502    0  0.00000000000E+00  0.00000000000E+00  0.25518537870E+03  0.25518537870E+03  0.00000000000E+00 0. -1.
          1   -1    0    0  501    0 -0.00000000000E+00 -0.00000000000E+00 -0.29972557140E+03  0.29972557140E+03  0.00000000000E+00 0. -1.
         25    2    1    2    0    0  0.35883527601E+02 -0.15400051455E+02  0.10913629533E+02  0.13141069564E+03  0.12499949792E+03 0.  0.
          2    1    1    2  501    0 -0.33171764386E+02 -0.71172137943E+02 -0.22216386413E+03  0.23563238677E+03  0.00000000000E+00 0. -1.
          1    1    1    2  502    0 -0.27117632149E+01  0.86572189398E+02  0.16671004190E+03  0.18786786768E+03  0.00000000000E+00 0. -1.
         22    1    3    3    0    0 -0.37390296504E+02  0.12537837235E+02 -0.23352301460E+02  0.45831884302E+02  0.00000000000E+00 0. -1.
         22    1    3    3    0    0  0.73273824105E+02 -0.27937888690E+02  0.34265930994E+02  0.85578811339E+02  0.00000000000E+00 0. -1.
</event>
<event>
 7    1  0.5977291E-006  0.1465566E+03  0.7818608E-02  0.1219681E+00
          2   -1    0    0  502    0  0.00000000000E+00  0.00000000000E+00  0.18701117600E+03  0.18701117600E+03  0.00000000000E+00 0. -1.
          1   -1    0    0  501    0 -0.00000000000E+00 -0.00000000000E+00 -0.33649376268E+03  0.33649376268E+03  0.00000000000E+00 0. -1.
         25    2    1    2    0    0 -0.12070574110E+03 -0.74515412752E+02 -0.94409417580E+02  0.21133122962E+03  0.12500131124E+03 0.  0.
          2    1    1    2  501    0  0.89502846939E+02 -0.87346171576E+02 -0.75480886140E+02  0.14607353447E+03  0.00000000000E+00 0. -1.
          1    1    1    2  502    0  0.31202894166E+02  0.16186158433E+03  0.20407717032E+02  0.16610017459E+03  0.00000000000E+00 0. -1.
         22    1    3    3    0    0  0.25564413180E+02 -0.16958963729E+02 -0.24675702294E+02  0.39370496006E+02  0.00000000000E+00 0.  1.
         22    1    3    3    0    0 -0.14627015428E+03 -0.57556449023E+02 -0.69733715286E+02  0.17196073362E+03  0.00000000000E+00 0.  1.
</event>
<event>
 7    1  0.5977291E-006  0.6203238E+02  0.7818608E-02  0.1452240E+00
          2   -1    0    0  502    0  0.00000000000E+00  0.00000000000E+00  0.67699995554E+03  0.67699995554E+03  0.00000000000E+00 0. -1.
          1   -1    0    0  501    0 -0.00000000000E+00 -0.00000000000E+00 -0.89497648545E+03  0.89497648545E+03  0.00000000000E+00 0. -1.
         25    2    1    2    0    0  0.76982611472E+01  0.46213066211E+02  0.54046010624E+02  0.14401581830E+03  0.12499869577E+03 0.  0.
          2    1    1    2  501    0 -0.37114058921E+02  0.94620011888E+01 -0.84784289665E+03  0.84870758229E+03  0.00000000000E+00 0. -1.
          1    1    1    2  502    0  0.29415797773E+02 -0.55675067399E+02  0.57582035612E+03  0.57925304039E+03  0.00000000000E+00 0. -1.
         22    1    3    3    0    0  0.53616519442E+02  0.31707855316E+01 -0.95379372234E+01  0.54550502147E+02  0.00000000000E+00 0.  1.
         22    1    3    3    0    0 -0.45918258295E+02  0.43042280679E+02  0.63583947847E+02  0.89465316155E+02  0.00000000000E+00 0.  1.
</event>
<event>
 7    1  0.5977291E-006  0.9426997E+02  0.7818608E-02  0.1368100E+00
          2   -1    0    0  502    0  0.00000000000E+00  0.00000000000E+00  0.28711523266E+04  0.28711523266E+04  0.00000000000E+00 0. -1.
          1   -1    0    0  501    0 -0.00000000000E+00 -0.00000000000E+00 -0.12681380613E+02  0.12681380613E+02  0.00000000000E+00 0. -1.
         25    2    1    2    0    0 -0.65697168191E+02  0.38549470247E+02  0.10305315403E+04  0.10408757358E+04  0.12499944877E+03 0.  0.
          2    1    1    2  501    0  0.56429784345E+02 -0.86274118780E+02  0.36684174351E+03  0.38105171422E+03  0.00000000000E+00 0. -1.
          1    1    1    2  502    0  0.92673838466E+01  0.47724648533E+02  0.14610976622E+04  0.14619062572E+04  0.00000000000E+00 0. -1.
         22    1    3    3    0    0 -0.93811965364E+02  0.45289986501E+02  0.57023885850E+03  0.57967596419E+03  0.00000000000E+00 0. -1.
         22    1    3    3    0    0  0.28114797172E+02 -0.67405162540E+01  0.46029268183E+03  0.46119977160E+03  0.00000000000E+00 0. -1.
</event>
<event>
 7    1  0.5977291E-006  0.7357437E+02  0.7818608E-02  0.1416562E+00
          2   -1    0    0  502    0  0.00000000000E+00  0.00000000000E+00  0.21162522269E+03  0.21162522269E+03  0.00000000000E+00 0. -1.
          1   -1    0    0  501    0 -0.00000000000E+00 -0.00000000000E+00 -0.99370814935E+03  0.99370814935E+03  0.00000000000E+00 0. -1.
         25    2    1    2    0    0  0.24052382520E+02 -0.65077737558E+02 -0.25295205749E+03  0.29055600434E+03  0.12499767694E+03 0.  0.
          2    1    1    2  501    0 -0.60770003210E+02  0.44173715470E+02 -0.71765495807E+03  0.72157671060E+03  0.00000000000E+00 0. -1.
          1    1    1    2  502    0  0.36717620690E+02  0.20904022088E+02  0.18852408890E+03  0.19320065710E+03  0.00000000000E+00 0. -1.
         22    1    3    3    0    0  0.27970160213E+02  0.23164921956E+02 -0.20088976952E+02  0.41503138033E+02  0.00000000000E+00 0.  1.
         22    1    3    3    0    0 -0.39177776928E+01 -0.88242659514E+02 -0.23286308053E+03  0.24905286631E+03  0.00000000000E+00 0.  1.
</event>
<event>
 7    1  0.5977291E-006  0.9382834E+02  0.7818608E-02  0.1299593E+00
          2   -1    0    0  502    0  0.00000000000E+00  0.00000000000E+00  0.86751571793E+03  0.86751571793E+03  0.00000000000E+00 0. -1.
          1   -1    0    0  501    0 -0.00000000000E+00 -0.00000000000E+00 -0.64287501570E+03  0.64287501570E+03  0.00000000000E+00 0. -1.
         25    2    1    2    0    0 -0.21974517974E+02 -0.19902119353E+02  0.12275355681E+03  0.17768676502E+03  0.12500070784E+03 0.  0.
          2    1    1    2  501    0  0.86547145650E+02 -0.41280871011E+02 -0.60888395521E+03  0.61638801874E+03  0.00000000000E+00 0. -1.
          1    1    1    2  502    0 -0.64572627675E+02  0.61182990365E+02  0.71077110063E+03  0.71631594987E+03  0.00000000000E+00 0. -1.
         22    1    3    3    0    0 -0.61016382086E+02 -0.32747605831E+01  0.12060072667E+03  0.13519710874E+03  0.00000000000E+00 0.  1.
         22    1    3    3    0    0  0.39041864111E+02 -0.16627358770E+02  0.21528301411E+01  0.42489656278E+02  0.00000000000E+00 0.  1.
</event>
<event>
 7    1  0.5977291E-006  0.7641895E+02  0.7818608E-02  0.1384866E+00
          2   -1    0    0  502    0  0.00000000000E+00  0.00000000000E+00  0.11807662791E+04  0.11807662791E+04  0.00000000000E+00 0. -1.
          1   -1    0    0  501    0 -0.00000000000E+00 -0.00000000000E+00 -0.64492838042E+03  0.64492838042E+03  0.00000000000E+00 0. -1.
         25    2    1    2    0    0  0.25225551305E+02  0.16976252580E+02  0.25117651897E+03  0.28220171165E+03  0.12499456303E+03 0.  0.
          2    1    1    2  501    0  0.33610149260E+02  0.40032067387E+02 -0.62648958314E+03  0.62866637124E+03  0.00000000000E+00 0. -1.
          1    1    1    2  502    0 -0.58835700565E+02 -0.57008319967E+02  0.91115096285E+03  0.91482657663E+03  0.00000000000E+00 0. -1.
         22    1    3    3    0    0  0.29594458250E+02 -0.62735128417E+00  0.26024521293E+03  0.26192326430E+03  0.00000000000E+00 0. -1.
         22    1    3    3    0    0 -0.43689069448E+01  0.17603603864E+02 -0.90686939584E+01  0.20278447352E+02  0.00000000000E+00 0. -1.
</event>
<event>
 7    1  0.5977291E-006  0.1115449E+03  0.7818608E-02  0.1298265E+00
          2   -1    0    0  502    0  0.00000000000E+00  0.00000000000E+00  0.43256275602E+03  0.43256275602E+03  0.00000000000E+00 0. -1.
          1   -1    0    0  501    0 -0.00000000000E+00 -0.00000000000E+00 -0.10149135572E+04  0.10149135572E+04  0.00000000000E+00 0. -1.
         25    2    1    2    0    0 -0.13959057812E+03 -0.68125476226E+02 -0.10902193381E+03  0.22723927236E+03  0.12500117936E+03 0.  0.
          2    1    1    2  501    0  0.29418971574E+02  0.69803370266E+02 -0.83690777352E+03  0.84032886882E+03  0.00000000000E+00 0. -1.
          1    1    1    2  502    0  0.11017160655E+03 -0.16778940408E+01  0.36357890613E+03  0.37990817206E+03  0.00000000000E+00 0. -1.
         22    1    3    3    0    0  0.87074453366E+01 -0.47397767186E+02 -0.15184941237E+02  0.50526729350E+02  0.00000000000E+00 0. -1.
         22    1    3    3    0    0 -0.14829802346E+03 -0.20727709040E+02 -0.93836992572E+02  0.17671254301E+03  0.00000000000E+00 0. -1.
</event>
<event>
 7    1  0.5977291E-006  0.1469514E+03  0.7818608E-02  0.1215473E+00
          2   -1    0    0  502    0  0.00000000000E+00  0.00000000000E+00  0.29171354171E+04  0.29171354171E+04  0.00000000000E+00 0. -1.
          1   -1    0    0  501    0 -0.00000000000E+00 -0.00000000000E+00 -0.36533120438E+02  0.36533120438E+02  0.00000000000E+00 0. -1.
         25    2    1    2    0    0  0.25524656116E+02 -0.59717746709E+02  0.61925422851E+03  0.63507369532E+03  0.12500032649E+03 0.  0.
          2    1    1    2  501    0  0.13872383108E+02 -0.12964078968E+03  0.15140960109E+03  0.19981002143E+03  0.00000000000E+00 0. -1.
          1    1    1    2  502    0 -0.39397039224E+02  0.18935853639E+03  0.21099384671E+04  0.21187848208E+04  0.00000000000E+00 0. -1.
         22    1    3    3    0    0 -0.74502045341E+01 -0.65222869150E+02  0.57916740393E+03  0.58287598165E+03  0.00000000000E+00 0. -1.
         22    1    3    3    0    0  0.32974860650E+02  0.55051224411E+01  0.40086824580E+02  0.52197713675E+02  0.00000000000E+00 0. -1.
</event>
<event>
 7    1  0.5977291E-006  0.6303622E+02  0.7818608E-02  0.1436971E+00
          2   -1    0    0  502    0  0.00000000000E+00  0.00000000000E+00  0.14042846311E+02  0.14042846311E+02  0.00000000000E+00 0. -1.
          1   -1    0    0  501    0 -0.00000000000E+00 -0.00000000000E+00 -0.15376248900E+04  0.15376248900E+04  0.00000000000E+00 0. -1.
         25    2    1    2    0    0 -0.53750942518E+02 -0.43303039860E+02 -0.42996758350E+03  0.45305782501E+03  0.12499981144E+03 0.  0.
          2    1    1    2  501    0  0.38561286561E+02 -0.17180236581E+02 -0.46145684365E+03  0.46338380626E+03  0.00000000000E+00 0. -1.
          1    1    1    2  502    0  0.15189655956E+02  0.60483276441E+02 -0.63215761654E+03  0.63522610504E+03  0.00000000000E+00 0. -1.
         22    1    3    3    0    0  0.22439802541E+02  0.85943980518E+01 -0.24712194698E+03  0.24828746464E+03  0.00000000000E+00 0.  1.
         22    1    3    3    0    0 -0.76190745059E+02 -0.51897437912E+02 -0.18284563652E+03  0.20477036038E+03  0.00000000000E+00 0.  1.
</event>
<event>
 7    1  0.5977291E-006  0.4922530E+02  0.7818608E-02  0.1472183E+00
          2   -1    0    0  502    0  0.00000000000E+00  0.00000000000E+00  0.15067790298E+04  0.15067790298E+04  0.00000000000E+00 0. -1.
          1   -1    0    0  501    0 -0.00000000000E+00 -0.00000000000E+00 -0.24064640839E+04  0.24064640839E+04  0.00000000000E+00 0. -1.
         25    2    1    2    0    0  0.46380610786E+02 -0.39089046290E+02  0.20742552703E+03  0.24965804054E+03  0.12499869338E+03 0.  0.
          2    1    1    2  501    0 -0.57714438710E+01  0.48891326339E+02 -0.23847523791E+04  0.23852604849E+04  0.00000000000E+00 0. -1.
          1    1    1    2  502    0 -0.40609166915E+02 -0.98022800493E+01  0.12776417979E+04  0.12783245882E+04  0.00000000000E+00 0. -1.
         22    1    3    3    0    0  0.33577821736E+02 -0.13179054291E+02 -0.39761360573E+01  0.36290043297E+02  0.00000000000E+00 0. -1.
         22    1    3    3    0    0  0.12802789050E+02 -0.25909991999E+02  0.21140166309E+03  0.21336799725E+03  0.00000000000E+00 0. -1.
</event>
<event>
 7    1  0.5977291E-006  0.1667233E+03  0.7818608E-02  0.1239057E+00
          2   -1    0    0  502    0  0.00000000000E+00  0.00000000000E+00  0.47182457944E+03  0.47182457944E+03  0.00000000000E+00 0. -1.
          1   -1    0    0  501    0 -0.00000000000E+00 -0.00000000000E+00 -0.22431516279E+03  0.22431516279E+03  0.00000000000E+00 0. -1.
         25    2    1    2    0    0 -0.80850320262E+02  0.10424869172E+03  0.86221260688E+02  0.20115551564E+03  0.12499948667E+03 0.  0.
          2    1    1    2  501    0  0.40860848355E+02  0.80169031261E+02 -0.12383323871E+03  0.15307303326E+03  0.00000000000E+00 0. -1.
          1    1    1    2  502    0  0.39989471908E+02 -0.18441772298E+03  0.28512139468E+03  0.34191119332E+03  0.00000000000E+00 0. -1.
         22    1    3    3    0    0  0.96953621980E+01  0.37529399270E+00 -0.23232589416E+02  0.25177253717E+02  0.00000000000E+00 0.  1.
         22    1    3    3    0    0 -0.90545682460E+02  0.10387339773E+03  0.10945385010E+03  0.17597826193E+03  0.00000000000E+00 0.  1.
</event>
<event>
 7    1  0.5977291E-006  0.7538661E+02  0.7818608E-02  0.1485796E+00
          2   -1    0    0  502    0  0.00000000000E+00  0.00000000000E+00  0.12593215906E+04  0.12593215906E+04  0.00000000000E+00 0. -1.
          1   -1    0    0  501    0 -0.00000000000E+00 -0.00000000000E+00 -0.40852927069E+03  0.40852927069E+03  0.00000000000E+00 0. -1.
         25    2    1    2    0    0 -0.88339181940E+02 -0.72622769305E+00  0.63004082274E+02  0.16552222044E+03  0.12499501032E+03 0.  0.
          2    1    1    2  501    0  0.15528364163E+02  0.19303391284E+02 -0.35560597418E+03  0.35646789460E+03  0.00000000000E+00 0. -1.
          1    1    1    2  502    0  0.72810817776E+02 -0.18577163591E+02  0.11433942118E+04  0.11458607462E+04  0.00000000000E+00 0. -1.
         22    1    3    3    0    0 -0.27525672241E+02  0.59072647792E+02  0.42497242602E+02  0.77802673336E+02  0.00000000000E+00 0. -1.
         22    1    3    3    0    0 -0.60813509699E+02 -0.59798875485E+02  0.20506839672E+02  0.87719547106E+02  0.00000000000E+00 0. -1.
</event>
<event>
 7    1  0.5977291E-006  0.6558882E+02  0.7818608E-02  0.1471512E+00
          2   -1    0    0  502    0  0.00000000000E+00  0.00000000000E+00  0.37309531446E+03  0.37309531446E+03  0.00000000000E+00 0. -1.
          1   -1    0    0  501    0 -0.00000000000E+00 -0.00000000000E+00 -0.46558276682E+03  0.46558276682E+03  0.00000000000E+00 0. -1.
         25    2    1    2    0    0  0.59717538693E+02 -0.51730096880E+02 -0.64956606839E+02  0.16150852366E+03  0.12499382022E+03 0.  0.
          2    1    1    2  501    0 -0.61862742066E+02  0.20299565959E+02 -0.34856486795E+03  0.35459348330E+03  0.00000000000E+00 0. -1.
          1    1    1    2  502    0  0.21452033727E+01  0.31430530920E+02  0.32103402242E+03  0.32257607432E+03  0.00000000000E+00 0. -1.
         22    1    3    3    0    0 -0.20143662583E+02 -0.60017467762E+02 -0.97115811136E+01  0.64048250456E+02  0.00000000000E+00 0.  1.
         22    1    3    3    0    0  0.79861201277E+02  0.82873708819E+01 -0.55245025725E+02  0.97460273203E+02  0.00000000000E+00 0.  1.
</event>
<event>
 7    1  0.5977291E-006  0.6576008E+02  0.7818608E-02  0.1465586E+00
          2   -1    0    0  502    0  0.00000000000E+00  0.00000000000E+00  0.98780621279E+01  0.98780621279E+01  0.00000000000E+00 0. -1.
          1   -1    0    0  501    0 -0.00000000000E+00 -0.00000000000E+00 -0.22368781340E+04  0.22368781340E+04  0.00000000000E+00 0. -1.
         25    2    1    2    0    0 -0.94183559346E+02 -0.29318071477E+01 -0.91071599932E+03  0.92407139583E+03  0.12500069929E+03 0.  0.
          2    1    1    2  501    0  0.61828516396E+02  0.82355152716E+01 -0.12064539836E+04  0.12080653144E+04  0.00000000000E+00 0. -1.
          1    1    1    2  502    0  0.32355042950E+02 -0.53037081240E+01 -0.10983008894E+03  0.11461948596E+03  0.00000000000E+00 0. -1.
         22    1    3    3    0    0 -0.67251479104E+02  0.13786968678E+02 -0.17967289981E+03  0.19234134468E+03  0.00000000000E+00 0. -1.
         22    1    3    3    0    0 -0.26932080242E+02 -0.16718775826E+02 -0.73104309951E+03  0.73173005114E+03  0.00000000000E+00 0. -1.
</event>
<event>
 7    1  0.5977291E-006  0.6876598E+02  0.7818608E-02  0.1403845E+00
          2   -1    0    0  502    0  0.00000000000E+00  0.00000000000E+00  0.11224822655E+04  0.11224822655E+04  0.00000000000E+00 0. -1.
          1   -1    0    0  501    0 -0.00000000000E+00 -0.00000000000E+00 -0.18373184978E+04  0.18373184978E+04  0.00000000000E+00 0. -1.
         25    2    1    2    0    0 -0.10029628793E+03 -0.47123479090E+02 -0.76209293020E+02  0.18360979403E+03  0.12499892986E+03 0.  0.
          2    1    1    2  501    0  0.67649286989E+02  0.93581912288E+01 -0.17061425250E+04  0.17075088045E+04  0.00000000000E+00 0. -1.
          1    1    1    2  502    0  0.32647000944E+02  0.37765287862E+02  0.10675155857E+04  0.10686821648E+04  0.00000000000E+00 0. -1.
         22    1    3    3    0    0 -0.38137916403E+02 -0.30158018287E+01 -0.97280690803E+02  0.10453290645E+03  0.00000000000E+00 0.  1.
         22    1    3    3    0    0 -0.62158371530E+02 -0.44107677262E+02  0.21071397783E+02  0.79076887579E+02  0.00000000000E+00 0.  1.
</event>
<event>
 7    1  0.5977291E-006  0.1265961E+03  0.7818608E-02  0.1315666E+00
          2   -1    0    0  502    0  0.00000000000E+00  0.00000000000E+00  0.29902584539E+04  0.29902584539E+04  0.00000000000E+00 0. -1.
          1   -1    0    0  501    0 -0.00000000000E+00 -0.00000000000E+00 -0.32513225012E+03  0.32513225012E+03  0.00000000000E+00 0. -1.
         25    2    1    2    0    0  0.11278111350E+03  0.14276421099E+03  0.18637327073E+04  0.18767563812E+04  0.12495483313E+03 0.  0.
          2    1    1    2  501    0 -0.70280654340E+02 -0.10485409223E+03 -0.30535730486E+03  0.33041918023E+03  0.00000000000E+00 0. -1.
          1    1    1    2  502    0 -0.42500459162E+02 -0.37910118759E+02  0.11067508013E+04  0.11082151427E+04  0.00000000000E+00 0. -1.
         22    1    3    3    0    0  0.13605018705E+03  0.11226255258E+03  0.16679247906E+04  0.16772255785E+04  0.00000000000E+00 0. -1.
         22    1    3    3    0    0 -0.23269073544E+02  0.30501658407E+02  0.19580791671E+03  0.19953080263E+03  0.00000000000E+00 0. -1.
</event>
<event>
 7    1  0.5977291E-006  0.4154339E+02  0.7818608E-02  0.1561858E+00
          2   -1    0    0  502    0  0.00000000000E+00  0.00000000000E+00  0.12097006294E+04  0.12097006294E+04  0.00000000000E+00 0. -1.
          1   -1    0    0  501    0 -0.00000000000E+00 -0.00000000000E+00 -0.19181974621E+03  0.19181974621E+03  0.00000000000E+00 0. -1.
         25    2    1    2    0    0  0.27746135436E+02 -0.26739106768E+02  0.32292743218E+03  0.34841484127E+03  0.12500378914E+03 0.  0.
          2    1    1    2  501    0 -0.41489529781E+02  0.33869195208E+01 -0.17644344685E+03  0.18128745748E+03  0.00000000000E+00 0. -1.
          1    1    1    2  502    0  0.13743394345E+02  0.23352187247E+02  0.87139689783E+03  0.87181807683E+03  0.00000000000E+00 0. -1.
         22    1    3    3    0    0 -0.91435320399E+00 -0.34987874580E+00 -0.11592569106E+02  0.11633834939E+02  0.00000000000E+00 0.  1.
         22    1    3    3    0    0  0.28660488640E+02 -0.26389228022E+02  0.33452000128E+03  0.33678100633E+03  0.00000000000E+00 0.  1.
</event>
<event>
 7    1  0.5977291E-006  0.9988566E+02  0.7818608E-02  0.1297893E+00
          2   -1    0    0  502    0  0.00000000000E+00  0.00000000000E+00  0.10655539118E+04  0.10655539118E+04  0.00000000000E+00 0. -1.
          1   -1    0    0  501    0 -0.00000000000E+00 -0.00000000000E+00 -0.31705678550E+03  0.31705678550E+03  0.00000000000E+00 0. -1.
         25    2    1    2    0    0  0.44619316791E+02 -0.81956353934E+02  0.33325539855E+03  0.36795590138E+03  0.12499862926E+03 0.  0.
          2    1    1    2  501    0 -0.99429098692E+02  0.17141076245E+02 -0.28859204979E+03  0.30572100576E+03  0.00000000000E+00 0. -1.
          1    1    1    2  502    0  0.54809781902E+02  0.64815277689E+02  0.70383377753E+03  0.70893379014E+03  0.00000000000E+00 0. -1.
         22    1    3    3    0    0  0.39590474916E+02  0.15249195756E+02  0.19055135939E+03  0.19521722321E+03  0.00000000000E+00 0.  1.
         22    1    3    3    0    0  0.50288418752E+01 -0.97205549690E+02  0.14270403916E+03  0.17273867816E+03  0.00000000000E+00 0.  1.
</event>
<event>
 7    1  0.5977291E-006  0.2243494E+03  0.7818608E-02  0.1249580E+00
          2   -1    0    0  502    0  0.00000000000E+00  0.00000000000E+00  0.42018636602E+03  0.42018636602E+03  0.00000000000E+00 0. -1.
          1   -1    0    0  501    0 -0.00000000000E+00 -0.00000000000E+00 -0.18017323233E+04  0.18017323233E+04  0.00000000000E+00 0. -1.
         25    2    1    2    0    0  0.82674443805E+02  0.16508857028E+03 -0.50293547276E+02  0.22856820312E+03  0.12499873153E+03 0.  0.
          2    1    1    2  501    0 -0.77118673446E+01  0.59640597910E+02 -0.16192893384E+04  0.16204056391E+04  0.00000000000E+00 0. -1.
          1    1    1    2  502    0 -0.74962576460E+02 -0.22472916819E+03  0.28803692836E+03  0.37294484713E+03  0.00000000000E+00 0. -1.
         22    1    3    3    0    0  0.69447748641E+00  0.12228966942E+03 -0.58809409655E+02  0.13569742890E+03  0.00000000000E+00 0. -1.
         22    1    3    3    0    0  0.81979966318E+02  0.42798900859E+02  0.85158623781E+01  0.92870774220E+02  0.00000000000E+00 0. -1.
</event>
<event>
 7    1  0.5977291E-006  0.2126914E+03  0.7818608E-02  0.1320722E+00
          2   -1    0    0  502    0  0.00000000000E+00  0.00000000000E+00  0.79756653469E+03  0.79756653469E+03  0.00000000000E+00 0. -1.
          1   -1    0    0  501    0 -0.00000000000E+00 -0.00000000000E+00 -0.35128287969E+03  0.35128287969E+03  0.00000000000E+00 0. -1.
         25    2    1    2    0    0  0.15643272318E+03  0.18168284401E+03  0.69072047070E+02  0.27906241297E+03  0.12500011981E+03 0.  0.
          2    1    1    2  501    0 -0.25910493945E+02 -0.19447761420E+02 -0.22772495968E+03  0.23001788275E+03  0.00000000000E+00 0. -1.
          1    1    1    2  502    0 -0.13052222924E+03 -0.16223508259E+03  0.60493656762E+03  0.63976911866E+03  0.00000000000E+00 0. -1.
         22    1    3    3    0    0  0.76848298566E+02  0.12606994371E+03  0.98646358526E+02  0.17756800317E+03  0.00000000000E+00 0.  1.
         22    1    3    3    0    0  0.79584424616E+02  0.55612900307E+02 -0.29574311456E+02  0.10149440980E+03  0.00000000000E+00 0.  1.
</event>
<event>
 7    1  0.5977291E-006  0.6232623E+02  0.7818608E-02  0.1499731E+00
          2   -1    0    0  502    0  0.00000000000E+00  0.00000000000E+00  0.75842176257E+03  0.75842176257E+03  0.00000000000E+00 0. -1.
          1   -1    0    0  501    0 -0.00000000000E+00 -0.00000000000E+00 -0.54840175116E+03  0.54840175116E+03  0.00000000000E+00 0. -1.
         25    2    1    2    0    0 -0.31682875183E+02  0.75522627039E+02 -0.18164913616E+03  0.23521932315E+03  0.12499699813E+03 0.  0.
          2    1    1    2  501    0  0.23410260860E+02 -0.13855264313E+02 -0.33809740796E+03  0.33919001449E+03  0.00000000000E+00 0. -1.
          1    1    1    2  502    0  0.82726143228E+01 -0.61667362726E+02  0.72976655553E+03  0.73241417609E+03  0.00000000000E+00 0. -1.
         22    1    3    3    0    0 -0.67755376500E+02  0.14934186883E+02 -0.48827970858E+02  0.84840979017E+02  0.00000000000E+00 0.  1.
         22    1    3    3    0    0  0.36072501318E+02  0.60588440156E+02 -0.13282116530E+03  0.15037834413E+03  0.00000000000E+00 0.  1.
</event>
<event>
 7    1  0.5977291E-006  0.3618500E+02  0.7818608E-02  0.1547152E+00
          2   -1    0    0  502    0  0.00000000000E+00  0.00000000000E+00  0.82054363938E+02  0.82054363938E+02  0.00000000000E+00 0. -1.
          1   -1    0    0  501    0 -0.00000000000E+00 -0.00000000000E+00 -0.63001415728E+03  0.63001415728E+03  0.00000000000E+00 0. -1.
         25    2    1    2    0    0  0.44350310001E+02  0.50297006854E+02 -0.25540491734E+03  0.29215243110E+03  0.12499852919E+03 0.  0.
          2    1    1    2  501    0 -0.28968191552E+02 -0.18125016925E+02 -0.35034591520E+03  0.35200842697E+03  0.00000000000E+00 0. -1.
          1    1    1    2  502    0 -0.15382118449E+02 -0.32171989929E+02  0.57791039194E+02  0.67907663155E+02  0.00000000000E+00 0. -1.
         22    1    3    3    0    0 -0.21228808919E+02  0.44509685684E+01 -0.18287471587E+03  0.18415655067E+03  0.00000000000E+00 0. -1.
         22    1    3    3    0    0  0.65579118920E+02  0.45846038286E+02 -0.72530201472E+02  0.10799588043E+03  0.00000000000E+00 0. -1.
</event>
<event>
 7    1  0.5977291E-006  0.9638031E+02  0.7818608E-02  0.1327033E+00
          2   -1    0    0  502    0  0.00000000000E+00  0.00000000000E+00  0.16097172203E+04  0.16097172203E+04  0.00000000000E+00 0. -1.
          1   -1    0    0  501    0 -0.00000000000E+00 -0.00000000000E+00 -0.12848393354E+04  0.12848393354E+04  0.00000000000E+00 0. -1.
         25    2    1    2    0    0  0.10628794853E+03  0.78080722007E+02  0.19092275965E+03  0.26357377649E+03  0.12500363334E+03 0.  0.
          2    1    1    2  501    0 -0.67000202126E+02  0.89595704565E+01 -0.12459474344E+04  0.12477797523E+04  0.00000000000E+00 0. -1.
          1    1    1    2  502    0 -0.39287746404E+02 -0.87040292464E+02  0.13799025596E+04  0.13832030269E+04  0.00000000000E+00 0. -1.
         22    1    3    3    0    0  0.78333561839E+02  0.76799625216E+02  0.51172641045E+02  0.12104944665E+03  0.00000000000E+00 0. -1.
         22    1    3    3    0    0  0.27954386691E+02  0.12810967908E+01  0.13975011860E+03  0.14252432983E+03  0.00000000000E+00 0. -1.
</event>
<event>
 7    1  0.5977291E-006  0.9196880E+02  0.7818608E-02  0.1454906E+00
          2   -1    0    0  502    0  0.00000000000E+00  0.00000000000E+00  0.12420233659E+04  0.12420233659E+04  0.00000000000E+00 0. -1.
          1   -1    0    0  501    0 -0.00000000000E+00 -0.00000000000E+00 -0.78181528924E+03  0.78181528924E+03  0.00000000000E+00 0. -1.
         25    2    1    2    0    0 -0.38428816574E+02 -0.82603784402E+02  0.10566457534E+04  0.10679069332E+04  0.12499924245E+03 0.  0.
          2    1    1    2  501    0  0.22159363094E+02 -0.12279083141E+02 -0.76306981287E+03  0.76349024393E+03  0.00000000000E+00 0. -1.
          1    1    1    2  502    0  0.16269453480E+02  0.94882867544E+02  0.16663213609E+03  0.19244147798E+03  0.00000000000E+00 0. -1.
         22    1    3    3    0    0  0.52025602651E+01  0.57647352981E+01  0.11851474043E+01  0.78551499501E+01  0.00000000000E+00 0. -1.
         22    1    3    3    0    0 -0.43631376839E+02 -0.88368519700E+02  0.10554606060E+04  0.10600517833E+04  0.00000000000E+00 0. -1.
</event>
<event>
 7    1  0.5977291E-006  0.4384326E+03  0.7818608E-02  0.1292353E+00
          2   -1    0    0  502    0  0.00000000000E+00  0.00000000000E+00  0.18158282091E+04  0.18158282091E+04  0.00000000000E+00 0. -1.
          1   -1    0    0  501    0 -0.00000000000E+00 -0.00000000000E+00 -0.20543689573E+03  0.20543689573E+03  0.00000000000E+00 0. -1.
         25    2    1    2    0    0  0.33173576427E+03 -0.28954736752E+03  0.82926216232E+03  0.94719957689E+03  0.12500003708E+03 0.  0.
          2    1    1    2  501    0 -0.16009385126E+02 -0.12578495620E+02 -0.93848875531E+02  0.96031923872E+02  0.00000000000E+00 0. -1.
          1    1    1    2  502    0 -0.31572637915E+03  0.30212586314E+03  0.87497802658E+03  0.97803360405E+03  0.00000000000E+00 0. -1.
         22    1    3    3    0    0  0.17932118790E+03 -0.78854380886E+02  0.39816952634E+03  0.44374888565E+03  0.00000000000E+00 0.  1.
         22    1    3    3    0    0  0.15241457637E+03 -0.21069298664E+03  0.43109263598E+03  0.50345069123E+03  0.00000000000E+00 0.  1.
</event>
<event>
 7    1  0.5977291E-006  0.1039391E+03  0.7818608E-02  0.1378280E+00
          2   -1    0    0  502    0  0.00000000000E+00  0.00000000000E+00  0.25449568913E+04  0.25449568913E+04  0.00000000000E+00 0. -1.
          1   -1    0    0  501    0 -0.00000000000E+00 -0.00000000000E+00 -0.29069321581E+02  0.29069321581E+02  0.00000000000E+00 0. -1.
         25    2    1    2    0    0  0.45772376233E+02  0.50146516639E+02  0.18826214298E+04  0.18879881844E+04  0.12500461237E+03 0.  0.
          2    1    1    2  501    0 -0.58065976254E+02 -0.88784197080E+02  0.84101380780E+02  0.13537848241E+03  0.00000000000E+00 0. -1.
          1    1    1    2  502    0  0.12293600021E+02  0.38637680440E+02  0.54916475912E+03  0.55065954600E+03  0.00000000000E+00 0. -1.
         22    1    3    3    0    0  0.32075069309E+02  0.96964969599E+01  0.11329605963E+03  0.11814748940E+03  0.00000000000E+00 0. -1.
         22    1    3    3    0    0  0.13697306924E+02  0.40450019680E+02  0.17693253702E+04  0.17698406950E+04  0.00000000000E+00 0. -1.
</event>
<event>
 7    1  0.5977291E-006  0.1466605E+03  0.7818608E-02  0.1279917E+00
          2   -1    0    0  502    0  0.00000000000E+00  0.00000000000E+00  0.21585943516E+04  0.21585943516E+04  0.00000000000E+00 0. -1.
          1   -1    0    0  501    0 -0.00000000000E+00 -0.00000000000E+00 -0.37230885206E+03  0.37230885206E+03  0.00000000000E+00 0. -1.
         25    2    1    2    0    0  0.76215739262E+02  0.11569894459E+03  0.21644492772E+03  0.28577483273E+03  0.12499505427E+03 0.  0.
          2    1    1    2  501    0 -0.12922546797E+03 -0.72423589156E+02 -0.32074685314E+03  0.35330290352E+03  0.00000000000E+00 0. -1.
          1    1    1    2  502    0  0.53009728708E+02 -0.43275355437E+02  0.18905874250E+04  0.18918254674E+04  0.00000000000E+00 0. -1.
         22    1    3    3    0    0 -0.12349832985E+02  0.76338169906E+02  0.14844897494E+03  0.16738319127E+03  0.00000000000E+00 0. -1.
         22    1    3    3    0    0  0.88565572247E+02  0.39360774687E+02  0.67995952781E+02  0.11839164145E+03  0.00000000000E+00 0. -1.
</event>
<event>
 7    1  0.5977291E-006  0.1874135E+03  0.7818608E-02  0.1287553E+00
          2   -1    0    0  502    0  0.00000000000E+00  0.00000000000E+00  0.13150670652E+03  0.13150670652E+03  0.00000000000E+00 0. -1.
          1   -1    0    0  501    0 -0.00000000000E+00 -0.00000000000E+00 -0.73912883089E+03  0.73912883089E+03  0.00000000000E+00 0. -1.
         25    2    1    2    0    0  0.65589840696E+02 -0.14613658845E+03 -0.37716082530E+03  0.42841064646E+03  0.12500985631E+03 0.  0.
          2    1    1    2  501    0 -0.24083449870E+02 -0.43611188433E+02 -0.24255111784E+03  0.24761460595E+03  0.00000000000E+00 0. -1.
          1    1    1    2  502    0 -0.41506390826E+02  0.18974777689E+03  0.12089818768E+02  0.19461028501E+03  0.00000000000E+00 0. -1.
         22    1    3    3    0    0  0.66941522691E+02 -0.91506323031E+02 -0.34895935456E+03  0.36691580199E+03  0.00000000000E+00 0. -1.
         22    1    3    3    0    0 -0.13516819952E+01 -0.54630265423E+02 -0.28201470733E+02  0.61494844466E+02  0.00000000000E+00 0. -1.
</event>
<event>
 7    1  0.5977291E-006  0.5381561E+02  0.7818608E-02  0.1431376E+00
          2   -1    0    0  502    0  0.00000000000E+00  0.00000000000E+00  0.97434226348E+03  0.97434226348E+03  0.00000000000E+00 0. -1.
          1   -1    0    0  501    0 -0.00000000000E+00 -0.00000000000E+00 -0.34655314002E+03  0.34655314002E+03  0.00000000000E+00 0. -1.
         25    2    1    2    0    0 -0.93322053397E+01  0.32958873998E+00  0.35759476938E+03  0.37892669430E+03  0.12499688746E+03 0.  0.
          2    1    1    2  501    0  0.17233040545E+02 -0.51298411833E+02 -0.33259904213E+03  0.33697274010E+03  0.00000000000E+00 0. -1.
          1    1    1    2  502    0 -0.79008352049E+01  0.50968823093E+02  0.60279339620E+03  0.60499596910E+03  0.00000000000E+00 0. -1.
         22    1    3    3    0    0  0.59469961599E+01 -0.61371084166E+02  0.16771494503E+03  0.17868989765E+03  0.00000000000E+00 0. -1.
         22    1    3    3    0    0 -0.15279201500E+02  0.61700672906E+02  0.18987982436E+03  0.20023679665E+03  0.00000000000E+00 0. -1.
</event>
<event>
 7    1  0.5977291E-006  0.5518631E+02  0.7818608E-02  0.1447092E+00
          2   -1    0    0  502    0  0.00000000000E+00  0.00000000000E+00  0.75502796528E+01  0.75502796528E+01  0.00000000000E+00 0. -1.
          1   -1    0    0  501    0 -0.00000000000E+00 -0.00000000000E+00 -0.26487325478E+04  0.26487325478E+04  0.00000000000E+00 0. -1.
         25    2    1    2    0    0 -0.29612733777E+02  0.19996652289E+02 -0.11763330012E+04  0.11834967817E+04  0.12501408834E+03 0.  0.
          2    1    1    2  501    0  0.18361863720E+02  0.40773878226E+02 -0.11995471217E+04  0.12003803416E+04  0.00000000000E+00 0. -1.
          1    1    1    2  502    0  0.11250870057E+02 -0.60770530515E+02 -0.26530214513E+03  0.27240570417E+03  0.00000000000E+00 0. -1.
         22    1    3    3    0    0 -0.62124068864E+01  0.60605337682E+02 -0.31190847859E+03  0.31780261164E+03  0.00000000000E+00 0.  1.
         22    1    3    3    0    0 -0.23400326891E+02 -0.40608685393E+02 -0.86442452265E+03  0.86569417001E+03  0.00000000000E+00 0.  1.
</event>
<event>
 7    1  0.5977291E-006  0.5060554E+02  0.7818608E-02  0.1476886E+00
          2   -1    0    0  502    0  0.00000000000E+00  0.00000000000E+00  0.48496398958E+03  0.48496398958E+03  0.00000000000E+00 0. -1.
          1   -1    0    0  501    0 -0.00000000000E+00 -0.00000000000E+00 -0.16209021522E+03  0.16209021522E+03  0.00000000000E+00 0. -1.
         25    2    1    2    0    0  0.13358015270E+02 -0.80554680411E+02  0.15608005956E+02  0.15012176159E+03  0.12500176137E+03 0.  0.
          2    1    1    2  501    0  0.84027137924E+01  0.47831221057E+02 -0.87575997056E+02  0.10013983507E+03  0.00000000000E+00 0. -1.
          1    1    1    2  502    0 -0.21760729062E+02  0.32723459354E+02  0.39484176547E+03  0.39679260815E+03  0.00000000000E+00 0. -1.
         22    1    3    3    0    0 -0.41325682054E+02 -0.82951839929E+02  0.21294738142E+02  0.95090933413E+02  0.00000000000E+00 0.  1.
         22    1    3    3    0    0  0.54683697324E+02  0.23971595187E+01 -0.56867321857E+01  0.55030828176E+02  0.00000000000E+00 0.  1.
</event>
<event>
 7    1  0.5977291E-006  0.4703286E+02  0.7818608E-02  0.1490012E+00
          2   -1    0    0  502    0  0.00000000000E+00  0.00000000000E+00  0.31188888955E+04  0.31188888955E+04  0.00000000000E+00 0. -1.
          1   -1    0    0  501    0 -0.00000000000E+00 -0.00000000000E+00 -0.21229913434E+03  0.21229913434E+03  0.00000000000E+00 0. -1.
         25    2    1    2    0    0  0.64599468302E+02  0.51614965935E+02  0.11329112039E+04  0.11427817462E+04  0.12500051043E+03 0.  0.
          2    1    1    2  501    0 -0.42459041312E+02 -0.20049261257E+02 -0.20451553760E+03  0.20983647963E+03  0.00000000000E+00 0. -1.
          1    1    1    2  502    0 -0.22140426990E+02 -0.31565704677E+02  0.19781940949E+04  0.19785698040E+04  0.00000000000E+00 0. -1.
         22    1    3    3    0    0 -0.10623366769E+02  0.70040225870E+02  0.62459410497E+03  0.62859866777E+03  0.00000000000E+00 0.  1.
         22    1    3    3    0    0  0.75222835072E+02 -0.18425259935E+02  0.50831709890E+03  0.51418307844E+03  0.00000000000E+00 0.  1.
</event>
<event>
 7    1  0.5977291E-006  0.1413108E+03  0.7818608E-02  0.1337003E+00
          2   -1    0    0  502    0  0.00000000000E+00  0.00000000000E+00  0.37663632778E+03  0.37663632778E+03  0.00000000000E+00 0. -1.
          1   -1    0    0  501    0 -0.00000000000E+00 -0.00000000000E+00 -0.51101362396E+03  0.51101362396E+03  0.00000000000E+00 0. -1.
         25    2    1    2    0    0 -0.14166509817E+02 -0.11978359629E+03 -0.67481767994E+02  0.18635398198E+03  0.12500087059E+03 0.  0.
          2    1    1    2  501    0  0.52649998842E+02  0.13720774954E+03 -0.36851198596E+03  0.39673551985E+03  0.00000000000E+00 0. -1.
          1    1    1    2  502    0 -0.38483489025E+02 -0.17424153241E+02  0.30161645778E+03  0.30456044991E+03  0.00000000000E+00 0. -1.
         22    1    3    3    0    0 -0.62305729623E+02 -0.98671617964E+02 -0.65343024137E+02  0.13374529128E+03  0.00000000000E+00 0. -1.
         22    1    3    3    0    0  0.48139219807E+02 -0.21111978331E+02 -0.21387438577E+01  0.52608690707E+02  0.00000000000E+00 0. -1.
</event>
<event>
 7    1  0.5977291E-006  0.8578215E+02  0.7818608E-02  0.1395311E+00
          2   -1    0    0  502    0  0.00000000000E+00  0.00000000000E+00  0.24280569023E+03  0.24280569023E+03  0.00000000000E+00 0. -1.
          1   -1    0    0  501    0 -0.00000000000E+00 -0.00000000000E+00 -0.12046230505E+04  0.12046230505E+04  0.00000000000E+00 0. -1.
         25    2    1    2    0    0 -0.51579667994E+02 -0.37352063732E+01 -0.21860286310E+03  0.25707684186E+03  0.12500750758E+03 0.  0.
          2    1    1    2  501    0 -0.27495733322E+02 -0.32822284558E+02 -0.95780010065E+03  0.95875666909E+03  0.00000000000E+00 0. -1.
          1    1    1    2  502    0  0.79075401316E+02  0.36557490931E+02  0.21458560348E+03  0.23159522978E+03  0.00000000000E+00 0. -1.
         22    1    3    3    0    0 -0.33873101367E+02  0.34294599458E+02 -0.20840282050E+03  0.21390475016E+03  0.00000000000E+00 0. -1.
         22    1    3    3    0    0 -0.17706566627E+02 -0.38029805831E+02 -0.10200042595E+02  0.43172091705E+02  0.00000000000E+00 0. -1.
</event>
<event>
 7    1  0.5977291E-006  0.9816915E+02  0.7818608E-02  0.1369009E+00
          2   -1    0    0  502    0  0.00000000000E+00  0.00000000000E+00  0.38061062766E+03  0.38061062766E+03  0.00000000000E+00 0. -1.
          1   -1    0    0  501    0 -0.00000000000E+00 -0.00000000000E+00 -0.22304123753E+04  0.22304123753E+04  0.00000000000E+00 0. -1.
         25    2    1    2    0    0 -0.51822488414E+02  0.13410648513E+03 -0.72862431688E+03  0.75312152427E+03  0.12501406127E+03 0.  0.
          2    1    1    2  501    0  0.20892331034E+02 -0.41357065009E+02 -0.14826835762E+04  0.14834073896E+04  0.00000000000E+00 0. -1.
          1    1    1    2  502    0  0.30930157380E+02 -0.92749420120E+02  0.36150614545E+03  0.37449408910E+03  0.00000000000E+00 0. -1.
         22    1    3    3    0    0  0.15012505026E+02  0.96939718338E+02 -0.25233173287E+03  0.27072862374E+03  0.00000000000E+00 0.  1.
         22    1    3    3    0    0 -0.66834993440E+02  0.37166766791E+02 -0.47629258401E+03  0.48239290053E+03  0.00000000000E+00 0.  1.
</event>
<event>
 7    1  0.5977291E-006  0.9352722E+02  0.7818608E-02  0.1378793E+00
          2   -1    0    0  502    0  0.00000000000E+00  0.00000000000E+00  0.33460427868E+04  0.33460427868E+04  0.00000000000E+00 0. -1.
          1   -1    0    0  501    0 -0.00000000000E+00 -0.00000000000E+00 -0.46483681540E+03  0.46483681540E+03  0.00000000000E+00 0. -1.
         25    2    1    2    0    0  0.11774529164E+03 -0.71983199083E+02  0.10144158862E+04  0.10313596455E+04  0.12497036990E+03 0.  0.
          2    1    1    2  501    0 -0.81319006957E+02  0.45780555287E+02 -0.45137489093E+03  0.46092074405E+03  0.00000000000E+00 0. -1.
          1    1    1    2  502    0 -0.36426284688E+02  0.26202643797E+02  0.23181649761E+04  0.23185992127E+04  0.00000000000E+00 0. -1.
         22    1    3    3    0    0  0.76222566698E+02 -0.10674661642E+03  0.67097491248E+03  0.68367540030E+03  0.00000000000E+00 0. -1.
         22    1    3    3    0    0  0.41522724947E+02  0.34763417336E+02  0.34344097376E+03  0.34768424516E+03  0.00000000000E+00 0. -1.
</event>
<event>
 7    1  0.5977291E-006  0.9588173E+02  0.7818608E-02  0.1453226E+00
          2   -1    0    0  502    0  0.00000000000E+00  0.00000000000E+00  0.46867447386E+01  0.46867447386E+01  0.00000000000E+00 0. -1.
          1   -1    0    0  501    0 -0.00000000000E+00 -0.00000000000E+00 -0.41668162127E+04  0.41668162127E+04  0.00000000000E+00 0. -1.
         25    2    1    2    0    0 -0.81925478144E+01 -0.99959491082E+02 -0.24199879686E+04  0.24252888675E+04  0.12500122002E+03 0.  0.
          2    1    1    2  501    0  0.30327324525E+02  0.89223646448E+02 -0.13239210819E+04  0.13272707473E+04  0.00000000000E+00 0. -1.
          1    1    1    2  502    0 -0.22134776711E+02  0.10735844634E+02 -0.41822041751E+03  0.41894334261E+03  0.00000000000E+00 0. -1.
         22    1    3    3    0    0 -0.43317681705E+02 -0.67266615687E+02 -0.68802015482E+03  0.69265644628E+03  0.00000000000E+00 0. -1.
         22    1    3    3    0    0  0.35125133891E+02 -0.32692875395E+02 -0.17319678138E+04  0.17326324212E+04  0.00000000000E+00 0. -1.
</event>
<event>
 7    1  0.5977291E-006  0.4786520E+02  0.7818608E-02  0.1490985E+00
          2   -1    0    0  502    0  0.00000000000E+00  0.00000000000E+00  0.91533964074E+03  0.91533964074E+03  0.00000000000E+00 0. -1.
          1   -1    0    0  501    0 -0.00000000000E+00 -0.00000000000E+00 -0.26922395551E+03  0.26922395551E+03  0.00000000000E+00 0. -1.
         25    2    1    2    0    0 -0.54145288887E+02  0.48991108962E+02  0.55091838052E+03  0.56962159047E+03  0.12500341302E+03 0.  0.
          2    1    1    2  501    0  0.16752982251E+02 -0.44765997854E+02 -0.25666272104E+03  0.26107548592E+03  0.00000000000E+00 0. -1.
          1    1    1    2  502    0  0.37392306637E+02 -0.42251111079E+01  0.35186002574E+03  0.35386651986E+03  0.00000000000E+00 0. -1.
         22    1    3    3    0    0  0.12769230477E+02  0.41750820592E+02  0.60512599786E+02  0.74618757695E+02  0.00000000000E+00 0.  1.
         22    1    3    3    0    0 -0.66914519364E+02  0.72402883703E+01  0.49040578074E+03  0.49500283278E+03  0.00000000000E+00 0.  1.
</event>
<event>
 7    1  0.5977291E-006  0.4575172E+02  0.7818608E-02  0.1548021E+00
          2   -1    0    0  502    0  0.00000000000E+00  0.00000000000E+00  0.33509480843E+03  0.33509480843E+03  0.00000000000E+00 0. -1.
          1   -1    0    0  501    0 -0.00000000000E+00 -0.00000000000E+00 -0.14236852654E+04  0.14236852654E+04  0.00000000000E+00 0. -1.
         25    2    1    2    0    0  0.95326643329E+01  0.52156634827E+02 -0.10714960943E+03  0.17296966419E+03  0.12500511863E+03 0.  0.
          2    1    1    2  501    0 -0.25254399681E+02 -0.91916381953E+01 -0.12817522688E+04  0.12820339892E+04  0.00000000000E+00 0. -1.
          1    1    1    2  502    0  0.15721735348E+02 -0.42964996632E+02  0.30031142123E+03  0.30377642045E+03  0.00000000000E+00 0. -1.
         22    1    3    3    0    0  0.53619529392E+02 -0.13129128056E+02 -0.58233343328E+02  0.80240577085E+02  0.00000000000E+00 0. -1.
         22    1    3    3    0    0 -0.44086865059E+02  0.65285762883E+02 -0.48916266099E+02  0.92729087104E+02  0.00000000000E+00 0. -1.
</event>
<event>
 7    1  0.5977291E-006  0.6610446E+02  0.7818608E-02  0.1485850E+00
          2   -1    0    0  502    0  0.00000000000E+00  0.00000000000E+00  0.17098365612E+04  0.17098365612E+04  0.00000000000E+00 0. -1.
          1   -1    0    0  501    0 -0.00000000000E+00 -0.00000000000E+00 -0.10435509991E+03  0.10435509991E+03  0.00000000000E+00 0. -1.
         25    2    1    2    0    0 -0.16893774364E+02 -0.60670518026E+02  0.20208228990E+03  0.24581758062E+03  0.12499087840E+03 0.  0.
          2    1    1    2  501    0 -0.26317367821E+02  0.10247074104E+02 -0.79304965980E+02  0.84183632648E+02  0.00000000000E+00 0. -1.
          1    1    1    2  502    0  0.43211142185E+02  0.50423443922E+02  0.14827041373E+04  0.14841904478E+04  0.00000000000E+00 0. -1.
         22    1    3    3    0    0  0.15470391438E+02 -0.37934471797E+02  0.11021662280E+01  0.40982580839E+02  0.00000000000E+00 0.  1.
         22    1    3    3    0    0 -0.32364165802E+02 -0.22736046228E+02  0.20098012367E+03  0.20483499979E+03  0.00000000000E+00 0.  1.
</event>
<event>
 7    1  0.5977291E-006  0.1475419E+03  0.7818608E-02  0.1332560E+00
          2   -1    0    0  502    0  0.00000000000E+00  0.00000000000E+00  0.13868436143E+04  0.13868436143E+04  0.00000000000E+00 0. -1.
          1   -1    0    0  501    0 -0.00000000000E+00 -0.00000000000E+00 -0.19366243310E+03  0.19366243310E+03  0.00000000000E+00 0. -1.
         25    2    1    2    0    0  0.14812815186E+03  0.10100232738E+03  0.51052956431E+02  0.22444534482E+03  0.12500355571E+03 0.  0.
          2    1    1    2  501    0 -0.11508531732E+03 -0.74977587236E+02 -0.62353335052E+02  0.15084497752E+03  0.00000000000E+00 0. -1.
          1    1    1    2  502    0 -0.33042834545E+02 -0.26024740144E+02  0.12044815598E+04  0.12052157251E+04  0.00000000000E+00 0. -1.
         22    1    3    3    0    0  0.10331265141E+03  0.46008570035E+02 -0.29727708665E+02  0.11693600438E+03  0.00000000000E+00 0.  1.
         22    1    3    3    0    0  0.44815500453E+02  0.54993757344E+02  0.80780665097E+02  0.10750934044E+03  0.00000000000E+00 0.  1.
</event>
<event>
 7    1  0.5977291E-006  0.1108705E+03  0.7818608E-02  0.1362181E+00
          2   -1    0    0  502    0  0.00000000000E+00  0.00000000000E+00  0.67340400157E+03  0.67340400157E+03  0.00000000000E+00 0. -1.
          1   -1    0    0  501    0 -0.00000000000E+00 -0.00000000000E+00 -0.18916201671E+04  0.18916201671E+04  0.00000000000E+00 0. -1.
         25    2    1    2    0    0  0.10734339452E+03  0.35568675090E+02 -0.31267983781E+03  0.35522046924E+03  0.12500066319E+03 0.  0.
          2    1    1    2  501    0 -0.23173334200E+02  0.36728989140E+02 -0.15526444764E+04  0.15532517157E+04  0.00000000000E+00 0. -1.
          1    1    1    2  502    0 -0.84170060321E+02 -0.72297664230E+02  0.64710814869E+03  0.65655198378E+03  0.00000000000E+00 0. -1.
         22    1    3    3    0    0  0.95770762253E+01 -0.20796465330E+02 -0.17819585658E+03  0.17966072654E+03  0.00000000000E+00 0. -1.
         22    1    3    3    0    0  0.97766318296E+02  0.56365140420E+02 -0.13448398123E+03  0.17555974270E+03  0.00000000000E+00 0. -1.
</event>
<event>
 7    1  0.5977291E-006  0.1399476E+03  0.7818608E-02  0.1280061E+00
          2   -1    0    0  502    0  0.00000000000E+00  0.00000000000E+00  0.17582491925E+04  0.17582491925E+04  0.00000000000E+00 0. -1.
          1   -1    0    0  501    0 -0.00000000000E+00 -0.00000000000E+00 -0.14430701987E+03  0.14430701987E+03  0.00000000000E+00 0. -1.
         25    2    1    2    0    0  0.17570290605E+02 -0.10074894482E+03  0.41263174562E+02  0.16669309967E+03  0.12499949963E+03 0.  0.
          2    1    1    2  501    0 -0.32482721186E+02  0.17079410360E+03  0.12783873952E+02  0.17432492774E+03  0.00000000000E+00 0. -1.
          1    1    1    2  502    0  0.14912430581E+02 -0.70045158773E+02  0.15598951242E+04  0.15615381850E+04  0.00000000000E+00 0. -1.
         22    1    3    3    0    0  0.38707418352E+02 -0.10597583576E+03 -0.77212385015E+01  0.11308739772E+03  0.00000000000E+00 0.  1.
         22    1    3    3    0    0 -0.21137127746E+02  0.52268909345E+01  0.48984413063E+02  0.53605701948E+02  0.00000000000E+00 0.  1.
</event>
<event>
 7    1  0.5977291E-006  0.5973126E+02  0.7818608E-02  0.1418911E+00
          2   -1    0    0  502    0  0.00000000000E+00  0.00000000000E+00  0.59657980271E+03  0.59657980271E+03  0.00000000000E+00 0. -1.
          1   -1    0    0  501    0 -0.00000000000E+00 -0.00000000000E+00 -0.35429856466E+03  0.35429856466E+03  0.00000000000E+00 0. -1.
         25    2    1    2    0    0 -0.38494049559E+02 -0.10033440530E+03 -0.30763931299E+02  0.16769189021E+03  0.12500146333E+03 0.  0.
          2    1    1    2  501    0  0.27743494086E+02  0.50369371046E+02 -0.25056954745E+03  0.25708339720E+03  0.00000000000E+00 0. -1.
          1    1    1    2  502    0  0.10750555473E+02  0.49965034255E+02  0.52361471680E+03  0.52610307996E+03  0.00000000000E+00 0. -1.
         22    1    3    3    0    0  0.13372152524E+02 -0.59541479100E+02 -0.68449657555E+02  0.91702550760E+02  0.00000000000E+00 0. -1.
         22    1    3    3    0    0 -0.51866202083E+02 -0.40792926202E+02  0.37685726255E+02  0.75989339450E+02  0.00000000000E+00 0. -1.
</event>
<event>
 7    1  0.5977291E-006  0.9162038E+02  0.7818608E-02  0.1316506E+00
          2   -1    0    0  502    0  0.00000000000E+00  0.00000000000E+00  0.50644379848E+02  0.50644379848E+02  0.00000000000E+00 0. -1.
          1   -1    0    0  501    0 -0.00000000000E+00 -0.00000000000E+00 -0.66853068839E+03  0.66853068839E+03  0.00000000000E+00 0. -1.
         25    2    1    2    0    0  0.29383935454E+02 -0.17624059900E+02 -0.27147797120E+03  0.30082696351E+03  0.12499019951E+03 0.  0.
          2    1    1    2  501    0  0.67559961520E+02 -0.39183616675E+02 -0.27343270029E+03  0.28436797605E+03  0.00000000000E+00 0. -1.
          1    1    1    2  502    0 -0.96943896974E+02  0.56807676575E+02 -0.72975637050E+02  0.13398012868E+03  0.00000000000E+00 0. -1.
         22    1    3    3    0    0  0.70547105583E+02 -0.13346163942E+02 -0.23478555218E+03  0.24551836939E+03  0.00000000000E+00 0.  1.
         22    1    3    3    0    0 -0.41163170129E+02 -0.42778959581E+01 -0.36692419025E+02  0.55308594114E+02  0.00000000000E+00 0.  1.
</event>
<event>
 7    1  0.5977291E-006  0.6668824E+02  0.7818608E-02  0.1396377E+00
          2   -1    0    0  502    0  0.00000000000E+00  0.00000000000E+00  0.36065825635E+04  0.36065825635E+04  0.00000000000E+00 0. -1.
          1   -1    0    0  501    0 -0.00000000000E+00 -0.00000000000E+00 -0.61853908276E+02  0.61853908276E+02  0.00000000000E+00 0. -1.
         25    2    1    2    0    0 -0.93296012612E+02 -0.59571516024E+02  0.15443114233E+03  0.22743739084E+03  0.12500351012E+03 0.  0.
          2    1    1    2  501    0  0.54293204727E+02  0.58788740552E+01  0.47670270496E+01  0.54818224949E+02  0.00000000000E+00 0. -1.
          1    1    1    2  502    0  0.39002807885E+02  0.53692641969E+02  0.33855304858E+04  0.33861808560E+04  0.00000000000E+00 0. -1.
         22    1    3    3    0    0 -0.10606115046E+03 -0.12433085785E+02  0.14083682371E+03  0.17674433561E+03  0.00000000000E+00 0.  1.
         22    1    3    3    0    0  0.12765137850E+02 -0.47138430239E+02  0.13594318619E+02  0.50693055229E+02  0.00000000000E+00 0.  1.
</event>
<event>
 7    1  0.5977291E-006  0.7127324E+02  0.7818608E-02  0.1424587E+00
          2   -1    0    0  502    0  0.00000000000E+00  0.00000000000E+00  0.25397406069E+03  0.25397406069E+03  0.00000000000E+00 0. -1.
          1   -1    0    0  501    0 -0.00000000000E+00 -0.00000000000E+00 -0.88985982587E+03  0.88985982587E+03  0.00000000000E+00 0. -1.
         25    2    1    2    0    0  0.75272128755E+02 -0.69874318270E+02  0.12691196008E+03  0.20562246987E+03  0.12500256311E+03 0.  0.
          2    1    1    2  501    0 -0.33840209882E+02  0.23160627128E+02 -0.83882679306E+03  0.83982853203E+03  0.00000000000E+00 0. -1.
          1    1    1    2  502    0 -0.41431918872E+02  0.46713691142E+02  0.76029067802E+02  0.98382884652E+02  0.00000000000E+00 0. -1.
         22    1    3    3    0    0  0.25408143382E+02  0.15541440623E+01 -0.21641435593E+02  0.33411687302E+02  0.00000000000E+00 0. -1.
         22    1    3    3    0    0  0.49863985373E+02 -0.71428462332E+02  0.14855339567E+03  0.17221078257E+03  0.00000000000E+00 0. -1.
</event>
<event>
 7    1  0.5977291E-006  0.1574822E+03  0.7818608E-02  0.1257564E+00
          2   -1    0    0  502    0  0.00000000000E+00  0.00000000000E+00  0.15354540363E+04  0.15354540363E+04  0.00000000000E+00 0. -1.
          1   -1    0    0  501    0 -0.00000000000E+00 -0.00000000000E+00 -0.25536170667E+03  0.25536170667E+03  0.00000000000E+00 0. -1.
         25    2    1    2    0    0  0.44232853125E+02 -0.27266559657E+02 -0.12698233403E+03  0.18560076163E+03  0.12499247574E+03 0.  0.
          2    1    1    2  501    0 -0.19110066283E+03 -0.29570849510E+02  0.40887811060E+01  0.19341824269E+03  0.00000000000E+00 0. -1.
          1    1    1    2  502    0  0.14686780970E+03  0.56837409166E+02  0.14029858826E+04  0.14117967387E+04  0.00000000000E+00 0. -1.
         22    1    3    3    0    0  0.16600074094E+02 -0.73642506638E+02 -0.99868958205E+02  0.12519021550E+03  0.00000000000E+00 0.  1.
         22    1    3    3    0    0  0.27632779031E+02  0.46375946981E+02 -0.27113375828E+02  0.60410546134E+02  0.00000000000E+00 0.  1.
</event>
<event>
 7    1  0.5977291E-006  0.6109057E+02  0.7818608E-02  0.1491036E+00
          2   -1    0    0  502    0  0.00000000000E+00  0.00000000000E+00  0.12562840564E+04  0.12562840564E+04  0.00000000000E+00 0. -1.
          1   -1    0    0  501    0 -0.00000000000E+00 -0.00000000000E+00 -0.22534182628E+03  0.22534182628E+03  0.00000000000E+00 0. -1.
         25    2    1    2    0    0 -0.17268169781E+02 -0.62079535862E+02  0.25338240832E+02  0.14289460038E+03  0.12499912764E+03 0.  0.
          2    1    1    2  501    0  0.41424953571E+02  0.45193865271E+02 -0.16072991062E+03  0.17202504586E+03  0.00000000000E+00 0. -1.
          1    1    1    2  502    0 -0.24156783790E+02  0.16885670590E+02  0.11663338999E+04  0.11667062364E+04  0.00000000000E+00 0. -1.
         22    1    3    3    0    0  0.41643173038E+02 -0.63164334452E+02  0.34699496310E+02  0.83234260083E+02  0.00000000000E+00 0. -1.
         22    1    3    3    0    0 -0.58911342819E+02  0.10847985900E+01 -0.93612554785E+01  0.59660340302E+02  0.00000000000E+00 0. -1.
</event>
<event>
 7    1  0.5977291E-006  0.7096806E+02  0.7818608E-02  0.1404351E+00
          2   -1    0    0  502    0  0.00000000000E+00  0.00000000000E+00  0.44111963691E+03  0.44111963691E+03  0.00000000000E+00 0. -1.
          1   -1    0    0  501    0 -0.00000000000E+00 -0.00000000000E+00 -0.54896037192E+03  0.54896037192E+03  0.00000000000E+00 0. -1.
         25    2    1    2    0    0  0.50279781699E+01 -0.70222375941E+02 -0.26090530956E+01  0.14348857621E+03  0.12500280676E+03 0.  0.
          2    1    1    2  501    0 -0.46702897679E+02  0.11834922011E+02 -0.47120109500E+03  0.47365778570E+03  0.00000000000E+00 0. -1.
          1    1    1    2  502    0  0.41674919509E+02  0.58387453930E+02  0.36596941308E+03  0.37293364692E+03  0.00000000000E+00 0. -1.
         22    1    3    3    0    0  0.28041551380E+02 -0.10778983373E+02  0.51668624245E+02  0.59767564930E+02  0.00000000000E+00 0. -1.
         22    1    3    3    0    0 -0.23013573210E+02 -0.59443392568E+02 -0.54277677341E+02  0.83721011278E+02  0.00000000000E+00 0. -1.
</event>
<event>
 7    1  0.5977291E-006  0.4547005E+02  0.7818608E-02  0.1588401E+00
          2   -1    0    0  502    0  0.00000000000E+00  0.00000000000E+00  0.93304292413E+03  0.93304292413E+03  0.00000000000E+00 0. -1.
          1   -1    0    0  501    0 -0.00000000000E+00 -0.00000000000E+00 -0.23221824946E+02  0.23221824946E+02  0.00000000000E+00 0. -1.
         25    2    1    2    0    0  0.24939346342E+02  0.14449480132E+02  0.35469658012E+03  0.37717860734E+03  0.12499311746E+03 0.  0.
          2    1    1    2  501    0 -0.45898544854E+02 -0.13278865947E+02  0.36730287008E+02  0.60267061354E+02  0.00000000000E+00 0. -1.
          1    1    1    2  502    0  0.20959198512E+02 -0.11706141846E+01  0.51839423206E+03  0.51881908038E+03  0.00000000000E+00 0. -1.
         22    1    3    3    0    0 -0.65648052798E+01 -0.39669501659E+02  0.41504168120E+02  0.57787213132E+02  0.00000000000E+00 0. -1.
         22    1    3    3    0    0  0.31504151622E+02  0.54118981791E+02  0.31319241200E+03  0.31939139421E+03  0.00000000000E+00 0. -1.
</event>
<event>
 7    1  0.5977291E-006  0.2563121E+02  0.7818608E-02  0.1661219E+00
          2   -1    0    0  502    0  0.00000000000E+00  0.00000000000E+00  0.11583077203E+04  0.11583077203E+04  0.00000000000E+00 0. -1.
          1   -1    0    0  501    0 -0.00000000000E+00 -0.00000000000E+00 -0.10178637764E+04  0.10178637764E+04  0.00000000000E+00 0. -1.
         25    2    1    2    0    0 -0.68523281168E+01  0.28802120779E+02  0.84976422256E+02  0.15402216356E+03  0.12500127186E+03 0.  0.
          2    1    1    2  501    0  0.22761761668E+02 -0.86637948005E+01 -0.98303154247E+03  0.98333319512E+03  0.00000000000E+00 0. -1.
          1    1    1    2  502    0 -0.15909433551E+02 -0.20138325978E+02  0.10384990642E+04  0.10388161380E+04  0.00000000000E+00 0. -1.
         22    1    3    3    0    0  0.22399078710E+02 -0.38090637566E+02  0.30624700955E+01  0.44294402810E+02  0.00000000000E+00 0.  1.
         22    1    3    3    0    0 -0.29251406827E+02  0.66892758345E+02  0.81913952161E+02  0.10972776075E+03  0.00000000000E+00 0.  1.
</event>
<event>
 7    1  0.5977291E-006  0.7237810E+02  0.7818608E-02  0.1365714E+00
          2   -1    0    0  502    0  0.00000000000E+00  0.00000000000E+00  0.11863369697E+04  0.11863369697E+04  0.00000000000E+00 0. -1.
          1   -1    0    0  501    0 -0.00000000000E+00 -0.00000000000E+00 -0.55448862653E+02  0.55448862653E+02  0.00000000000E+00 0. -1.
         25    2    1    2    0    0  0.30933317566E+02 -0.47150684626E+02  0.19993636406E+03  0.24244633008E+03  0.12500246437E+03 0.  0.
          2    1    1    2  501    0 -0.60746239550E+02 -0.21948230990E+02 -0.75924442192E+00  0.64594170907E+02  0.00000000000E+00 0. -1.
          1    1    1    2  502    0  0.29812921984E+02  0.69098915616E+02  0.93171098738E+03  0.93474533134E+03  0.00000000000E+00 0. -1.
         22    1    3    3    0    0  0.50546642618E+02 -0.63982905441E+02  0.20065560861E+03  0.21659050888E+03  0.00000000000E+00 0. -1.
         22    1    3    3    0    0 -0.19613325052E+02  0.16832220815E+02 -0.71924455185E+00  0.25855821200E+02  0.00000000000E+00 0. -1.
</event>
<event>
 7    1  0.5977291E-006  0.4575803E+02  0.7818608E-02  0.1479972E+00
          2   -1    0    0  502    0  0.00000000000E+00  0.00000000000E+00  0.10834068755E+03  0.10834068755E+03  0.00000000000E+00 0. -1.
          1   -1    0    0  501    0 -0.00000000000E+00 -0.00000000000E+00 -0.22953123250E+04  0.22953123250E+04  0.00000000000E+00 0. -1.
         25    2    1    2    0    0 -0.71514054843E+02  0.52974253788E+01 -0.67175539842E+02  0.15899633917E+03  0.12499983985E+03 0.  0.
          2    1    1    2  501    0  0.39593315107E+02  0.22795520198E+02 -0.21747178668E+04  0.21751977074E+04  0.00000000000E+00 0. -1.
          1    1    1    2  502    0  0.31920739736E+02 -0.28092945577E+02  0.54921769193E+02  0.69458965928E+02  0.00000000000E+00 0. -1.
         22    1    3    3    0    0  0.23702342824E+02  0.44284757419E+01  0.18900659046E+02  0.30637352449E+02  0.00000000000E+00 0. -1.
         22    1    3    3    0    0 -0.95216397667E+02  0.86894963697E+00 -0.86076198888E+02  0.12835898673E+03  0.00000000000E+00 0. -1.
</event>
<event>
 7    1  0.5977291E-006  0.7140194E+02  0.7818608E-02  0.1479350E+00
          2   -1    0    0  502    0  0.00000000000E+00  0.00000000000E+00  0.54919314567E+03  0.54919314567E+03  0.00000000000E+00 0. -1.
          1   -1    0    0  501    0 -0.00000000000E+00 -0.00000000000E+00 -0.13131484198E+03  0.13131484198E+03  0.00000000000E+00 0. -1.
         25    2    1    2    0    0 -0.19813785474E+02  0.41352357772E+02  0.21484386729E+03  0.25275532295E+03  0.12499904950E+03 0.  0.
          2    1    1    2  501    0  0.25253737343E+02 -0.68176815807E+02 -0.99916212630E+02  0.12356811486E+03  0.00000000000E+00 0. -1.
          1    1    1    2  502    0 -0.54399518687E+01  0.26824458035E+02  0.30295064903E+03  0.30418454985E+03  0.00000000000E+00 0. -1.
         22    1    3    3    0    0 -0.52471471085E+01  0.41727273651E+02  0.49385687732E+01  0.42344862506E+02  0.00000000000E+00 0.  1.
         22    1    3    3    0    0 -0.14566638366E+02 -0.37491587966E+00  0.20990529852E+03  0.21041046044E+03  0.00000000000E+00 0.  1.
</event>
<event>
 7    1  0.5977291E-006  0.8717483E+02  0.7818608E-02  0.1334519E+00
          2   -1    0    0  502    0  0.00000000000E+00  0.00000000000E+00  0.50856562950E+03  0.50856562950E+03  0.00000000000E+00 0. -1.
          1   -1    0    0  501    0 -0.00000000000E+00 -0.00000000000E+00 -0.77210586483E+03  0.77210586483E+03  0.00000000000E+00 0. -1.
         25    2    1    2    0    0 -0.29043609466E+01  0.21251699626E+02 -0.63310564565E+02  0.14175078211E+03  0.12499994637E+03 0.  0.
          2    1    1    2  501    0 -0.36847101652E+02  0.59490728968E+02 -0.66340369887E+03  0.66708419514E+03  0.00000000000E+00 0. -1.
          1    1    1    2  502    0  0.39751462599E+02 -0.80742428594E+02  0.46317402810E+03  0.47183651709E+03  0.00000000000E+00 0. -1.
         22    1    3    3    0    0 -0.59480297946E+02  0.22471024478E+02 -0.10687795511E+02  0.64475435305E+02  0.00000000000E+00 0.  1.
         22    1    3    3    0    0  0.56575937000E+02 -0.12193248521E+01 -0.52622769054E+02  0.77275346802E+02  0.00000000000E+00 0.  1.
</event>
<event>
 7    1  0.5977291E-006  0.1116612E+03  0.7818608E-02  0.1356362E+00
          2   -1    0    0  502    0  0.00000000000E+00  0.00000000000E+00  0.17539549288E+04  0.17539549288E+04  0.00000000000E+00 0. -1.
          1   -1    0    0  501    0 -0.00000000000E+00 -0.00000000000E+00 -0.34263897156E+02  0.34263897156E+02  0.00000000000E+00 0. -1.
         25    2    1    2    0    0 -0.49143108889E+02 -0.54722161648E+02  0.26334789685E+03  0.30064429896E+03  0.12500127837E+03 0.  0.
          2    1    1    2  501    0 -0.40976828425E+02 -0.19276184809E+02  0.25465744962E+02  0.51953594053E+02  0.00000000000E+00 0. -1.
          1    1    1    2  502    0  0.90119937314E+02  0.73998346456E+02  0.14308773898E+04  0.14356209329E+04  0.00000000000E+00 0. -1.
         22    1    3    3    0    0 -0.42721807695E+02  0.18011399325E+02  0.27846173421E+02  0.54083017044E+02  0.00000000000E+00 0.  1.
         22    1    3    3    0    0 -0.64213011935E+01 -0.72733560973E+02  0.23550172343E+03  0.24656128192E+03  0.00000000000E+00 0.  1.
</event>
<event>
 7    1  0.5977291E-006  0.2875502E+03  0.7818608E-02  0.1148781E+00
          2   -1    0    0  502    0  0.00000000000E+00  0.00000000000E+00  0.11056896369E+04  0.11056896369E+04  0.00000000000E+00 0. -1.
          1   -1    0    0  501    0 -0.00000000000E+00 -0.00000000000E+00 -0.11216196923E+04  0.11216196923E+04  0.00000000000E+00 0. -1.
         25    2    1    2    0    0  0.22854098371E+03 -0.19165461095E+03 -0.74568505852E+03  0.81279407073E+03  0.12500209507E+03 0.  0.
          2    1    1    2  501    0 -0.11911592891E+03 -0.74878134205E+02 -0.30740849451E+03  0.33807591159E+03  0.00000000000E+00 0. -1.
          1    1    1    2  502    0 -0.10942505481E+03  0.26653274515E+03  0.10371634976E+04  0.10764393469E+04  0.00000000000E+00 0. -1.
         22    1    3    3    0    0  0.10405941243E+03 -0.53537980544E+02 -0.15949136548E+03  0.19781853386E+03  0.00000000000E+00 0. -1.
         22    1    3    3    0    0  0.12448157129E+03 -0.13811663040E+03 -0.58619369304E+03  0.61497553687E+03  0.00000000000E+00 0. -1.
</event>
<event>
 7    1  0.5977291E-006  0.9615133E+02  0.7818608E-02  0.1321105E+00
          2   -1    0    0  502    0  0.00000000000E+00  0.00000000000E+00  0.56401232634E+03  0.56401232634E+03  0.00000000000E+00 0. -1.
          1   -1    0    0  501    0 -0.00000000000E+00 -0.00000000000E+00 -0.21436484805E+04  0.21436484805E+04  0.00000000000E+00 0. -1.
         25    2    1    2    0    0 -0.21063710401E+02  0.56851947446E+02 -0.29931090872E+03  0.32998210394E+03  0.12500138007E+03 0.  0.
          2    1    1    2  501    0  0.65046410527E+02  0.29489986767E+02 -0.18240194793E+04  0.18254171457E+04  0.00000000000E+00 0. -1.
          1    1    1    2  502    0 -0.43982700126E+02 -0.86341934214E+02  0.54369423393E+03  0.55226155716E+03  0.00000000000E+00 0. -1.
         22    1    3    3    0    0 -0.48074652966E+02  0.86162565111E+02 -0.20144060363E+03  0.22430665767E+03  0.00000000000E+00 0. -1.
         22    1    3    3    0    0  0.27010942565E+02 -0.29310617664E+02 -0.97870305096E+02  0.10567544628E+03  0.00000000000E+00 0. -1.
</event>
<event>
 7    1  0.5977291E-006  0.1196282E+03  0.7818608E-02  0.1354492E+00
          2   -1    0    0  502    0  0.00000000000E+00  0.00000000000E+00  0.15094400108E+04  0.15094400108E+04  0.00000000000E+00 0. -1.
          1   -1    0    0  501    0 -0.00000000000E+00 -0.00000000000E+00 -0.87421690145E+03  0.87421690145E+03  0.00000000000E+00 0. -1.
         25    2    1    2    0    0  0.82925353895E+02 -0.11679676389E+03 -0.44472264605E+03  0.48365464907E+03  0.12500195712E+03 0.  0.
          2    1    1    2  501    0 -0.83411718887E+02  0.73856890166E+02 -0.40214352796E+03  0.41729099218E+03  0.00000000000E+00 0. -1.
          1    1    1    2  502    0  0.48636499253E+00  0.42939873727E+02  0.14820892834E+04  0.14827112710E+04  0.00000000000E+00 0. -1.
         22    1    3    3    0    0 -0.27505730958E+02 -0.33949365753E+02 -0.55255258674E+02  0.70443369324E+02  0.00000000000E+00 0. -1.
         22    1    3    3    0    0  0.11043108485E+03 -0.82847398140E+02 -0.38946738738E+03  0.41321127975E+03  0.00000000000E+00 0. -1.
</event>
<event>
 7    1  0.5977291E-006  0.1731562E+03  0.7818608E-02  0.1276602E+00
          2   -1    0    0  502    0  0.00000000000E+00  0.00000000000E+00  0.49549164390E+04  0.49549164390E+04  0.00000000000E+00 0. -1.
          1   -1    0    0  501    0 -0.00000000000E+00 -0.00000000000E+00 -0.11510062659E+03  0.11510062659E+03  0.00000000000E+00 0. -1.
         25    2    1    2    0    0 -0.16312443301E+03  0.81907541486E+02  0.20318880523E+04  0.20438957719E+04  0.12498977288E+03 0.  0.
          2    1    1    2  501    0  0.17167433708E+03 -0.22699357471E+02 -0.39866907229E+02  0.17769836559E+03  0.00000000000E+00 0. -1.
          1    1    1    2  502    0 -0.85499040764E+01 -0.59208184016E+02  0.28477946674E+04  0.28484229281E+04  0.00000000000E+00 0. -1.
         22    1    3    3    0    0 -0.15607315818E+02  0.66214222602E+02  0.85341028089E+03  0.85611740965E+03  0.00000000000E+00 0. -1.
         22    1    3    3    0    0 -0.14751711719E+03  0.15693318884E+02  0.11784777714E+04  0.11877783622E+04  0.00000000000E+00 0. -1.
</event>
<event>
 7    1  0.5977291E-006  0.3620341E+02  0.7818608E-02  0.1621819E+00
          2   -1    0    0  502    0  0.00000000000E+00  0.00000000000E+00  0.93009144968E+03  0.93009144968E+03  0.00000000000E+00 0. -1.
          1   -1    0    0  501    0 -0.00000000000E+00 -0.00000000000E+00 -0.12408410049E+03  0.12408410049E+03  0.00000000000E+00 0. -1.
         25    2    1    2    0    0 -0.70303388583E+01  0.34461853995E+02  0.64454267331E+02  0.14497144400E+03  0.12500128781E+03 0.  0.
          2    1    1    2  501    0 -0.14537104178E+02 -0.33454494071E+02 -0.79708747181E+02  0.87658513269E+02  0.00000000000E+00 0. -1.
          1    1    1    2  502    0  0.21567443036E+02 -0.10073599236E+01  0.82126182904E+03  0.82154559290E+03  0.00000000000E+00 0. -1.
         22    1    3    3    0    0 -0.60193833910E+02  0.39388412900E+02  0.55449448134E+02  0.90826130656E+02  0.00000000000E+00 0.  1.
         22    1    3    3    0    0  0.53163495051E+02 -0.49265589049E+01  0.90048191969E+01  0.54145313347E+02  0.00000000000E+00 0.  1.
</event>
<event>
 7    1  0.5977291E-006  0.2249927E+03  0.7818608E-02  0.1261424E+00
          2   -1    0    0  502    0  0.00000000000E+00  0.00000000000E+00  0.14180141631E+04  0.14180141631E+04  0.00000000000E+00 0. -1.
          1   -1    0    0  501    0 -0.00000000000E+00 -0.00000000000E+00 -0.14214509545E+04  0.14214509545E+04  0.00000000000E+00 0. -1.
         25    2    1    2    0    0  0.70192026609E+02  0.25377319213E+03 -0.79135462406E+03  0.84332368934E+03  0.12499980138E+03 0.  0.
          2    1    1    2  501    0 -0.43568946923E+02 -0.30756110265E+02 -0.59384937832E+03  0.59623927713E+03  0.00000000000E+00 0. -1.
          1    1    1    2  502    0 -0.26623079685E+02 -0.22301708186E+03  0.13817672110E+04  0.13999021511E+04  0.00000000000E+00 0. -1.
         22    1    3    3    0    0  0.10665972815E+03  0.19315991689E+03 -0.60745184172E+03  0.64628537900E+03  0.00000000000E+00 0. -1.
         22    1    3    3    0    0 -0.36467701538E+02  0.60613275236E+02 -0.18390278233E+03  0.19703831034E+03  0.00000000000E+00 0. -1.
</event>
<event>
 7    1  0.5977291E-006  0.7156372E+02  0.7818608E-02  0.1376920E+00
          2   -1    0    0  502    0  0.00000000000E+00  0.00000000000E+00  0.13707349804E+04  0.13707349804E+04  0.00000000000E+00 0. -1.
          1   -1    0    0  501    0 -0.00000000000E+00 -0.00000000000E+00 -0.48159584512E+02  0.48159584512E+02  0.00000000000E+00 0. -1.
         25    2    1    2    0    0  0.83273859863E+02 -0.64996051280E+02  0.53567548875E+03  0.56011430373E+03  0.12498312515E+03 0.  0.
          2    1    1    2  501    0 -0.69982602744E+02  0.69494940637E+01  0.70192873931E+00  0.70330312515E+02  0.00000000000E+00 0. -1.
          1    1    1    2  502    0 -0.13291257119E+02  0.58046557217E+02  0.78619797844E+03  0.78844994871E+03  0.00000000000E+00 0. -1.
         22    1    3    3    0    0  0.70438783588E+02  0.19129713506E+02  0.17653492633E+03  0.19102918203E+03  0.00000000000E+00 0.  1.
         22    1    3    3    0    0  0.12835076276E+02 -0.84125764786E+02  0.35914056242E+03  0.36908512170E+03  0.00000000000E+00 0.  1.
</event>
<event>
 7    1  0.5977291E-006  0.5537117E+02  0.7818608E-02  0.1435237E+00
          2   -1    0    0  502    0  0.00000000000E+00  0.00000000000E+00  0.17572904383E+03  0.17572904383E+03  0.00000000000E+00 0. -1.
          1   -1    0    0  501    0 -0.00000000000E+00 -0.00000000000E+00 -0.69299531469E+03  0.69299531469E+03  0.00000000000E+00 0. -1.
         25    2    1    2    0    0 -0.16085817946E+02 -0.35847178815E+01  0.30496680960E+02  0.12973911427E+03  0.12502234393E+03 0.  0.
          2    1    1    2  501    0  0.20914093549E+02  0.52034347267E+02 -0.63586018174E+03  0.63832839772E+03  0.00000000000E+00 0. -1.
          1    1    1    2  502    0 -0.48282756037E+01 -0.48449629386E+02  0.88097229923E+02  0.10065684653E+03  0.00000000000E+00 0. -1.
         22    1    3    3    0    0 -0.24817789708E+02 -0.59353921266E+02  0.34770958948E+02  0.73128860525E+02  0.00000000000E+00 0.  1.
         22    1    3    3    0    0  0.87319717624E+01  0.55769203384E+02 -0.42742779876E+01  0.56610253747E+02  0.00000000000E+00 0.  1.
</event>
<event>
 7    1  0.5977291E-006  0.7376035E+02  0.7818608E-02  0.1352107E+00
          2   -1    0    0  502    0  0.00000000000E+00  0.00000000000E+00  0.18721991393E+04  0.18721991393E+04  0.00000000000E+00 0. -1.
          1   -1    0    0  501    0 -0.00000000000E+00 -0.00000000000E+00 -0.21833406979E+03  0.21833406979E+03  0.00000000000E+00 0. -1.
         25    2    1    2    0    0  0.12948360362E+02 -0.25054896951E+01  0.27236127699E+03  0.29996396302E+03  0.12499510548E+03 0.  0.
          2    1    1    2  501    0  0.22441502826E+02 -0.67434290479E+02 -0.19735714780E+03  0.20976379184E+03  0.00000000000E+00 0. -1.
          1    1    1    2  502    0 -0.35389863187E+02  0.69939780174E+02  0.15788609403E+04  0.15808054542E+04  0.00000000000E+00 0. -1.
         22    1    3    3    0    0  0.21993319509E+01 -0.55923653805E+02  0.66023661024E+02  0.86552966043E+02  0.00000000000E+00 0.  1.
         22    1    3    3    0    0  0.10749028411E+02  0.53418164110E+02  0.20633761597E+03  0.21341099698E+03  0.00000000000E+00 0.  1.
</event>
<event>
 7    1  0.5977291E-006  0.7169642E+02  0.7818608E-02  0.1484829E+00
          2   -1    0    0  502    0  0.00000000000E+00  0.00000000000E+00  0.15289426589E+04  0.15289426589E+04  0.00000000000E+00 0. -1.
          1   -1    0    0  501    0 -0.00000000000E+00 -0.00000000000E+00 -0.23128816602E+03  0.23128816602E+03  0.00000000000E+00 0. -1.
         25    2    1    2    0    0  0.74521860597E+02  0.17994387168E+02 -0.14203867606E+02  0.14732305717E+03  0.12500011057E+03 0.  0.
          2    1    1    2  501    0 -0.59639144841E+02 -0.39588877955E+02 -0.14188932905E+03  0.15892353052E+03  0.00000000000E+00 0. -1.
          1    1    1    2  502    0 -0.14882715756E+02  0.21594490786E+02  0.14537476895E+04  0.14539842372E+04  0.00000000000E+00 0. -1.
         22    1    3    3    0    0 -0.32702820506E+02 -0.86028775193E+01  0.77414892669E+01  0.34690267032E+02  0.00000000000E+00 0.  1.
         22    1    3    3    0    0  0.10722468110E+03  0.26597264688E+02 -0.21945356873E+02  0.11263279014E+03  0.00000000000E+00 0.  1.
</event>
<event>
 7    1  0.5977291E-006  0.1053402E+03  0.7818608E-02  0.1325312E+00
          2   -1    0    0  502    0  0.00000000000E+00  0.00000000000E+00  0.17248403115E+04  0.17248403115E+04  0.00000000000E+00 0. -1.
          1   -1    0    0  501    0 -0.00000000000E+00 -0.00000000000E+00 -0.49549626909E+03  0.49549626909E+03  0.00000000000E+00 0. -1.
         25    2    1    2    0    0 -0.75658951630E+02  0.14819947340E+02  0.48903308620E+03  0.51060886267E+03  0.12499657370E+03 0.  0.
          2    1    1    2  501    0 -0.95365683389E+01  0.62067686351E+02 -0.47997094233E+03  0.48406141067E+03  0.00000000000E+00 0. -1.
          1    1    1    2  502    0  0.85195519969E+02 -0.76887633691E+02  0.12202818985E+04  0.12256663072E+04  0.00000000000E+00 0. -1.
         22    1    3    3    0    0 -0.31077090578E+02  0.32982628940E+02  0.44623245291E+02  0.63599319107E+02  0.00000000000E+00 0.  1.
         22    1    3    3    0    0 -0.44581861052E+02 -0.18162681600E+02  0.44440984091E+03  0.44700954357E+03  0.00000000000E+00 0.  1.
</event>
<event>
 7    1  0.5977291E-006  0.6671819E+02  0.7818608E-02  0.1405805E+00
          2   -1    0    0  502    0  0.00000000000E+00  0.00000000000E+00  0.71347308726E+03  0.71347308726E+03  0.00000000000E+00 0. -1.
          1   -1    0    0  501    0 -0.00000000000E+00 -0.00000000000E+00 -0.14775895059E+03  0.14775895059E+03  0.00000000000E+00 0. -1.
         25    2    1    2    0    0 -0.10906619172E+03  0.23492493413E+02  0.32129460167E+02  0.17060117848E+03  0.12500051386E+03 0.  0.
          2    1    1    2  501    0  0.50329443126E+02  0.58283881177E+01 -0.68375623351E+02  0.85101403173E+02  0.00000000000E+00 0. -1.
          1    1    1    2  502    0  0.58736748596E+02 -0.29320881531E+02  0.60196029985E+03  0.60552945620E+03  0.00000000000E+00 0. -1.
         22    1    3    3    0    0 -0.10813709097E+03  0.62841353993E+02  0.38203845692E+02  0.13077538010E+03  0.00000000000E+00 0.  1.
         22    1    3    3    0    0 -0.92910075245E+00 -0.39348860580E+02 -0.60743855252E+01  0.39825798380E+02  0.00000000000E+00 0.  1.
</event>
<event>
 7    1  0.5977291E-006  0.1600336E+03  0.7818608E-02  0.1254692E+00
          2   -1    0    0  502    0  0.00000000000E+00  0.00000000000E+00  0.51733567609E+03  0.51733567609E+03  0.00000000000E+00 0. -1.
          1   -1    0    0  501    0 -0.00000000000E+00 -0.00000000000E+00 -0.50051547656E+03  0.50051547656E+03  0.00000000000E+00 0. -1.
         25    2    1    2    0    0 -0.14469713048E+03  0.10346985220E+03 -0.93721240830E+02  0.23675285329E+03  0.12499989070E+03 0.  0.
          2    1    1    2  501    0  0.70410756399E+02  0.38236748839E+02 -0.31575683041E+03  0.32576387082E+03  0.00000000000E+00 0. -1.
          1    1    1    2  502    0  0.74286374080E+02 -0.14170660104E+03  0.42629827077E+03  0.45533442854E+03  0.00000000000E+00 0. -1.
         22    1    3    3    0    0 -0.31125386821E+00  0.77415217211E+01  0.25371755734E+02  0.26528362682E+02  0.00000000000E+00 0.  1.
         22    1    3    3    0    0 -0.14438587661E+03  0.95728330478E+02 -0.11909299656E+03  0.21022449061E+03  0.00000000000E+00 0.  1.
</event>
<event>
 7    1  0.5977291E-006  0.1235294E+03  0.7818608E-02  0.1284255E+00
          2   -1    0    0  502    0  0.00000000000E+00  0.00000000000E+00  0.24665581940E+04  0.24665581940E+04  0.00000000000E+00 0. -1.
          1   -1    0    0  501    0 -0.00000000000E+00 -0.00000000000E+00 -0.14393751619E+03  0.14393751619E+03  0.00000000000E+00 0. -1.
         25    2    1    2    0    0  0.40262490518E+02 -0.10524090275E+03  0.35087471686E+03  0.38914519864E+03  0.12499681172E+03 0.  0.
          2    1    1    2  501    0  0.36076250825E+02  0.12110853534E+03 -0.91888079827E+02  0.15624401563E+03  0.00000000000E+00 0. -1.
          1    1    1    2  502    0 -0.76338741343E+02 -0.15867632586E+02  0.20636340408E+04  0.20651064960E+04  0.00000000000E+00 0. -1.
         22    1    3    3    0    0 -0.40362576327E+02 -0.40957611408E+02  0.74159421244E+02  0.93841799105E+02  0.00000000000E+00 0. -1.
         22    1    3    3    0    0  0.80625066845E+02 -0.64283291346E+02  0.27671529562E+03  0.29530339954E+03  0.00000000000E+00 0. -1.
</event>
<event>
 7    1  0.5977291E-006  0.5622470E+02  0.7818608E-02  0.1436079E+00
          2   -1    0    0  502    0  0.00000000000E+00  0.00000000000E+00  0.19311730278E+04  0.19311730278E+04  0.00000000000E+00 0. -1.
          1   -1    0    0  501    0 -0.00000000000E+00 -0.00000000000E+00 -0.62627777414E+02  0.62627777414E+02  0.00000000000E+00 0. -1.
         25    2    1    2    0    0  0.13868145052E+01  0.90568966687E+01  0.14168158994E+04  0.14223488349E+04  0.12499985890E+03 0.  0.
          2    1    1    2  501    0  0.17650884511E+00 -0.56678907288E+02 -0.45044406860E+02  0.72398399679E+02  0.00000000000E+00 0. -1.
          1    1    1    2  502    0 -0.15633233503E+01  0.47622010619E+02  0.49677375784E+03  0.49905357062E+03  0.00000000000E+00 0. -1.
         22    1    3    3    0    0 -0.65921249739E+01  0.10885186740E+02  0.11943297441E+02  0.17452385390E+02  0.00000000000E+00 0.  1.
         22    1    3    3    0    0  0.79789394791E+01 -0.18282900709E+01  0.14048726020E+04  0.14048964495E+04  0.00000000000E+00 0.  1.
</event>
<event>
 7    1  0.5977291E-006  0.1077356E+03  0.7818608E-02  0.1325136E+00
          2   -1    0    0  502    0  0.00000000000E+00  0.00000000000E+00  0.11086503485E+03  0.11086503485E+03  0.00000000000E+00 0. -1.
          1   -1    0    0  501    0 -0.00000000000E+00 -0.00000000000E+00 -0.31892351717E+03  0.31892351717E+03  0.00000000000E+00 0. -1.
         25    2    1    2    0    0 -0.84863773821E+02  0.37447047591E+02 -0.64363155473E+02  0.16843718344E+03  0.12499730998E+03 0.  0.
          2    1    1    2  501    0 -0.36716377478E+02 -0.49332345170E+02 -0.12291004052E+03  0.13743598771E+03  0.00000000000E+00 0. -1.
          1    1    1    2  502    0  0.12158015130E+03  0.11885297579E+02 -0.20785286324E+02  0.12391538087E+03  0.00000000000E+00 0. -1.
         22    1    3    3    0    0 -0.68428207267E+02  0.80962815782E+02 -0.59767732768E+02  0.12169461356E+03  0.00000000000E+00 0. -1.
         22    1    3    3    0    0 -0.16435566554E+02 -0.43515768191E+02 -0.45954227050E+01  0.46742569881E+02  0.00000000000E+00 0. -1.
</event>
<event>
 7    1  0.5977291E-006  0.5549142E+02  0.7818608E-02  0.1425126E+00
          2   -1    0    0  502    0  0.00000000000E+00  0.00000000000E+00  0.55779958526E+02  0.55779958526E+02  0.00000000000E+00 0. -1.
          1   -1    0    0  501    0 -0.00000000000E+00 -0.00000000000E+00 -0.18040238104E+04  0.18040238104E+04  0.00000000000E+00 0. -1.
         25    2    1    2    0    0 -0.48369546726E+02 -0.42569233771E+02 -0.82713353200E+03  0.83900341150E+03  0.12500036809E+03 0.  0.
          2    1    1    2  501    0  0.50778758481E+02 -0.13148065997E+02 -0.95440704062E+03  0.95584734824E+03  0.00000000000E+00 0. -1.
          1    1    1    2  502    0 -0.24092117550E+01  0.55717299769E+02  0.33296720726E+02  0.64953009214E+02  0.00000000000E+00 0. -1.
         22    1    3    3    0    0 -0.13106793835E+02  0.28292158438E+02 -0.58371654067E+02  0.66177672007E+02  0.00000000000E+00 0. -1.
         22    1    3    3    0    0 -0.35262752891E+02 -0.70861392209E+02 -0.76876187794E+03  0.77282573949E+03  0.00000000000E+00 0. -1.
</event>
<event>
 7    1  0.5977291E-006  0.6858447E+02  0.7818608E-02  0.1438293E+00
          2   -1    0    0  502    0  0.00000000000E+00  0.00000000000E+00  0.66643529250E+03  0.66643529250E+03  0.00000000000E+00 0. -1.
          1   -1    0    0  501    0 -0.00000000000E+00 -0.00000000000E+00 -0.15526937882E+04  0.15526937882E+04  0.00000000000E+00 0. -1.
         25    2    1    2    0    0  0.86129559501E+02 -0.47498255419E+02 -0.87748216414E+03  0.89178313390E+03  0.12501129648E+03 0.  0.
          2    1    1    2  501    0 -0.38381482473E+02 -0.16637579919E+01 -0.66572484047E+03  0.66683241486E+03  0.00000000000E+00 0. -1.
          1    1    1    2  502    0 -0.47748077028E+02  0.49162013411E+02  0.65694850895E+03  0.66051353191E+03  0.00000000000E+00 0. -1.
         22    1    3    3    0    0  0.10086128094E+03  0.31751721861E+01 -0.67666063663E+03  0.68414376915E+03  0.00000000000E+00 0.  1.
         22    1    3    3    0    0 -0.14731721441E+02 -0.50673427605E+02 -0.20082152751E+03  0.20763936475E+03  0.00000000000E+00 0.  1.
</event>
<event>
 7    1  0.5977291E-006  0.1804131E+03  0.7818608E-02  0.1211266E+00
          2   -1    0    0  502    0  0.00000000000E+00  0.00000000000E+00  0.34837039641E+04  0.34837039641E+04  0.00000000000E+00 0. -1.
          1   -1    0    0  501    0 -0.00000000000E+00 -0.00000000000E+00 -0.85844424943E+03  0.85844424943E+03  0.00000000000E+00 0. -1.
         25    2    1    2    0    0  0.24539882203E+03 -0.64505854593E+02  0.38431475939E+03  0.47718432934E+03  0.12500185099E+03 0.  0.
          2    1    1    2  501    0 -0.10310615304E+03 -0.41246023006E+02 -0.80562358209E+03  0.81324133517E+03  0.00000000000E+00 0. -1.
          1    1    1    2  502    0 -0.14229266899E+03  0.10575187760E+03  0.30465685373E+04  0.30517225490E+04  0.00000000000E+00 0. -1.
         22    1    3    3    0    0  0.13247208163E+03 -0.93110517133E+02  0.26410021815E+03  0.30978596811E+03  0.00000000000E+00 0. -1.
         22    1    3    3    0    0  0.11292674040E+03  0.28604662539E+02  0.12021454124E+03  0.16739836123E+03  0.00000000000E+00 0. -1.
</event>
<event>
 7    1  0.5977291E-006  0.5484061E+02  0.7818608E-02  0.1477773E+00
          2   -1    0    0  502    0  0.00000000000E+00  0.00000000000E+00  0.20337700807E+04  0.20337700807E+04  0.00000000000E+00 0. -1.
          1   -1    0    0  501    0 -0.00000000000E+00 -0.00000000000E+00 -0.99365289465E+03  0.99365289465E+03  0.00000000000E+00 0. -1.
         25    2    1    2    0    0 -0.17348054944E+02  0.20496222951E+02  0.83934155626E+02  0.15294143161E+03  0.12500035543E+03 0.  0.
          2    1    1    2  501    0  0.10916641924E+02  0.34342743988E+02 -0.95841263915E+03  0.95908987275E+03  0.00000000000E+00 0. -1.
          1    1    1    2  502    0  0.64314130204E+01 -0.54838966938E+02  0.19145956696E+04  0.19153916710E+04  0.00000000000E+00 0. -1.
         22    1    3    3    0    0  0.31413815004E+02  0.47541083198E+02  0.62595597626E+01  0.57325077001E+02  0.00000000000E+00 0. -1.
         22    1    3    3    0    0 -0.48761869948E+02 -0.27044860247E+02  0.77674595863E+02  0.95616354611E+02  0.00000000000E+00 0. -1.
</event>
<event>
 7    1  0.5977291E-006  0.4073105E+02  0.7818608E-02  0.1502905E+00
          2   -1    0    0  502    0  0.00000000000E+00  0.00000000000E+00  0.20450952200E+04  0.20450952200E+04  0.00000000000E+00 0. -1.
          1   -1    0    0  501    0 -0.00000000000E+00 -0.00000000000E+00 -0.30490748363E+03  0.30490748363E+03  0.00000000000E+00 0. -1.
         25    2    1    2    0    0 -0.87352849411E+01 -0.36545397111E+02  0.11290530424E+03  0.17258288933E+03  0.12500149884E+03 0.  0.
          2    1    1    2  501    0 -0.30916990520E+02  0.26517132100E+02 -0.27333964514E+03  0.27635770335E+03  0.00000000000E+00 0. -1.
          1    1    1    2  502    0  0.39652275461E+02  0.10028265011E+02  0.19006220773E+04  0.19010621110E+04  0.00000000000E+00 0. -1.
         22    1    3    3    0    0 -0.13684094408E+02 -0.16317670416E+02  0.13819306972E+03  0.13982433739E+03  0.00000000000E+00 0.  1.
         22    1    3    3    0    0  0.49488094670E+01 -0.20227726696E+02 -0.25287765481E+02  0.32758551944E+02  0.00000000000E+00 0.  1.
</event>
<event>
 7    1  0.5977291E-006  0.1033401E+03  0.7818608E-02  0.1435094E+00
          2   -1    0    0  502    0  0.00000000000E+00  0.00000000000E+00  0.13223744401E+04  0.13223744401E+04  0.00000000000E+00 0. -1.
          1   -1    0    0  501    0 -0.00000000000E+00 -0.00000000000E+00 -0.98240506179E+02  0.98240506179E+02  0.00000000000E+00 0. -1.
         25    2    1    2    0    0 -0.10627630210E+03  0.64677641075E+02  0.49424709524E+03  0.52476913067E+03  0.12499839883E+03 0.  0.
          2    1    1    2  501    0  0.92952988506E+02 -0.42214917650E+02 -0.51278057598E+02  0.11424445954E+03  0.00000000000E+00 0. -1.
          1    1    1    2  502    0  0.13323313591E+02 -0.22462723425E+02  0.78116489628E+03  0.78160135607E+03  0.00000000000E+00 0. -1.
         22    1    3    3    0    0 -0.53287351377E+02 -0.10348625345E+02  0.34701551162E+03  0.35123553517E+03  0.00000000000E+00 0. -1.
         22    1    3    3    0    0 -0.52988950720E+02  0.75026266419E+02  0.14723158362E+03  0.17353359550E+03  0.00000000000E+00 0. -1.
</event>
<event>
 7    1  0.5977291E-006  0.8834042E+02  0.7818608E-02  0.1427603E+00
          2   -1    0    0  502    0  0.00000000000E+00  0.00000000000E+00  0.12319141696E+04  0.12319141696E+04  0.00000000000E+00 0. -1.
          1   -1    0    0  501    0 -0.00000000000E+00 -0.00000000000E+00 -0.42871043882E+02  0.42871043882E+02  0.00000000000E+00 0. -1.
         25    2    1    2    0    0  0.77695459947E+02  0.94494159470E+01  0.61323146910E+03  0.63071580658E+03  0.12499487194E+03 0.  0.
          2    1    1    2  501    0 -0.79470895517E+02 -0.41733337184E+02  0.26200565266E+02  0.93508097441E+02  0.00000000000E+00 0. -1.
          1    1    1    2  502    0  0.17754355704E+01  0.32283921237E+02  0.54961109139E+03  0.55056130950E+03  0.00000000000E+00 0. -1.
         22    1    3    3    0    0  0.26767511140E+02  0.65887893611E+02  0.27504660810E+03  0.28409215196E+03  0.00000000000E+00 0.  1.
         22    1    3    3    0    0  0.50927948807E+02 -0.56438477664E+02  0.33818486100E+03  0.34662365462E+03  0.00000000000E+00 0.  1.
</event>
<event>
 7    1  0.5977291E-006  0.4232588E+02  0.7818608E-02  0.1568151E+00
          2   -1    0    0  502    0  0.00000000000E+00  0.00000000000E+00  0.55986648237E+02  0.55986648237E+02  0.00000000000E+00 0. -1.
          1   -1    0    0  501    0 -0.00000000000E+00 -0.00000000000E+00 -0.27982134211E+04  0.27982134211E+04  0.00000000000E+00 0. -1.
         25    2    1    2    0    0 -0.89009558673E+01 -0.18226712542E+02 -0.20553139139E+03  0.24141192770E+03  0.12500050370E+03 0.  0.
          2    1    1    2  501    0  0.10333208185E+01  0.42547841906E+02 -0.25702520562E+04  0.25706044074E+04  0.00000000000E+00 0. -1.
          1    1    1    2  502    0  0.78676350488E+01 -0.24321129364E+02  0.33556674765E+02  0.42183734260E+02  0.00000000000E+00 0. -1.
         22    1    3    3    0    0 -0.88036877388E+01  0.52826935069E+02 -0.11009369099E+03  0.12242879882E+03  0.00000000000E+00 0. -1.
         22    1    3    3    0    0 -0.97268128487E-01 -0.71053647610E+02 -0.95437700401E+02  0.11898312888E+03  0.00000000000E+00 0. -1.
</event>
<event>
 7    1  0.5977291E-006  0.1365118E+03  0.7818608E-02  0.1246704E+00
          2   -1    0    0  502    0  0.00000000000E+00  0.00000000000E+00  0.11314089151E+04  0.11314089151E+04  0.00000000000E+00 0. -1.
          1   -1    0    0  501    0 -0.00000000000E+00 -0.00000000000E+00 -0.20590424770E+03  0.20590424770E+03  0.00000000000E+00 0. -1.
         25    2    1    2    0    0  0.64614761450E+02  0.77511189214E+02  0.22130189062E+03  0.27346623671E+03  0.12500481582E+03 0.  0.
          2    1    1    2  501    0  0.12870518015E+02 -0.14341523886E+03 -0.14747691313E+03  0.20611409675E+03  0.00000000000E+00 0. -1.
          1    1    1    2  502    0 -0.77485279465E+02  0.65904049647E+02  0.85167968988E+03  0.85773282929E+03  0.00000000000E+00 0. -1.
         22    1    3    3    0    0  0.52526606709E+02  0.10296379568E+03  0.21572787030E+03  0.24474292974E+03  0.00000000000E+00 0. -1.
         22    1    3    3    0    0  0.12088154741E+02 -0.25452606467E+02  0.55740203218E+01  0.28723306975E+02  0.00000000000E+00 0. -1.
</event>
<event>
 7    1  0.5977291E-006  0.4234216E+02  0.7818608E-02  0.1531877E+00
          2   -1    0    0  502    0  0.00000000000E+00  0.00000000000E+00  0.63762020401E+03  0.63762020401E+03  0.00000000000E+00 0. -1.
          1   -1    0    0  501    0 -0.00000000000E+00 -0.00000000000E+00 -0.15304737103E+03  0.15304737103E+03  0.00000000000E+00 0. -1.
         25    2    1    2    0    0 -0.23145407870E+02  0.10861409997E+02  0.27673537139E+03  0.30473124406E+03  0.12499994078E+03 0.  0.
          2    1    1    2  501    0  0.38990983959E+02  0.17235464171E+02 -0.13500701344E+03  0.14157772330E+03  0.00000000000E+00 0. -1.
          1    1    1    2  502    0 -0.15845576090E+02 -0.28096874168E+02  0.34284447503E+03  0.34435860768E+03  0.00000000000E+00 0. -1.
         22    1    3    3    0    0  0.17611172223E+02  0.53188468892E+02  0.69201670533E+02  0.89039529507E+02  0.00000000000E+00 0. -1.
         22    1    3    3    0    0 -0.40756580093E+02 -0.42327058896E+02  0.20753370086E+03  0.21569171456E+03  0.00000000000E+00 0. -1.
</event>
<event>
 7    1  0.5977291E-006  0.6283624E+02  0.7818608E-02  0.1517622E+00
          2   -1    0    0  502    0  0.00000000000E+00  0.00000000000E+00  0.25909879322E+03  0.25909879322E+03  0.00000000000E+00 0. -1.
          1   -1    0    0  501    0 -0.00000000000E+00 -0.00000000000E+00 -0.90841175671E+03  0.90841175671E+03  0.00000000000E+00 0. -1.
         25    2    1    2    0    0 -0.72873062968E+02 -0.40613189060E+02 -0.34373408181E+03  0.37515162729E+03  0.12500284008E+03 0.  0.
          2    1    1    2  501    0  0.55754403842E+02  0.23941235036E+02 -0.54669985410E+03  0.55005678503E+03  0.00000000000E+00 0. -1.
          1    1    1    2  502    0  0.17118659126E+02  0.16671954023E+02  0.24112097243E+03  0.24230213760E+03  0.00000000000E+00 0. -1.
         22    1    3    3    0    0 -0.78724171485E+02 -0.51245486809E+02 -0.12641504990E+03  0.15749399968E+03  0.00000000000E+00 0.  1.
         22    1    3    3    0    0  0.58511085168E+01  0.10632297749E+02 -0.21731903191E+03  0.21765762761E+03  0.00000000000E+00 0.  1.
</event>
<event>
 7    1  0.5977291E-006  0.6125594E+02  0.7818608E-02  0.1401133E+00
          2   -1    0    0  502    0  0.00000000000E+00  0.00000000000E+00  0.55691044646E+02  0.55691044646E+02  0.00000000000E+00 0. -1.
          1   -1    0    0  501    0 -0.00000000000E+00 -0.00000000000E+00 -0.35044153819E+03  0.35044153819E+03  0.00000000000E+00 0. -1.
         25    2    1    2    0    0  0.75944059153E+02  0.46944987425E+02 -0.21210223204E+03  0.26188387505E+03  0.12499790081E+03 0.  0.
          2    1    1    2  501    0 -0.17603017052E+02 -0.54479266630E+02 -0.54463096428E+02  0.79019526539E+02  0.00000000000E+00 0. -1.
          1    1    1    2  502    0 -0.58341042100E+02  0.75342792050E+01 -0.28185165076E+02  0.65229181252E+02  0.00000000000E+00 0. -1.
         22    1    3    3    0    0 -0.31970101221E+02 -0.56758953248E+01 -0.33275965977E+02  0.46492935717E+02  0.00000000000E+00 0.  1.
         22    1    3    3    0    0  0.10791416037E+03  0.52620882750E+02 -0.17882626607E+03  0.21539093933E+03  0.00000000000E+00 0.  1.
</event>
<event>
 7    1  0.5977291E-006  0.5991702E+02  0.7818608E-02  0.1477966E+00
          2   -1    0    0  502    0  0.00000000000E+00  0.00000000000E+00  0.19934972625E+03  0.19934972625E+03  0.00000000000E+00 0. -1.
          1   -1    0    0  501    0 -0.00000000000E+00 -0.00000000000E+00 -0.11283598408E+04  0.11283598408E+04  0.00000000000E+00 0. -1.
         25    2    1    2    0    0  0.52749497826E+02 -0.71489701270E+02 -0.49426027279E+03  0.51750488582E+03  0.12499921075E+03 0.  0.
          2    1    1    2  501    0 -0.80869759268E+01  0.31929823995E+02 -0.61728652241E+03  0.61816467352E+03  0.00000000000E+00 0. -1.
          1    1    1    2  502    0 -0.44662521899E+02  0.39559877274E+02  0.18253668068E+03  0.19204000767E+03  0.00000000000E+00 0. -1.
         22    1    3    3    0    0 -0.14309548570E+02 -0.81146789228E+02 -0.32263634300E+03  0.33299215367E+03  0.00000000000E+00 0.  1.
         22    1    3    3    0    0  0.67059046396E+02  0.96570879588E+01 -0.17162392979E+03  0.18451273215E+03  0.00000000000E+00 0.  1.
</event>
<event>
 7    1  0.5977291E-006  0.9989830E+02  0.7818608E-02  0.1364864E+00
          2   -1    0    0  502    0  0.00000000000E+00  0.00000000000E+00  0.35683710761E+03  0.35683710761E+03  0.00000000000E+00 0. -1.
          1   -1    0    0  501    0 -0.00000000000E+00 -0.00000000000E+00 -0.11630827811E+04  0.11630827811E+04  0.00000000000E+00 0. -1.
         25    2    1    2    0    0  0.73908210091E+02 -0.78663353453E+02  0.23772411198E+03  0.28946218054E+03  0.12500101539E+03 0.  0.
          2    1    1    2  501    0  0.16851800950E+02  0.44013733162E+02 -0.11112734772E+04  0.11122724185E+04  0.00000000000E+00 0. -1.
          1    1    1    2  502    0 -0.90760011041E+02  0.34649620292E+02  0.67303691661E+02  0.11818528970E+03  0.00000000000E+00 0. -1.
         22    1    3    3    0    0  0.47863483436E+02 -0.37778886195E+02  0.16752743355E+02  0.63236158159E+02  0.00000000000E+00 0.  1.
         22    1    3    3    0    0  0.26044726655E+02 -0.40884467259E+02  0.22097136862E+03  0.22622602238E+03  0.00000000000E+00 0.  1.
</event>
<event>
 7    1  0.5977291E-006  0.7872353E+02  0.7818608E-02  0.1432800E+00
          2   -1    0    0  502    0  0.00000000000E+00  0.00000000000E+00  0.46863914483E+03  0.46863914483E+03  0.00000000000E+00 0. -1.
          1   -1    0    0  501    0 -0.00000000000E+00 -0.00000000000E+00 -0.30734604218E+03  0.30734604218E+03  0.00000000000E+00 0. -1.
         25    2    1    2    0    0 -0.94942240823E+02 -0.32043871445E+02 -0.83738382007E+02  0.18077032512E+03  0.12499982014E+03 0.  0.
          2    1    1    2  501    0  0.75592151188E+02  0.30219077537E+01 -0.16614677112E+03  0.18255972940E+03  0.00000000000E+00 0. -1.
          1    1    1    2  502    0  0.19350089635E+02  0.29021963691E+02  0.41117825577E+03  0.41265513249E+03  0.00000000000E+00 0. -1.
         22    1    3    3    0    0 -0.90650338347E+02 -0.74146943149E+02 -0.69159228400E+02  0.13600827877E+03  0.00000000000E+00 0.  1.
         22    1    3    3    0    0 -0.42919024757E+01  0.42103071704E+02 -0.14579153606E+02  0.44762046352E+02  0.00000000000E+00 0.  1.
</event>
<event>
 7    1  0.5977291E-006  0.1347533E+03  0.7818608E-02  0.1227838E+00
          2   -1    0    0  502    0  0.00000000000E+00  0.00000000000E+00  0.12814386282E+03  0.12814386282E+03  0.00000000000E+00 0. -1.
          1   -1    0    0  501    0 -0.00000000000E+00 -0.00000000000E+00 -0.92581008712E+03  0.92581008712E+03  0.00000000000E+00 0. -1.
         25    2    1    2    0    0  0.12931312790E+03 -0.26882891778E+02 -0.22381386548E+03  0.28837829689E+03  0.12499928325E+03 0.  0.
          2    1    1    2  501    0 -0.42222758927E+02  0.12971143386E+03 -0.61080152635E+03  0.62584848169E+03  0.00000000000E+00 0. -1.
          1    1    1    2  502    0 -0.87090368971E+02 -0.10282854208E+03  0.36949167536E+02  0.13972717136E+03  0.00000000000E+00 0. -1.
         22    1    3    3    0    0  0.26313183377E+02 -0.65626849252E+02 -0.10329460057E+03  0.12517604192E+03  0.00000000000E+00 0.  1.
         22    1    3    3    0    0  0.10299994452E+03  0.38743957475E+02 -0.12051926491E+03  0.16320225497E+03  0.00000000000E+00 0.  1.
</event>
<event>
 7    1  0.5977291E-006  0.5592461E+02  0.7818608E-02  0.1431672E+00
          2   -1    0    0  502    0  0.00000000000E+00  0.00000000000E+00  0.17013397093E+03  0.17013397093E+03  0.00000000000E+00 0. -1.
          1   -1    0    0  501    0 -0.00000000000E+00 -0.00000000000E+00 -0.11882297348E+04  0.11882297348E+04  0.00000000000E+00 0. -1.
         25    2    1    2    0    0 -0.42170832291E+02 -0.56265627620E+02 -0.46389259238E+03  0.48555728931E+03  0.12500137595E+03 0.  0.
          2    1    1    2  501    0 -0.73486471680E+01  0.55816382100E+02 -0.70851238916E+03  0.71074557805E+03  0.00000000000E+00 0. -1.
          1    1    1    2  502    0  0.49519479459E+02  0.44924551994E+00  0.15430921768E+03  0.16206083835E+03  0.00000000000E+00 0. -1.
         22    1    3    3    0    0 -0.59116285214E+02 -0.71640912553E+02 -0.44841350688E+03  0.45793212235E+03  0.00000000000E+00 0.  1.
         22    1    3    3    0    0  0.16945452923E+02  0.15375284933E+02 -0.15479085500E+02  0.27625166958E+02  0.00000000000E+00 0.  1.
</event>
<event>
 7    1  0.5977291E-006  0.1031231E+03  0.7818608E-02  0.1365398E+00
          2   -1    0    0  502    0  0.00000000000E+00  0.00000000000E+00  0.19951916306E+04  0.19951916306E+04  0.00000000000E+00 0. -1.
          1   -1    0    0  501    0 -0.00000000000E+00 -0.00000000000E+00 -0.18995467372E+02  0.18995467372E+02  0.00000000000E+00 0. -1.
         25    2    1    2    0    0 -0.75064307197E+02  0.51880641408E+02  0.14325859216E+04  0.14409212941E+04  0.12500200832E+03 0.  0.
          2    1    1    2  501    0 -0.41636008101E+02  0.18231356813E+02  0.15309913836E+03  0.15970374356E+03  0.00000000000E+00 0. -1.
          1    1    1    2  502    0  0.11670031530E+03 -0.70111998220E+02  0.39051110326E+03  0.41356206022E+03  0.00000000000E+00 0. -1.
         22    1    3    3    0    0 -0.79271087701E+02  0.52734640086E+02  0.14333946469E+04  0.14365531878E+04  0.00000000000E+00 0. -1.
         22    1    3    3    0    0  0.42067805039E+01 -0.85399867874E+00 -0.80872537722E+00  0.43681063045E+01  0.00000000000E+00 0. -1.
</event>
<event>
 7    1  0.5977291E-006  0.4965383E+02  0.7818608E-02  0.1532226E+00
          2   -1    0    0  502    0  0.00000000000E+00  0.00000000000E+00  0.17125453066E+04  0.17125453066E+04  0.00000000000E+00 0. -1.
          1   -1    0    0  501    0 -0.00000000000E+00 -0.00000000000E+00 -0.55049549511E+03  0.55049549511E+03  0.00000000000E+00 0. -1.
         25    2    1    2    0    0 -0.29303222632E+02 -0.33652943824E+01  0.64947276964E+02  0.14392225192E+03  0.12500184699E+03 0.  0.
          2    1    1    2  501    0  0.46590058737E+02 -0.17949977957E+02 -0.50967098126E+03  0.51211067595E+03  0.00000000000E+00 0. -1.
          1    1    1    2  502    0 -0.17286836105E+02  0.21315272340E+02  0.16067735157E+04  0.16070078738E+04  0.00000000000E+00 0. -1.
         22    1    3    3    0    0 -0.20939585054E+02  0.29170903773E+02 -0.27713909133E+02  0.45359327691E+02  0.00000000000E+00 0.  1.
         22    1    3    3    0    0 -0.83636375772E+01 -0.32536198155E+02  0.92661186097E+02  0.98562924230E+02  0.00000000000E+00 0.  1.
</event>
<event>
 7    1  0.5977291E-006  0.6595286E+02  0.7818608E-02  0.1383808E+00
          2   -1    0    0  502    0  0.00000000000E+00  0.00000000000E+00  0.11049963957E+04  0.11049963957E+04  0.00000000000E+00 0. -1.
          1   -1    0    0  501    0 -0.00000000000E+00 -0.00000000000E+00 -0.12315228717E+03  0.12315228717E+03  0.00000000000E+00 0. -1.
         25    2    1    2    0    0 -0.85033659155E+01  0.69459889947E+01  0.48497179014E+03  0.50094193501E+03  0.12499852409E+03 0.  0.
          2    1    1    2  501    0 -0.34836657716E+02  0.56001670942E+02 -0.10309791151E+03  0.12238855840E+03  0.00000000000E+00 0. -1.
          1    1    1    2  502    0  0.43340023632E+02 -0.62947659937E+02  0.59997022994E+03  0.60481818950E+03  0.00000000000E+00 0. -1.
         22    1    3    3    0    0 -0.72946842775E+01 -0.24362177211E+02  0.14196221328E+02  0.29124917119E+02  0.00000000000E+00 0.  1.
         22    1    3    3    0    0 -0.12086816380E+01  0.31308166206E+02  0.47077556882E+03  0.47181701790E+03  0.00000000000E+00 0.  1.
</event>
<event>
 7    1  0.5977291E-006  0.4289717E+02  0.7818608E-02  0.1531714E+00
          2   -1    0    0  502    0  0.00000000000E+00  0.00000000000E+00  0.26547422779E+04  0.26547422779E+04  0.00000000000E+00 0. -1.
          1   -1    0    0  501    0 -0.00000000000E+00 -0.00000000000E+00 -0.11980172875E+02  0.11980172875E+02  0.00000000000E+00 0. -1.
         25    2    1    2    0    0  0.41703924890E+02 -0.58147289275E+02  0.88069470945E+03  0.89239496956E+03  0.12500114334E+03 0.  0.
          2    1    1    2  501    0 -0.10976542711E+02  0.29924202650E+02  0.37333503438E+02  0.49089030069E+02  0.00000000000E+00 0. -1.
          1    1    1    2  502    0 -0.30727382179E+02  0.28223086625E+02  0.17247338922E+04  0.17252384512E+04  0.00000000000E+00 0. -1.
         22    1    3    3    0    0 -0.37000550056E+02 -0.29311547507E+01  0.42785487643E+03  0.42946178836E+03  0.00000000000E+00 0.  1.
         22    1    3    3    0    0  0.78704474946E+02 -0.55216134524E+02  0.45283983302E+03  0.46293318120E+03  0.00000000000E+00 0.  1.
</event>
<event>
 7    1  0.5977291E-006  0.1384969E+03  0.7818608E-02  0.1273386E+00
          2   -1    0    0  502    0  0.00000000000E+00  0.00000000000E+00  0.62862805115E+03  0.62862805115E+03  0.00000000000E+00 0. -1.
          1   -1    0    0  501    0 -0.00000000000E+00 -0.00000000000E+00 -0.88321778868E+03  0.88321778868E+03  0.00000000000E+00 0. -1.
         25    2    1    2    0    0  0.20507588476E+03  0.36268088538E+02 -0.31402312151E+03  0.39699721671E+03  0.12499910591E+03 0.  0.
          2    1    1    2  501    0 -0.76390009798E+02  0.10704198660E+02 -0.51681551114E+03  0.52254022431E+03  0.00000000000E+00 0. -1.
          1    1    1    2  502    0 -0.12868587496E+03 -0.46972287198E+02  0.57624889512E+03  0.59230839881E+03  0.00000000000E+00 0. -1.
         22    1    3    3    0    0  0.46106029435E+02  0.55531712432E+02 -0.15664944408E+03  0.17247778224E+03  0.00000000000E+00 0. -1.
         22    1    3    3    0    0  0.15896985533E+03 -0.19263623894E+02 -0.15737367743E+03  0.22451943447E+03  0.00000000000E+00 0. -1.
</event>
<event>
 7    1  0.5977291E-006  0.1739317E+03  0.7818608E-02  0.1262882E+00
          2   -1    0    0  502    0  0.00000000000E+00  0.00000000000E+00  0.99844210932E+03  0.99844210932E+03  0.00000000000E+00 0. -1.
          1   -1    0    0  501    0 -0.00000000000E+00 -0.00000000000E+00 -0.19816096377E+04  0.19816096377E+04  0.00000000000E+00 0. -1.
         25    2    1    2    0    0 -0.22633169992E+03  0.21075022141E+02 -0.25707581282E+03  0.36521695082E+03  0.12500101073E+03 0.  0.
          2    1    1    2  501    0  0.16920660274E+03  0.15829106176E+02 -0.16649076578E+04  0.16735587662E+04  0.00000000000E+00 0. -1.
          1    1    1    2  502    0  0.57125097187E+02 -0.36904128317E+02  0.93881594218E+03  0.94127603003E+03  0.00000000000E+00 0. -1.
         22    1    3    3    0    0 -0.23066618675E+03 -0.69957574406E+01 -0.22382604783E+03  0.32148706043E+03  0.00000000000E+00 0. -1.
         22    1    3    3    0    0  0.43344868293E+01  0.28070779581E+02 -0.33249764989E+02  0.43729890398E+02  0.00000000000E+00 0. -1.
</event>
<event>
 7    1  0.5977291E-006  0.2627936E+03  0.7818608E-02  0.1183071E+00
          2   -1    0    0  502    0  0.00000000000E+00  0.00000000000E+00  0.39482862129E+03  0.39482862129E+03  0.00000000000E+00 0. -1.
          1   -1    0    0  501    0 -0.00000000000E+00 -0.00000000000E+00 -0.27775333516E+04  0.27775333516E+04  0.00000000000E+00 0. -1.
         25    2    1    2    0    0 -0.18152259805E+03  0.14160344644E+03 -0.54331294588E+02  0.26754198893E+03  0.12499934649E+03 0.  0.
          2    1    1    2  501    0  0.25655996716E+03 -0.70017312104E+02 -0.26002608895E+04  0.26138251920E+04  0.00000000000E+00 0. -1.
          1    1    1    2  502    0 -0.75037369115E+02 -0.71586134341E+02  0.27188745382E+03  0.29099479194E+03  0.00000000000E+00 0. -1.
         22    1    3    3    0    0 -0.86589277839E+02  0.95030706866E+02 -0.88884485097E+02  0.15629776062E+03  0.00000000000E+00 0.  1.
         22    1    3    3    0    0 -0.94933320210E+02  0.46572739579E+02  0.34553190508E+02  0.11124422831E+03  0.00000000000E+00 0.  1.
</event>
<event>
 7    1  0.5977291E-006  0.1553952E+03  0.7818608E-02  0.1358581E+00
          2   -1    0    0  502    0  0.00000000000E+00  0.00000000000E+00  0.71244542243E+03  0.71244542243E+03  0.00000000000E+00 0. -1.
          1   -1    0    0  501    0 -0.00000000000E+00 -0.00000000000E+00 -0.20500133345E+04  0.20500133345E+04  0.00000000000E+00 0. -1.
         25    2    1    2    0    0  0.13124113253E+03 -0.11077159514E+03 -0.24210488210E+03  0.32208108802E+03  0.12500748843E+03 0.  0.
          2    1    1    2  501    0 -0.31058370343E+02 -0.74364686133E+01 -0.17588473489E+04  0.17591372658E+04  0.00000000000E+00 0. -1.
          1    1    1    2  502    0 -0.10018276218E+03  0.11820806376E+03  0.66338431892E+03  0.68124040306E+03  0.00000000000E+00 0. -1.
         22    1    3    3    0    0  0.61937108509E+02 -0.12149929623E+02 -0.14854672673E+02  0.64842019559E+02  0.00000000000E+00 0. -1.
         22    1    3    3    0    0  0.69304024018E+02 -0.98621665520E+02 -0.22725020943E+03  0.25723906846E+03  0.00000000000E+00 0. -1.
</event>
<event>
 7    1  0.5977291E-006  0.6758851E+02  0.7818608E-02  0.1462320E+00
          2   -1    0    0  502    0  0.00000000000E+00  0.00000000000E+00  0.12539189773E+04  0.12539189773E+04  0.00000000000E+00 0. -1.
          1   -1    0    0  501    0 -0.00000000000E+00 -0.00000000000E+00 -0.12849371094E+03  0.12849371094E+03  0.00000000000E+00 0. -1.
         25    2    1    2    0    0  0.75568146930E+02  0.49617798976E+02  0.45026532769E+03  0.47595805681E+03  0.12499894285E+03 0.  0.
          2    1    1    2  501    0 -0.42970026861E+02 -0.51649686619E+02 -0.10551862336E+03  0.12509313815E+03  0.00000000000E+00 0. -1.
          1    1    1    2  502    0 -0.32598120069E+02  0.20318876428E+01  0.78067856201E+03  0.78136149328E+03  0.00000000000E+00 0. -1.
         22    1    3    3    0    0  0.48278459488E+02 -0.30395480638E+02  0.95356504725E+02  0.11111956573E+03  0.00000000000E+00 0.  1.
         22    1    3    3    0    0  0.27289687442E+02  0.80013279614E+02  0.35490882297E+03  0.36483849108E+03  0.00000000000E+00 0.  1.
</event>
<event>
 7    1  0.5977291E-006  0.4515423E+02  0.7818608E-02  0.1588584E+00
          2   -1    0    0  502    0  0.00000000000E+00  0.00000000000E+00  0.12795404171E+03  0.12795404171E+03  0.00000000000E+00 0. -1.
          1   -1    0    0  501    0 -0.00000000000E+00 -0.00000000000E+00 -0.14216267411E+04  0.14216267411E+04  0.00000000000E+00 0. -1.
         25    2    1    2    0    0  0.12750702827E+02 -0.21674246439E+02 -0.14718250110E+03  0.19473054379E+03  0.12499977068E+03 0.  0.
          2    1    1    2  501    0 -0.16303042557E+02  0.42488427503E+02 -0.12491817004E+04  0.12500103905E+04  0.00000000000E+00 0. -1.
          1    1    1    2  502    0  0.35523397306E+01 -0.20814181064E+02  0.10269150208E+03  0.10483984858E+03  0.00000000000E+00 0. -1.
         22    1    3    3    0    0  0.59511886468E+02 -0.14739713381E+02 -0.29763225093E+02  0.68152574049E+02  0.00000000000E+00 0. -1.
         22    1    3    3    0    0 -0.46761183641E+02 -0.69345330573E+01 -0.11741927601E+03  0.12657796974E+03  0.00000000000E+00 0. -1.
</event>
<event>
 7    1  0.5977291E-006  0.6093134E+02  0.7818608E-02  0.1429046E+00
          2   -1    0    0  502    0  0.00000000000E+00  0.00000000000E+00  0.13066832433E+04  0.13066832433E+04  0.00000000000E+00 0. -1.
          1   -1    0    0  501    0 -0.00000000000E+00 -0.00000000000E+00 -0.95287292737E+03  0.95287292737E+03  0.00000000000E+00 0. -1.
         25    2    1    2    0    0  0.83973320705E+02  0.47283690399E+02  0.14141635672E+03  0.21192255406E+03  0.12500126801E+03 0.  0.
          2    1    1    2  501    0 -0.37609654744E+02 -0.47734242807E+02 -0.91613712275E+03  0.91815046248E+03  0.00000000000E+00 0. -1.
          1    1    1    2  502    0 -0.46363665960E+02  0.45055240826E+00  0.11285310820E+04  0.11294831541E+04  0.00000000000E+00 0. -1.
         22    1    3    3    0    0 -0.18767135824E+02  0.33356842124E+02  0.86516507056E+02  0.94604388359E+02  0.00000000000E+00 0. -1.
         22    1    3    3    0    0  0.10274045653E+03  0.13926848274E+02  0.54899849661E+02  0.11731816570E+03  0.00000000000E+00 0. -1.
</event>
<event>
 7    1  0.5977291E-006  0.1083628E+03  0.7818608E-02  0.1347243E+00
          2   -1    0    0  502    0  0.00000000000E+00  0.00000000000E+00  0.44364422201E+03  0.44364422201E+03  0.00000000000E+00 0. -1.
          1   -1    0    0  501    0 -0.00000000000E+00 -0.00000000000E+00 -0.23819543610E+03  0.23819543610E+03  0.00000000000E+00 0. -1.
         25    2    1    2    0    0  0.91818287592E+01  0.14887884983E+03  0.16152389718E+03  0.25291279224E+03  0.12500277284E+03 0.  0.
          2    1    1    2  501    0  0.10627151352E+01 -0.50416101480E+02 -0.17848973149E+03  0.18547640523E+03  0.00000000000E+00 0. -1.
          1    1    1    2  502    0 -0.10244543894E+02 -0.98462748346E+02  0.22241462023E+03  0.24345046063E+03  0.00000000000E+00 0. -1.
         22    1    3    3    0    0 -0.31571315496E+02  0.15087950190E+02  0.88436263769E+02  0.95107134078E+02  0.00000000000E+00 0.  1.
         22    1    3    3    0    0  0.40753144255E+02  0.13379089964E+03  0.73087633406E+02  0.15780565817E+03  0.00000000000E+00 0.  1.
</event>
<event>
 7    1  0.5977291E-006  0.8606067E+02  0.7818608E-02  0.1312870E+00
          2   -1    0    0  502    0  0.00000000000E+00  0.00000000000E+00  0.77382818802E+02  0.77382818802E+02  0.00000000000E+00 0. -1.
          1   -1    0    0  501    0 -0.00000000000E+00 -0.00000000000E+00 -0.76997280971E+03  0.76997280971E+03  0.00000000000E+00 0. -1.
         25    2    1    2    0    0 -0.10291851808E+03  0.24627806137E+02 -0.25510084554E+03  0.30315047861E+03  0.12500008435E+03 0.  0.
          2    1    1    2  501    0  0.37471542038E+02 -0.80287171032E+02 -0.44887855343E+03  0.45753918086E+03  0.00000000000E+00 0. -1.
          1    1    1    2  502    0  0.65446976039E+02  0.55659364895E+02  0.11389408067E+02  0.86665969038E+02  0.00000000000E+00 0. -1.
         22    1    3    3    0    0 -0.61199626348E+02 -0.87201095724E+01 -0.23973197964E+03  0.24757394176E+03  0.00000000000E+00 0.  1.
         22    1    3    3    0    0 -0.41718891728E+02  0.33347915709E+02 -0.15368865903E+02  0.55576536850E+02  0.00000000000E+00 0.  1.
</event>
<event>
 7    1  0.5977291E-006  0.1917704E+03  0.7818608E-02  0.1264896E+00
          2   -1    0    0  502    0  0.00000000000E+00  0.00000000000E+00  0.73180064642E+03  0.73180064642E+03  0.00000000000E+00 0. -1.
          1   -1    0    0  501    0 -0.00000000000E+00 -0.00000000000E+00 -0.50233794059E+03  0.50233794059E+03  0.00000000000E+00 0. -1.
         25    2    1    2    0    0 -0.20474074088E+03 -0.11262058479E+03  0.77869030062E+02  0.27620609674E+03  0.12499621969E+03 0.  0.
          2    1    1    2  501    0  0.14456324047E+03  0.11867838961E+03 -0.37966829655E+03  0.42323882863E+03  0.00000000000E+00 0. -1.
          1    1    1    2  502    0  0.60177500416E+02 -0.60578048196E+01  0.53126197233E+03  0.53469366164E+03  0.00000000000E+00 0. -1.
         22    1    3    3    0    0 -0.15977899490E+02 -0.22694052950E+02 -0.30052387874E+02  0.40907937229E+02  0.00000000000E+00 0.  1.
         22    1    3    3    0    0 -0.18876284139E+03 -0.89926531841E+02  0.10792141794E+03  0.23529815951E+03  0.00000000000E+00 0.  1.
</event>
<event>
 7    1  0.5977291E-006  0.5477389E+02  0.7818608E-02  0.1431694E+00
          2   -1    0    0  502    0  0.00000000000E+00  0.00000000000E+00  0.19381737093E+04  0.19381737093E+04  0.00000000000E+00 0. -1.
          1   -1    0    0  501    0 -0.00000000000E+00 -0.00000000000E+00 -0.21395007353E+02  0.21395007353E+02  0.00000000000E+00 0. -1.
         25    2    1    2    0    0 -0.22880581217E+02  0.71688533973E+02  0.67578519004E+03  0.69135792139E+03  0.12500954162E+03 0.  0.
          2    1    1    2  501    0  0.45497780862E+02 -0.22036974141E+02  0.36189420202E+02  0.62171942443E+02  0.00000000000E+00 0. -1.
          1    1    1    2  502    0 -0.22617199645E+02 -0.49651559832E+02  0.12048040917E+04  0.12060388528E+04  0.00000000000E+00 0. -1.
         22    1    3    3    0    0 -0.21999750531E+02  0.99063472446E+02  0.34973809184E+03  0.36416245479E+03  0.00000000000E+00 0.  1.
         22    1    3    3    0    0 -0.88083068610E+00 -0.27374938473E+02  0.32604709820E+03  0.32719546660E+03  0.00000000000E+00 0.  1.
</event>
<event>
 7    1  0.5977291E-006  0.8205524E+02  0.7818608E-02  0.1499560E+00
          2   -1    0    0  502    0  0.00000000000E+00  0.00000000000E+00  0.27180412304E+03  0.27180412304E+03  0.00000000000E+00 0. -1.
          1   -1    0    0  501    0 -0.00000000000E+00 -0.00000000000E+00 -0.40439609823E+03  0.40439609823E+03  0.00000000000E+00 0. -1.
         25    2    1    2    0    0  0.38426467440E+02 -0.48372595699E+02  0.20608103214E+03  0.24881833570E+03  0.12499868383E+03 0.  0.
          2    1    1    2  501    0 -0.51893077175E+02  0.64075885865E+02 -0.37587642913E+03  0.38481385186E+03  0.00000000000E+00 0. -1.
          1    1    1    2  502    0  0.13466609735E+02 -0.15703290166E+02  0.37203421805E+02  0.42568033708E+02  0.00000000000E+00 0. -1.
         22    1    3    3    0    0 -0.11043574452E+01 -0.60428430680E+02  0.19759001790E+03  0.20662678920E+03  0.00000000000E+00 0.  1.
         22    1    3    3    0    0  0.39530824885E+02  0.12055834981E+02  0.84910142326E+01  0.42191546498E+02  0.00000000000E+00 0.  1.
</event>
<event>
 7    1  0.5977291E-006  0.9493448E+02  0.7818608E-02  0.1405970E+00
          2   -1    0    0  502    0  0.00000000000E+00  0.00000000000E+00  0.78565407124E+03  0.78565407124E+03  0.00000000000E+00 0. -1.
          1   -1    0    0  501    0 -0.00000000000E+00 -0.00000000000E+00 -0.17965919266E+04  0.17965919266E+04  0.00000000000E+00 0. -1.
         25    2    1    2    0    0 -0.37327147013E+02  0.99045441596E+02 -0.12844294350E+03  0.20814852305E+03  0.12499961004E+03 0.  0.
          2    1    1    2  501    0  0.61001664105E+02 -0.72510973270E+02 -0.16264925601E+04  0.16292504694E+04  0.00000000000E+00 0. -1.
          1    1    1    2  502    0 -0.23674517092E+02 -0.26534468326E+02  0.74399764823E+03  0.74484700532E+03  0.00000000000E+00 0. -1.
         22    1    3    3    0    0  0.31390407827E+02  0.43037234886E+02 -0.14687434395E+01  0.53289009162E+02  0.00000000000E+00 0. -1.
         22    1    3    3    0    0 -0.68717554840E+02  0.56008206710E+02 -0.12697420006E+03  0.15485951389E+03  0.00000000000E+00 0. -1.
</event>
<event>
 7    1  0.5977291E-006  0.1391249E+03  0.7818608E-02  0.1308069E+00
          2   -1    0    0  502    0  0.00000000000E+00  0.00000000000E+00  0.62857855487E+03  0.62857855487E+03  0.00000000000E+00 0. -1.
          1   -1    0    0  501    0 -0.00000000000E+00 -0.00000000000E+00 -0.32113228583E+03  0.32113228583E+03  0.00000000000E+00 0. -1.
         25    2    1    2    0    0 -0.14586065801E+03 -0.74488673926E+02 -0.98145053466E+02  0.22821281907E+03  0.12499898068E+03 0.  0.
          2    1    1    2  501    0  0.90069499814E+01  0.54774384495E+02 -0.14423764958E+03  0.15455050276E+03  0.00000000000E+00 0. -1.
          1    1    1    2  502    0  0.13685370802E+03  0.19714289430E+02  0.54982897209E+03  0.56694751888E+03  0.00000000000E+00 0. -1.
         22    1    3    3    0    0 -0.15692307494E+03 -0.63799541182E+02 -0.11549703920E+03  0.20502389852E+03  0.00000000000E+00 0.  1.
         22    1    3    3    0    0  0.11062416933E+02 -0.10689132743E+02  0.17351985730E+02  0.23188920543E+02  0.00000000000E+00 0.  1.
</event>
<event>
 7    1  0.5977291E-006  0.4622430E+02  0.7818608E-02  0.1495030E+00
          2   -1    0    0  502    0  0.00000000000E+00  0.00000000000E+00  0.11716211930E+04  0.11716211930E+04  0.00000000000E+00 0. -1.
          1   -1    0    0  501    0 -0.00000000000E+00 -0.00000000000E+00 -0.23920919871E+03  0.23920919871E+03  0.00000000000E+00 0. -1.
         25    2    1    2    0    0  0.12517717330E+02 -0.72704799245E+02  0.74929212481E+03  0.76322108115E+03  0.12500019733E+03 0.  0.
          2    1    1    2  501    0 -0.26777049800E+02  0.37602749982E+02 -0.22907340962E+03  0.23367842048E+03  0.00000000000E+00 0. -1.
          1    1    1    2  502    0  0.14259332470E+02  0.35102049263E+02  0.41219327910E+03  0.41393089008E+03  0.00000000000E+00 0. -1.
         22    1    3    3    0    0 -0.27292393412E+01  0.20210361206E+02  0.42622048657E+03  0.42670810939E+03  0.00000000000E+00 0. -1.
         22    1    3    3    0    0  0.15246956671E+02 -0.92915160451E+02  0.32307163824E+03  0.33651297177E+03  0.00000000000E+00 0. -1.
</event>
<event>
 7    1  0.5977291E-006  0.5545954E+02  0.7818608E-02  0.1503421E+00
          2   -1    0    0  502    0  0.00000000000E+00  0.00000000000E+00  0.15503883994E+04  0.15503883994E+04  0.00000000000E+00 0. -1.
          1   -1    0    0  501    0 -0.00000000000E+00 -0.00000000000E+00 -0.23487583305E+03  0.23487583305E+03  0.00000000000E+00 0. -1.
         25    2    1    2    0    0  0.44736051219E+02  0.13859013394E+02 -0.25625250643E+02  0.13592139531E+03  0.12499834280E+03 0.  0.
          2    1    1    2  501    0 -0.55126922868E+02  0.14078839011E+02 -0.14869666197E+03  0.15921020261E+03  0.00000000000E+00 0. -1.
          1    1    1    2  502    0  0.10390871649E+02 -0.27937852405E+02  0.14898344790E+04  0.14901326345E+04  0.00000000000E+00 0. -1.
         22    1    3    3    0    0 -0.42066371516E+02 -0.10264561645E+02 -0.59722761507E+01  0.43710512703E+02  0.00000000000E+00 0.  1.
         22    1    3    3    0    0  0.86802422735E+02  0.24123575039E+02 -0.19652974493E+02  0.92210882610E+02  0.00000000000E+00 0.  1.
</event>
<event>
 7    1  0.5977291E-006  0.1214597E+03  0.7818608E-02  0.1259456E+00
          2   -1    0    0  502    0  0.00000000000E+00  0.00000000000E+00  0.11364529501E+04  0.11364529501E+04  0.00000000000E+00 0. -1.
          1   -1    0    0  501    0 -0.00000000000E+00 -0.00000000000E+00 -0.13283720568E+03  0.13283720568E+03  0.00000000000E+00 0. -1.
         25    2    1    2    0    0 -0.38154865924E+02  0.34929510574E+02  0.93925222097E+02  0.16469083730E+03  0.12500104016E+03 0.  0.
          2    1    1    2  501    0  0.28452113773E+02  0.96615609287E+02 -0.65750992720E+02  0.12028005562E+03  0.00000000000E+00 0. -1.
          1    1    1    2  502    0  0.97027521517E+01 -0.13154511986E+03  0.97544151506E+03  0.98431926287E+03  0.00000000000E+00 0. -1.
         22    1    3    3    0    0 -0.39123803345E+02 -0.28662869630E+02  0.88426586007E+02  0.10085382093E+03  0.00000000000E+00 0.  1.
         22    1    3    3    0    0  0.96893742032E+00  0.63592380203E+02  0.54986360901E+01  0.63837016366E+02  0.00000000000E+00 0.  1.
</event>
<event>
 7    1  0.5977291E-006  0.7831455E+02  0.7818608E-02  0.1507399E+00
          2   -1    0    0  502    0  0.00000000000E+00  0.00000000000E+00  0.15586626867E+04  0.15586626867E+04  0.00000000000E+00 0. -1.
          1   -1    0    0  501    0 -0.00000000000E+00 -0.00000000000E+00 -0.77590455107E+02  0.77590455107E+02  0.00000000000E+00 0. -1.
         25    2    1    2    0    0  0.69258641311E+02 -0.48007849032E+02  0.57454973407E+03  0.59399818297E+03  0.12499972594E+03 0.  0.
          2    1    1    2  501    0  0.33193428228E+01  0.20273675356E+02 -0.64723795910E+02  0.67905888598E+02  0.00000000000E+00 0. -1.
          1    1    1    2  502    0 -0.72577984134E+02  0.27734173676E+02  0.97124629341E+03  0.97434907022E+03  0.00000000000E+00 0. -1.
         22    1    3    3    0    0  0.43687503576E+02 -0.82020297971E+02  0.25078660960E+03  0.26745065115E+03  0.00000000000E+00 0. -1.
         22    1    3    3    0    0  0.25571137735E+02  0.34012448939E+02  0.32376312448E+03  0.32654753182E+03  0.00000000000E+00 0. -1.
</event>
<event>
 7    1  0.5977291E-006  0.1203448E+03  0.7818608E-02  0.1350639E+00
          2   -1    0    0  502    0  0.00000000000E+00  0.00000000000E+00  0.87724003861E+03  0.87724003861E+03  0.00000000000E+00 0. -1.
          1   -1    0    0  501    0 -0.00000000000E+00 -0.00000000000E+00 -0.37026827594E+03  0.37026827594E+03  0.00000000000E+00 0. -1.
         25    2    1    2    0    0 -0.87316254977E+02  0.53966177960E+02  0.34026660681E+02  0.16524023334E+03  0.12494016300E+03 0.  0.
          2    1    1    2  501    0  0.12068030367E+03 -0.25115990679E+02 -0.29153134415E+03  0.31652025734E+03  0.00000000000E+00 0. -1.
          1    1    1    2  502    0 -0.33364048697E+02 -0.28850187280E+02  0.76447644615E+03  0.76574782387E+03  0.00000000000E+00 0. -1.
         22    1    3    3    0    0 -0.37002031510E+02 -0.33896989177E+02  0.39471023797E+02  0.63844482383E+02  0.00000000000E+00 0. -1.
         22    1    3    3    0    0 -0.50314223467E+02  0.87863167137E+02 -0.54443631161E+01  0.10139575096E+03  0.00000000000E+00 0. -1.
</event>
<event>
 7    1  0.5977291E-006  0.2060132E+03  0.7818608E-02  0.1314678E+00
          2   -1    0    0  502    0  0.00000000000E+00  0.00000000000E+00  0.16634104398E+04  0.16634104398E+04  0.00000000000E+00 0. -1.
          1   -1    0    0  501    0 -0.00000000000E+00 -0.00000000000E+00 -0.78225598312E+03  0.78225598312E+03  0.00000000000E+00 0. -1.
         25    2    1    2    0    0 -0.15249842930E+03  0.13145649593E+03  0.47412442560E+03  0.53005134318E+03  0.12499549668E+03 0.  0.
          2    1    1    2  501    0 -0.25928995100E+02 -0.23967658892E+02 -0.74453006687E+03  0.74536687741E+03  0.00000000000E+00 0. -1.
          1    1    1    2  502    0  0.17842742440E+03 -0.10748883704E+03  0.11515600980E+04  0.11702482023E+04  0.00000000000E+00 0. -1.
         22    1    3    3    0    0 -0.10563765265E+03  0.91873687812E+01  0.21369471267E+03  0.23855639087E+03  0.00000000000E+00 0.  1.
         22    1    3    3    0    0 -0.46860776646E+02  0.12226912715E+03  0.26042971293E+03  0.29149495230E+03  0.00000000000E+00 0.  1.
</event>
<event>
 7    1  0.5977291E-006  0.2333922E+03  0.7818608E-02  0.1280712E+00
          2   -1    0    0  502    0  0.00000000000E+00  0.00000000000E+00  0.44908285454E+03  0.44908285454E+03  0.00000000000E+00 0. -1.
          1   -1    0    0  501    0 -0.00000000000E+00 -0.00000000000E+00 -0.26383219624E+03  0.26383219624E+03  0.00000000000E+00 0. -1.
         25    2    1    2    0    0  0.15659389389E+03  0.13761795061E+03  0.76139778575E+02  0.25471943543E+03  0.12499750786E+03 0.  0.
          2    1    1    2  501    0 -0.17171481479E+03 -0.17752659224E+03 -0.83650567174E+02  0.26076634361E+03  0.00000000000E+00 0. -1.
          1    1    1    2  502    0  0.15120920896E+02  0.39908641634E+02  0.19276144690E+03  0.19742927173E+03  0.00000000000E+00 0. -1.
         22    1    3    3    0    0  0.38817708385E+02  0.90701017959E+02  0.81295469328E+02  0.12783756285E+03  0.00000000000E+00 0.  1.
         22    1    3    3    0    0  0.11777618551E+03  0.46916932647E+02 -0.51556907536E+01  0.12688187258E+03  0.00000000000E+00 0.  1.
</event>
<event>
 7    1  0.5977291E-006  0.5275824E+02  0.7818608E-02  0.1456176E+00
          2   -1    0    0  502    0  0.00000000000E+00  0.00000000000E+00  0.10082886598E+04  0.10082886598E+04  0.00000000000E+00 0. -1.
          1   -1    0    0  501    0 -0.00000000000E+00 -0.00000000000E+00 -0.50732387946E+03  0.50732387946E+03  0.00000000000E+00 0. -1.
         25    2    1    2    0    0 -0.31593898639E+02 -0.73270555724E+02  0.12854254453E+03  0.19625275249E+03  0.12500083335E+03 0.  0.
          2    1    1    2  501    0  0.42572840645E+02  0.30915891394E+02 -0.47143855305E+03  0.47436541653E+03  0.00000000000E+00 0. -1.
          1    1    1    2  502    0 -0.10978942007E+02  0.42354664330E+02  0.84386078882E+03  0.84499437020E+03  0.00000000000E+00 0. -1.
         22    1    3    3    0    0  0.25968773232E+02  0.16006556399E+02  0.66679684319E+02  0.73326443605E+02  0.00000000000E+00 0.  1.
         22    1    3    3    0    0 -0.57562671871E+02 -0.89277112123E+02  0.61862860211E+02  0.12292630888E+03  0.00000000000E+00 0.  1.
</event>
<event>
 7    1  0.5977291E-006  0.1180172E+03  0.7818608E-02  0.1355924E+00
          2   -1    0    0  502    0  0.00000000000E+00  0.00000000000E+00  0.64632015114E+03  0.64632015114E+03  0.00000000000E+00 0. -1.
          1   -1    0    0  501    0 -0.00000000000E+00 -0.00000000000E+00 -0.11242387383E+04  0.11242387383E+04  0.00000000000E+00 0. -1.
         25    2    1    2    0    0  0.79534035678E+02  0.91131877739E+01  0.15023381206E+02  0.14919507133E+03  0.12499901721E+03 0.  0.
          2    1    1    2  501    0 -0.11476358472E+03 -0.33776081846E+02 -0.10529414037E+04  0.10597155768E+04  0.00000000000E+00 0. -1.
          1    1    1    2  502    0  0.35229549039E+02  0.24662894072E+02  0.55999943530E+03  0.56164824135E+03  0.00000000000E+00 0. -1.
         22    1    3    3    0    0 -0.26150498975E+02 -0.88554663768E+01  0.30207542022E+02  0.40923874161E+02  0.00000000000E+00 0. -1.
         22    1    3    3    0    0  0.10568453465E+03  0.17968654151E+02 -0.15184160816E+02  0.10827119717E+03  0.00000000000E+00 0. -1.
</event>
<event>
 7    1  0.5977291E-006  0.2375042E+03  0.7818608E-02  0.1301064E+00
          2   -1    0    0  502    0  0.00000000000E+00  0.00000000000E+00  0.44231519699E+03  0.44231519699E+03  0.00000000000E+00 0. -1.
          1   -1    0    0  501    0 -0.00000000000E+00 -0.00000000000E+00 -0.40356209896E+03  0.40356209896E+03  0.00000000000E+00 0. -1.
         25    2    1    2    0    0 -0.44328030842E+02  0.26046314797E+03 -0.33199997792E+02  0.29416515587E+03  0.12499949321E+03 0.  0.
          2    1    1    2  501    0  0.13316097964E+02 -0.32010387411E+02 -0.19553226818E+03  0.19858210208E+03  0.00000000000E+00 0. -1.
          1    1    1    2  502    0  0.31011932878E+02 -0.22845276056E+03  0.26748536400E+03  0.35313003801E+03  0.00000000000E+00 0. -1.
         22    1    3    3    0    0  0.35468949988E+02  0.30117382422E+02 -0.18082961751E+02  0.49920903867E+02  0.00000000000E+00 0.  1.
         22    1    3    3    0    0 -0.79796980830E+02  0.23034576555E+03 -0.15117036041E+02  0.24424425200E+03  0.00000000000E+00 0.  1.
</event>
<event>
 7    1  0.5977291E-006  0.5620590E+02  0.7818608E-02  0.1455902E+00
          2   -1    0    0  502    0  0.00000000000E+00  0.00000000000E+00  0.55652903271E+03  0.55652903271E+03  0.00000000000E+00 0. -1.
          1   -1    0    0  501    0 -0.00000000000E+00 -0.00000000000E+00 -0.20489110432E+03  0.20489110432E+03  0.00000000000E+00 0. -1.
         25    2    1    2    0    0 -0.22906775628E+02  0.59079687241E+01 -0.14228904278E+03  0.19085601949E+03  0.12498089460E+03 0.  0.
          2    1    1    2  501    0 -0.28332818243E+02 -0.29846241558E+02 -0.25272591472E+02  0.48293380545E+02  0.00000000000E+00 0. -1.
          1    1    1    2  502    0  0.51239593870E+02  0.23938272834E+02  0.51919956263E+03  0.52227073700E+03  0.00000000000E+00 0. -1.
         22    1    3    3    0    0  0.52722136940E+01 -0.52672126844E+02 -0.29303545294E+02  0.60504933272E+02  0.00000000000E+00 0. -1.
         22    1    3    3    0    0 -0.28178989322E+02  0.58580095568E+02 -0.11298549748E+03  0.13035108622E+03  0.00000000000E+00 0. -1.
</event>
<event>
 7    1  0.5977291E-006  0.2674956E+03  0.7818608E-02  0.1160545E+00
          2   -1    0    0  502    0  0.00000000000E+00  0.00000000000E+00  0.39797292601E+04  0.39797292601E+04  0.00000000000E+00 0. -1.
          1   -1    0    0  501    0 -0.00000000000E+00 -0.00000000000E+00 -0.33245605232E+04  0.33245605232E+04  0.00000000000E+00 0. -1.
         25    2    1    2    0    0 -0.28124803998E+03 -0.13149627911E+03 -0.81315974279E+03  0.87934374497E+03  0.12499969244E+03 0.  0.
          2    1    1    2  501    0  0.13828846162E+02  0.13099159237E+03 -0.24720233571E+04  0.24755301477E+04  0.00000000000E+00 0. -1.
          1    1    1    2  502    0  0.26741919382E+03  0.50468674365E+00  0.39403518367E+04  0.39494158906E+04  0.00000000000E+00 0. -1.
         22    1    3    3    0    0 -0.21344342360E+03 -0.44509096601E+02 -0.45419734034E+03  0.50381978795E+03  0.00000000000E+00 0.  1.
         22    1    3    3    0    0 -0.67804616383E+02 -0.86987182512E+02 -0.35896240244E+03  0.37552395701E+03  0.00000000000E+00 0.  1.
</event>
<event>
 7    1  0.5977291E-006  0.8492411E+02  0.7818608E-02  0.1362167E+00
          2   -1    0    0  502    0  0.00000000000E+00  0.00000000000E+00  0.13474560395E+04  0.13474560395E+04  0.00000000000E+00 0. -1.
          1   -1    0    0  501    0 -0.00000000000E+00 -0.00000000000E+00 -0.13659231913E+04  0.13659231913E+04  0.00000000000E+00 0. -1.
         25    2    1    2    0    0 -0.54286304717E+02  0.12811317054E+03  0.11888606707E+03  0.22163236650E+03  0.12500808610E+03 0.  0.
          2    1    1    2  501    0  0.14560658404E+02 -0.54802014551E+02 -0.13124605802E+04  0.13136849121E+04  0.00000000000E+00 0. -1.
          1    1    1    2  502    0  0.39725646314E+02 -0.73311155989E+02  0.11751073613E+04  0.11780619522E+04  0.00000000000E+00 0. -1.
         22    1    3    3    0    0 -0.73505998507E+02  0.12163159291E+03  0.13477914170E+03  0.19586422145E+03  0.00000000000E+00 0.  1.
         22    1    3    3    0    0  0.19219693790E+02  0.64815776340E+01 -0.15893074627E+02  0.25768145046E+02  0.00000000000E+00 0.  1.
</event>
<event>
 7    1  0.5977291E-006  0.9823511E+02  0.7818608E-02  0.1416174E+00
          2   -1    0    0  502    0  0.00000000000E+00  0.00000000000E+00  0.99551150636E+03  0.99551150636E+03  0.00000000000E+00 0. -1.
          1   -1    0    0  501    0 -0.00000000000E+00 -0.00000000000E+00 -0.94320894058E+02  0.94320894058E+02  0.00000000000E+00 0. -1.
         25    2    1    2    0    0  0.12715552413E+03 -0.79090024337E+01  0.11145298500E+03  0.21042511744E+03  0.12500353014E+03 0.  0.
          2    1    1    2  501    0 -0.30565754997E+02  0.85525314641E+01 -0.36026093173E+02  0.48013441475E+02  0.00000000000E+00 0. -1.
          1    1    1    2  502    0 -0.96589769137E+02 -0.64352903038E+00  0.82576372048E+03  0.83139384150E+03  0.00000000000E+00 0. -1.
         22    1    3    3    0    0  0.13634155884E+03 -0.33881447320E+02  0.11638904247E+03  0.18243733814E+03  0.00000000000E+00 0.  1.
         22    1    3    3    0    0 -0.91860347033E+01  0.25972444886E+02 -0.49360574749E+01  0.27987779303E+02  0.00000000000E+00 0.  1.
</event>
<event>
 7    1  0.5977291E-006  0.4933997E+02  0.7818608E-02  0.1470226E+00
          2   -1    0    0  502    0  0.00000000000E+00  0.00000000000E+00  0.28718419418E+03  0.28718419418E+03  0.00000000000E+00 0. -1.
          1   -1    0    0  501    0 -0.00000000000E+00 -0.00000000000E+00 -0.14445246983E+04  0.14445246983E+04  0.00000000000E+00 0. -1.
         25    2    1    2    0    0 -0.78975265030E+02 -0.21357645514E+01 -0.35001120978E+03  0.37996871853E+03  0.12500690427E+03 0.  0.
          2    1    1    2  501    0  0.36087244660E+02 -0.22002375336E+02 -0.10768923382E+04  0.10777214398E+04  0.00000000000E+00 0. -1.
          1    1    1    2  502    0  0.42888020370E+02  0.24138139888E+02  0.26956304382E+03  0.27401873418E+03  0.00000000000E+00 0. -1.
         22    1    3    3    0    0 -0.18070247599E+02  0.58838280490E+02 -0.15424995654E+03  0.16607686832E+03  0.00000000000E+00 0.  1.
         22    1    3    3    0    0 -0.60905017431E+02 -0.60974045041E+02 -0.19576125324E+03  0.21389185021E+03  0.00000000000E+00 0.  1.
</event>
<event>
 7    1  0.5977291E-006  0.5290397E+02  0.7818608E-02  0.1498508E+00
          2   -1    0    0  502    0  0.00000000000E+00  0.00000000000E+00  0.13639354426E+04  0.13639354426E+04  0.00000000000E+00 0. -1.
          1   -1    0    0  501    0 -0.00000000000E+00 -0.00000000000E+00 -0.28997271050E+03  0.28997271050E+03  0.00000000000E+00 0. -1.
         25    2    1    2    0    0 -0.27234690064E+02 -0.14037929481E+02  0.12540485514E+03  0.17969438401E+03  0.12499960857E+03 0.  0.
          2    1    1    2  501    0  0.53122225509E+02 -0.53098900719E+01 -0.25989861580E+03  0.26532518966E+03  0.00000000000E+00 0. -1.
          1    1    1    2  502    0 -0.25887535445E+02  0.19347819553E+02  0.12084564928E+04  0.12088885795E+04  0.00000000000E+00 0. -1.
         22    1    3    3    0    0 -0.33245353956E+02 -0.51143237260E+02  0.12823002344E+03  0.14199937742E+03  0.00000000000E+00 0.  1.
         22    1    3    3    0    0  0.60106638927E+01  0.37105307779E+02 -0.28251682933E+01  0.37695006588E+02  0.00000000000E+00 0.  1.
</event>
<event>
 7    1  0.5977291E-006  0.2494191E+02  0.7818608E-02  0.1679027E+00
          2   -1    0    0  502    0  0.00000000000E+00  0.00000000000E+00  0.27249920918E+03  0.27249920918E+03  0.00000000000E+00 0. -1.
          1   -1    0    0  501    0 -0.00000000000E+00 -0.00000000000E+00 -0.11589397556E+03  0.11589397556E+03  0.00000000000E+00 0. -1.
         25    2    1    2    0    0 -0.34308324644E+02  0.29235957044E+02  0.63140724642E+02  0.14711908255E+03  0.12500188406E+03 0.  0.
          2    1    1    2  501    0  0.22525149863E+02 -0.98455910314E+01 -0.71060171957E+02  0.75192194260E+02  0.00000000000E+00 0. -1.
          1    1    1    2  502    0  0.11783174781E+02 -0.19390366013E+02  0.16452468094E+03  0.16608190792E+03  0.00000000000E+00 0. -1.
         22    1    3    3    0    0  0.28519109294E+02  0.17077776888E+02  0.74999931173E+02  0.82036453692E+02  0.00000000000E+00 0.  1.
         22    1    3    3    0    0 -0.62827433938E+02  0.12158180156E+02 -0.11859206532E+02  0.65082628861E+02  0.00000000000E+00 0.  1.
</event>
<event>
 7    1  0.5977291E-006  0.4652172E+02  0.7818608E-02  0.1541829E+00
          2   -1    0    0  502    0  0.00000000000E+00  0.00000000000E+00  0.85643542733E+02  0.85643542733E+02  0.00000000000E+00 0. -1.
          1   -1    0    0  501    0 -0.00000000000E+00 -0.00000000000E+00 -0.14166456279E+04  0.14166456279E+04  0.00000000000E+00 0. -1.
         25    2    1    2    0    0  0.45495440954E+02  0.41965258999E+02 -0.16812804929E+03  0.21845996841E+03  0.12500719471E+03 0.  0.
          2    1    1    2  501    0 -0.17832313626E+01 -0.27452111322E+02 -0.12144038784E+04  0.12147154309E+04  0.00000000000E+00 0. -1.
          1    1    1    2  502    0 -0.43712209592E+02 -0.14513147676E+02  0.51529842462E+02  0.69113771327E+02  0.00000000000E+00 0. -1.
         22    1    3    3    0    0 -0.15226090071E+01  0.56796592258E+02 -0.15830076376E+03  0.16818829638E+03  0.00000000000E+00 0. -1.
         22    1    3    3    0    0  0.47018049961E+02 -0.14831333259E+02 -0.98272855289E+01  0.50271672036E+02  0.00000000000E+00 0. -1.
</event>
<event>
 7    1  0.5977291E-006  0.1254744E+03  0.7818608E-02  0.1315742E+00
          2   -1    0    0  502    0  0.00000000000E+00  0.00000000000E+00  0.15698187251E+04  0.15698187251E+04  0.00000000000E+00 0. -1.
          1   -1    0    0  501    0 -0.00000000000E+00 -0.00000000000E+00 -0.22880093794E+04  0.22880093794E+04  0.00000000000E+00 0. -1.
         25    2    1    2    0    0 -0.14959568737E+03  0.91492203367E+02  0.43597093164E+03  0.48626042202E+03  0.12501540637E+03 0.  0.
          2    1    1    2  501    0  0.11731841394E+03 -0.44001162810E+02 -0.22603849165E+04  0.22638550491E+04  0.00000000000E+00 0. -1.
          1    1    1    2  502    0  0.32277273432E+02 -0.47491040557E+02  0.11062233305E+04  0.11077126334E+04  0.00000000000E+00 0. -1.
         22    1    3    3    0    0 -0.80359845652E+01  0.70057549998E+02  0.11659274545E+03  0.13625896540E+03  0.00000000000E+00 0. -1.
         22    1    3    3    0    0 -0.14155970281E+03  0.21434653368E+02  0.31937818618E+03  0.35000145662E+03  0.00000000000E+00 0. -1.
</event>
<event>
 7    1  0.5977291E-006  0.8305145E+02  0.7818608E-02  0.1356606E+00
          2   -1    0    0  502    0  0.00000000000E+00  0.00000000000E+00  0.22566569418E+03  0.22566569418E+03  0.00000000000E+00 0. -1.
          1   -1    0    0  501    0 -0.00000000000E+00 -0.00000000000E+00 -0.12042168459E+04  0.12042168459E+04  0.00000000000E+00 0. -1.
         25    2    1    2    0    0 -0.37657021842E+02  0.41889839295E+02 -0.20553586781E+03  0.24706870277E+03  0.12500056401E+03 0.  0.
          2    1    1    2  501    0 -0.31553627862E+01 -0.86900245590E+02 -0.97142518459E+03  0.97530943718E+03  0.00000000000E+00 0. -1.
          1    1    1    2  502    0  0.40812384628E+02  0.45010406294E+02  0.19840990064E+03  0.20750440016E+03  0.00000000000E+00 0. -1.
         22    1    3    3    0    0 -0.83156018159E+02  0.23040360113E+02 -0.11227873338E+03  0.14160612812E+03  0.00000000000E+00 0.  1.
         22    1    3    3    0    0  0.45498996317E+02  0.18849479183E+02 -0.93257134425E+02  0.10546257465E+03  0.00000000000E+00 0.  1.
</event>
<event>
 7    1  0.5977291E-006  0.2304035E+03  0.7818608E-02  0.1207986E+00
          2   -1    0    0  502    0  0.00000000000E+00  0.00000000000E+00  0.21406820846E+04  0.21406820846E+04  0.00000000000E+00 0. -1.
          1   -1    0    0  501    0 -0.00000000000E+00 -0.00000000000E+00 -0.19553240446E+03  0.19553240446E+03  0.00000000000E+00 0. -1.
         25    2    1    2    0    0 -0.25887558566E+03 -0.12052662789E+03  0.83737743789E+03  0.89351523575E+03  0.12500106455E+03 0.  0.
          2    1    1    2  501    0  0.22310512709E+03  0.37878851933E+02 -0.88540005626E+02  0.24300213528E+03  0.00000000000E+00 0. -1.
          1    1    1    2  502    0  0.35770458576E+02  0.82647775956E+02  0.11963122478E+04  0.11996971180E+04  0.00000000000E+00 0. -1.
         22    1    3    3    0    0 -0.45376909060E+02 -0.82760084609E+02  0.27827892078E+03  0.29384937167E+03  0.00000000000E+00 0.  1.
         22    1    3    3    0    0 -0.21349867660E+03 -0.37766543280E+02  0.55909851712E+03  0.59966586408E+03  0.00000000000E+00 0.  1.
</event>
<event>
 7    1  0.5977291E-006  0.1750990E+03  0.7818608E-02  0.1293925E+00
          2   -1    0    0  502    0  0.00000000000E+00  0.00000000000E+00  0.56087392344E+03  0.56087392344E+03  0.00000000000E+00 0. -1.
          1   -1    0    0  501    0 -0.00000000000E+00 -0.00000000000E+00 -0.50779168970E+03  0.50779168970E+03  0.00000000000E+00 0. -1.
         25    2    1    2    0    0  0.12696342207E+03 -0.44339838473E+02  0.26633872985E+02  0.18552507260E+03  0.12499783019E+03 0.  0.
          2    1    1    2  501    0  0.47451521348E+02 -0.16497433764E+02 -0.40798495445E+03  0.41106633924E+03  0.00000000000E+00 0. -1.
          1    1    1    2  502    0 -0.17441494342E+03  0.60837272237E+02  0.43443331520E+03  0.47207420131E+03  0.00000000000E+00 0. -1.
         22    1    3    3    0    0 -0.22018850062E+02 -0.62740313452E+01 -0.13534736841E+02  0.26596660104E+02  0.00000000000E+00 0.  1.
         22    1    3    3    0    0  0.14898227213E+03 -0.38065807128E+02  0.40168609826E+02  0.15892841249E+03  0.00000000000E+00 0.  1.
</event>
<event>
 7    1  0.5977291E-006  0.6730613E+02  0.7818608E-02  0.1430955E+00
          2   -1    0    0  502    0  0.00000000000E+00  0.00000000000E+00  0.25977601796E+04  0.25977601796E+04  0.00000000000E+00 0. -1.
          1   -1    0    0  501    0 -0.00000000000E+00 -0.00000000000E+00 -0.81988788259E+03  0.81988788259E+03  0.00000000000E+00 0. -1.
         25    2    1    2    0    0 -0.42183621666E+02 -0.14813024292E+02  0.21290791776E+03  0.25090450819E+03  0.12499762863E+03 0.  0.
          2    1    1    2  501    0  0.64450536103E+02 -0.20055065288E+02 -0.79928609960E+03  0.80213112785E+03  0.00000000000E+00 0. -1.
          1    1    1    2  502    0 -0.22266914437E+02  0.34868089580E+02  0.23642504788E+04  0.23646124261E+04  0.00000000000E+00 0. -1.
         22    1    3    3    0    0  0.19396830978E+02  0.29408570349E+02  0.14469079873E+03  0.14891785755E+03  0.00000000000E+00 0.  1.
         22    1    3    3    0    0 -0.61580452644E+02 -0.44221594641E+02  0.68217119031E+02  0.10198665064E+03  0.00000000000E+00 0.  1.
</event>
<event>
 7    1  0.5977291E-006  0.8729037E+02  0.7818608E-02  0.1316909E+00
          2   -1    0    0  502    0  0.00000000000E+00  0.00000000000E+00  0.11571080350E+04  0.11571080350E+04  0.00000000000E+00 0. -1.
          1   -1    0    0  501    0 -0.00000000000E+00 -0.00000000000E+00 -0.10126125884E+03  0.10126125884E+03  0.00000000000E+00 0. -1.
         25    2    1    2    0    0  0.40076392117E+02  0.24393418877E+02  0.24076632910E+03  0.27531270024E+03  0.12501000597E+03 0.  0.
          2    1    1    2  501    0 -0.59372017354E+02  0.63988840399E+02 -0.58322265013E+02  0.10498140186E+03  0.00000000000E+00 0. -1.
          1    1    1    2  502    0  0.19295625237E+02 -0.88382259277E+02  0.87340271205E+03  0.87807519173E+03  0.00000000000E+00 0. -1.
         22    1    3    3    0    0  0.28960106145E+02 -0.27169058232E+02  0.21108571981E+03  0.21478832971E+03  0.00000000000E+00 0.  1.
         22    1    3    3    0    0  0.11116285973E+02  0.51562477109E+02  0.29680609297E+02  0.60524370527E+02  0.00000000000E+00 0.  1.
</event>
<event>
 7    1  0.5977291E-006  0.1331654E+03  0.7818608E-02  0.1380021E+00
          2   -1    0    0  502    0  0.00000000000E+00  0.00000000000E+00  0.15373424571E+04  0.15373424571E+04  0.00000000000E+00 0. -1.
          1   -1    0    0  501    0 -0.00000000000E+00 -0.00000000000E+00 -0.86943501432E+03  0.86943501432E+03  0.00000000000E+00 0. -1.
         25    2    1    2    0    0 -0.37186898249E+02 -0.11639339086E+03  0.37222393243E+03  0.41122481771E+03  0.12499963196E+03 0.  0.
          2    1    1    2  501    0 -0.31181260046E+02 -0.11030258964E+01 -0.84561317818E+03  0.84618859290E+03  0.00000000000E+00 0. -1.
          1    1    1    2  502    0  0.68368158295E+02  0.11749641676E+03  0.11412966885E+04  0.11493640608E+04  0.00000000000E+00 0. -1.
         22    1    3    3    0    0  0.36774638505E+02 -0.13665141234E+01  0.60336939115E+02  0.70673811414E+02  0.00000000000E+00 0.  1.
         22    1    3    3    0    0 -0.73961536754E+02 -0.11502687674E+03  0.31188699332E+03  0.34055100630E+03  0.00000000000E+00 0.  1.
</event>
<event>
 7    1  0.5977291E-006  0.5621399E+02  0.7818608E-02  0.1418211E+00
          2   -1    0    0  502    0  0.00000000000E+00  0.00000000000E+00  0.12868427991E+04  0.12868427991E+04  0.00000000000E+00 0. -1.
          1   -1    0    0  501    0 -0.00000000000E+00 -0.00000000000E+00 -0.37269403397E+03  0.37269403397E+03  0.00000000000E+00 0. -1.
         25    2    1    2    0    0  0.70974395777E+02 -0.80266783532E+02  0.72674230774E+02  0.17996172812E+03  0.12499823348E+03 0.  0.
          2    1    1    2  501    0 -0.26573225085E+02  0.48490780278E+02 -0.31600613119E+03  0.32080736745E+03  0.00000000000E+00 0. -1.
          1    1    1    2  502    0 -0.44401170692E+02  0.31776003255E+02  0.11574806655E+04  0.11587677375E+04  0.00000000000E+00 0. -1.
         22    1    3    3    0    0  0.94268219806E+02 -0.17505515268E+02  0.55754167693E+02  0.11091198107E+03  0.00000000000E+00 0. -1.
         22    1    3    3    0    0 -0.23293824030E+02 -0.62761268265E+02  0.16920063081E+02  0.69049747044E+02  0.00000000000E+00 0. -1.
</event>
<event>
 7    1  0.5977291E-006  0.1332135E+03  0.7818608E-02  0.1290249E+00
          2   -1    0    0  502    0  0.00000000000E+00  0.00000000000E+00  0.10882644246E+04  0.10882644246E+04  0.00000000000E+00 0. -1.
          1   -1    0    0  501    0 -0.00000000000E+00 -0.00000000000E+00 -0.53212912397E+03  0.53212912397E+03  0.00000000000E+00 0. -1.
         25    2    1    2    0    0  0.67070073640E+02 -0.63240291912E+02  0.12773864392E+03  0.20109660953E+03  0.12499982367E+03 0.  0.
          2    1    1    2  501    0 -0.14397601345E+02 -0.66804740362E+02 -0.48772695393E+03  0.49249136627E+03  0.00000000000E+00 0. -1.
          1    1    1    2  502    0 -0.52672472295E+02  0.13004503227E+03  0.91612361062E+03  0.92680557275E+03  0.00000000000E+00 0. -1.
         22    1    3    3    0    0 -0.32337535620E+02 -0.11507236597E+02  0.62825263407E+02  0.71590127994E+02  0.00000000000E+00 0.  1.
         22    1    3    3    0    0  0.99407609260E+02 -0.51733055315E+02  0.64913380512E+02  0.12950648154E+03  0.00000000000E+00 0.  1.
</event>
<event>
 7    1  0.5977291E-006  0.5182063E+02  0.7818608E-02  0.1458315E+00
          2   -1    0    0  502    0  0.00000000000E+00  0.00000000000E+00  0.10572299622E+04  0.10572299622E+04  0.00000000000E+00 0. -1.
          1   -1    0    0  501    0 -0.00000000000E+00 -0.00000000000E+00 -0.30652981370E+03  0.30652981370E+03  0.00000000000E+00 0. -1.
         25    2    1    2    0    0  0.73113023633E+01 -0.50668551224E+02  0.50105068653E+03  0.51893976651E+03  0.12500373419E+03 0.  0.
          2    1    1    2  501    0 -0.42797236367E+02  0.95808644602E+01 -0.29461154515E+03  0.29785795094E+03  0.00000000000E+00 0. -1.
          1    1    1    2  502    0  0.35485934004E+02  0.41087686763E+02  0.54426100715E+03  0.54696205848E+03  0.00000000000E+00 0. -1.
         22    1    3    3    0    0 -0.64712517944E+01 -0.89747874030E+02  0.39410413848E+03  0.40424575441E+03  0.00000000000E+00 0.  1.
         22    1    3    3    0    0  0.13782554158E+02  0.39079322806E+02  0.10694654805E+03  0.11469401210E+03  0.00000000000E+00 0.  1.
</event>
<event>
 7    1  0.5977291E-006  0.1810087E+03  0.7818608E-02  0.1344885E+00
          2   -1    0    0  502    0  0.00000000000E+00  0.00000000000E+00  0.26867898728E+04  0.26867898728E+04  0.00000000000E+00 0. -1.
          1   -1    0    0  501    0 -0.00000000000E+00 -0.00000000000E+00 -0.12220338628E+04  0.12220338628E+04  0.00000000000E+00 0. -1.
         25    2    1    2    0    0 -0.16364942798E+03 -0.11725145193E+03  0.87512562626E+02  0.25261190566E+03  0.12500115204E+03 0.  0.
          2    1    1    2  501    0  0.30507300183E+02 -0.42778497799E+01 -0.11360471038E+04  0.11364647013E+04  0.00000000000E+00 0. -1.
          1    1    1    2  502    0  0.13314212779E+03  0.12152930171E+03  0.25132905511E+04  0.25197471285E+04  0.00000000000E+00 0. -1.
         22    1    3    3    0    0 -0.96287224384E+02 -0.40059057108E+01  0.71243898155E+02  0.11984560853E+03  0.00000000000E+00 0.  1.
         22    1    3    3    0    0 -0.67362203591E+02 -0.11324554622E+03  0.16268664472E+02  0.13276629713E+03  0.00000000000E+00 0.  1.
</event>
<event>
 7    1  0.5977291E-006  0.9084292E+02  0.7818608E-02  0.1453563E+00
          2   -1    0    0  502    0  0.00000000000E+00  0.00000000000E+00  0.23959920565E+03  0.23959920565E+03  0.00000000000E+00 0. -1.
          1   -1    0    0  501    0 -0.00000000000E+00 -0.00000000000E+00 -0.11661600427E+03  0.11661600427E+03  0.00000000000E+00 0. -1.
         25    2    1    2    0    0  0.66131937189E+02 -0.35749793901E+02  0.65946304085E+02  0.16007802742E+03  0.12499831582E+03 0.  0.
          2    1    1    2  501    0 -0.74554318607E+02  0.60243665359E+02 -0.33832916693E+02  0.10164798026E+03  0.00000000000E+00 0. -1.
          1    1    1    2  502    0  0.84223814178E+01 -0.24493871457E+02  0.90869813984E+02  0.94489202247E+02  0.00000000000E+00 0. -1.
         22    1    3    3    0    0  0.55590240709E+02  0.36494313547E+02  0.82209448763E+01  0.67005176800E+02  0.00000000000E+00 0.  1.
         22    1    3    3    0    0  0.10541696480E+02 -0.72244107449E+02  0.57725359209E+02  0.93072850615E+02  0.00000000000E+00 0.  1.
</event>
<event>
 7    1  0.5977291E-006  0.1791547E+03  0.7818608E-02  0.1322745E+00
          2   -1    0    0  502    0  0.00000000000E+00  0.00000000000E+00  0.20721383273E+04  0.20721383273E+04  0.00000000000E+00 0. -1.
          1   -1    0    0  501    0 -0.00000000000E+00 -0.00000000000E+00 -0.13640431879E+04  0.13640431879E+04  0.00000000000E+00 0. -1.
         25    2    1    2    0    0  0.11999177758E+03  0.16888121270E+03  0.21455277086E+03  0.32338473996E+03  0.12500363140E+03 0.  0.
          2    1    1    2  501    0 -0.83942107682E+02 -0.15759687189E+03 -0.13033414924E+04  0.13155159054E+04  0.00000000000E+00 0. -1.
          1    1    1    2  502    0 -0.36049669901E+02 -0.11284340811E+02  0.17968838610E+04  0.17972808699E+04  0.00000000000E+00 0. -1.
         22    1    3    3    0    0 -0.15948699349E+02  0.11723956207E+02 -0.56834648861E+01  0.20594026638E+02  0.00000000000E+00 0.  1.
         22    1    3    3    0    0  0.13594047693E+03  0.15715725650E+03  0.22023623574E+03  0.30279071332E+03  0.00000000000E+00 0.  1.
</event>
<event>
 7    1  0.5977291E-006  0.8821491E+02  0.7818608E-02  0.1313189E+00
          2   -1    0    0  502    0  0.00000000000E+00  0.00000000000E+00  0.13720823238E+04  0.13720823238E+04  0.00000000000E+00 0. -1.
          1   -1    0    0  501    0 -0.00000000000E+00 -0.00000000000E+00 -0.74753576447E+02  0.74753576447E+02  0.00000000000E+00 0. -1.
         25    2    1    2    0    0  0.25674131945E+02  0.40476223814E+02  0.34909539117E+03  0.37388551027E+03  0.12500118761E+03 0.  0.
          2    1    1    2  501    0 -0.86866193677E+02  0.23064330456E+02 -0.26915369870E+02  0.93819699843E+02  0.00000000000E+00 0. -1.
          1    1    1    2  502    0  0.61192061731E+02 -0.63540554270E+02  0.97514872603E+03  0.97913069012E+03  0.00000000000E+00 0. -1.
         22    1    3    3    0    0  0.12332962232E+02  0.71151496791E+02  0.10455849999E+03  0.12707130822E+03  0.00000000000E+00 0. -1.
         22    1    3    3    0    0  0.13341169714E+02 -0.30675272977E+02  0.24453689118E+03  0.24681420204E+03  0.00000000000E+00 0. -1.
</event>
<event>
 7    1  0.5977291E-006  0.1241639E+03  0.7818608E-02  0.1349736E+00
          2   -1    0    0  502    0  0.00000000000E+00  0.00000000000E+00  0.15932494332E+03  0.15932494332E+03  0.00000000000E+00 0. -1.
          1   -1    0    0  501    0 -0.00000000000E+00 -0.00000000000E+00 -0.34664672364E+03  0.34664672364E+03  0.00000000000E+00 0. -1.
         25    2    1    2    0    0 -0.65471284189E+02  0.85465190207E+02 -0.15992984180E+03  0.22976818528E+03  0.12500030752E+03 0.  0.
          2    1    1    2  501    0  0.10810591067E+03 -0.91654723015E+02 -0.11240778012E+03  0.18089495627E+03  0.00000000000E+00 0. -1.
          1    1    1    2  502    0 -0.42634626484E+02  0.61895328083E+01  0.85015841595E+02  0.95308525401E+02  0.00000000000E+00 0. -1.
         22    1    3    3    0    0 -0.39572939510E+02  0.18368858735E+02  0.10422389341E+02  0.44855977442E+02  0.00000000000E+00 0.  1.
         22    1    3    3    0    0 -0.25898344679E+02  0.67096331472E+02 -0.17035223114E+03  0.18491220784E+03  0.00000000000E+00 0.  1.
</event>
<event>
 7    1  0.5977291E-006  0.1646545E+03  0.7818608E-02  0.1315557E+00
          2   -1    0    0  502    0  0.00000000000E+00  0.00000000000E+00  0.44731022262E+03  0.44731022262E+03  0.00000000000E+00 0. -1.
          1   -1    0    0  501    0 -0.00000000000E+00 -0.00000000000E+00 -0.25662160461E+03  0.25662160461E+03  0.00000000000E+00 0. -1.
         25    2    1    2    0    0 -0.87022075806E+02 -0.10381273069E+03  0.14028411056E+02  0.18485647387E+03  0.12500077953E+03 0.  0.
          2    1    1    2  501    0  0.12177101715E+03  0.13052690313E+03 -0.12264309112E+03  0.21657973326E+03  0.00000000000E+00 0. -1.
          1    1    1    2  502    0 -0.34748941348E+02 -0.26714172441E+02  0.29930329808E+03  0.30249562009E+03  0.00000000000E+00 0. -1.
         22    1    3    3    0    0 -0.11405683408E+02  0.43544285551E+01  0.47217365725E+02  0.48770178266E+02  0.00000000000E+00 0. -1.
         22    1    3    3    0    0 -0.75616392397E+02 -0.10816715925E+03 -0.33188954669E+02  0.13608629560E+03  0.00000000000E+00 0. -1.
</event>
<event>
 7    1  0.5977291E-006  0.7212329E+02  0.7818608E-02  0.1389016E+00
          2   -1    0    0  502    0  0.00000000000E+00  0.00000000000E+00  0.95726659696E+03  0.95726659696E+03  0.00000000000E+00 0. -1.
          1   -1    0    0  501    0 -0.00000000000E+00 -0.00000000000E+00 -0.17555046145E+03  0.17555046145E+03  0.00000000000E+00 0. -1.
         25    2    1    2    0    0 -0.50561010852E+02 -0.43342303532E+02  0.62330896734E+03  0.63919902476E+03  0.12500541349E+03 0.  0.
          2    1    1    2  501    0 -0.32324547402E+02  0.42705409965E+02 -0.15784482299E+03  0.16668418206E+03  0.00000000000E+00 0. -1.
          1    1    1    2  502    0  0.82885558254E+02  0.63689356641E+00  0.31625199116E+03  0.32693385159E+03  0.00000000000E+00 0. -1.
         22    1    3    3    0    0 -0.44915974862E+02  0.24019980771E+02  0.45470114919E+03  0.45754512275E+03  0.00000000000E+00 0. -1.
         22    1    3    3    0    0 -0.56450359899E+01 -0.67362284303E+02  0.16860781815E+03  0.18165390202E+03  0.00000000000E+00 0. -1.
</event>
<event>
 7    1  0.5977291E-006  0.1337325E+03  0.7818608E-02  0.1342055E+00
          2   -1    0    0  502    0  0.00000000000E+00  0.00000000000E+00  0.56428169660E+02  0.56428169660E+02  0.00000000000E+00 0. -1.
          1   -1    0    0  501    0 -0.00000000000E+00 -0.00000000000E+00 -0.11578809141E+04  0.11578809141E+04  0.00000000000E+00 0. -1.
         25    2    1    2    0    0 -0.21229903362E+02 -0.14721735660E+03 -0.29859023986E+03  0.35623843712E+03  0.12500413539E+03 0.  0.
          2    1    1    2  501    0  0.37807815077E+02  0.19900321262E+02 -0.67676466292E+03  0.67811198386E+03  0.00000000000E+00 0. -1.
          1    1    1    2  502    0 -0.16577911715E+02  0.12731703534E+03 -0.12609784169E+03  0.17995866282E+03  0.00000000000E+00 0. -1.
         22    1    3    3    0    0 -0.52853331123E+02 -0.14458234491E+02 -0.59106873804E+02  0.80598620870E+02  0.00000000000E+00 0. -1.
         22    1    3    3    0    0  0.31623427761E+02 -0.13275912211E+03 -0.23948336605E+03  0.27563981625E+03  0.00000000000E+00 0. -1.
</event>
<event>
 7    1  0.5977291E-006  0.1272461E+03  0.7818608E-02  0.1371807E+00
          2   -1    0    0  502    0  0.00000000000E+00  0.00000000000E+00  0.87780808456E+03  0.87780808456E+03  0.00000000000E+00 0. -1.
          1   -1    0    0  501    0 -0.00000000000E+00 -0.00000000000E+00 -0.20218221775E+04  0.20218221775E+04  0.00000000000E+00 0. -1.
         25    2    1    2    0    0 -0.71513426111E+02 -0.13769597172E+03  0.30293459038E+03  0.36258481305E+03  0.12499611939E+03 0.  0.
          2    1    1    2  501    0  0.10119427135E+02  0.33430577382E+02 -0.19851263138E+04  0.19854335768E+04  0.00000000000E+00 0. -1.
          1    1    1    2  502    0  0.61393998976E+02  0.10426539434E+03  0.53817763048E+03  0.55161187217E+03  0.00000000000E+00 0. -1.
         22    1    3    3    0    0 -0.14316491894E+02 -0.24943403722E+02  0.19273520961E+03  0.19486917753E+03  0.00000000000E+00 0. -1.
         22    1    3    3    0    0 -0.57196934217E+02 -0.11275256800E+03  0.11019938077E+03  0.16771563552E+03  0.00000000000E+00 0. -1.
</event>
<event>
 7    1  0.5977291E-006  0.4516399E+02  0.7818608E-02  0.1482244E+00
          2   -1    0    0  502    0  0.00000000000E+00  0.00000000000E+00  0.96164929987E+03  0.96164929987E+03  0.00000000000E+00 0. -1.
          1   -1    0    0  501    0 -0.00000000000E+00 -0.00000000000E+00 -0.78409693209E+03  0.78409693209E+03  0.00000000000E+00 0. -1.
         25    2    1    2    0    0  0.22700092994E+02  0.49043118693E+02  0.68528856268E+02  0.15244175759E+03  0.12498705374E+03 0.  0.
          2    1    1    2  501    0 -0.41655471648E+02 -0.78934458796E+01 -0.74093117146E+03  0.74214317059E+03  0.00000000000E+00 0. -1.
          1    1    1    2  502    0  0.18955378654E+02 -0.41149672813E+02  0.84995468297E+03  0.85116130378E+03  0.00000000000E+00 0. -1.
         22    1    3    3    0    0  0.71429251726E+02  0.10320517201E+02  0.48905948164E+02  0.87180518714E+02  0.00000000000E+00 0. -1.
         22    1    3    3    0    0 -0.48729158732E+02  0.38722601492E+02  0.19622908105E+02  0.65261238876E+02  0.00000000000E+00 0. -1.
</event>
<event>
 7    1  0.5977291E-006  0.5228377E+02  0.7818608E-02  0.1489185E+00
          2   -1    0    0  502    0  0.00000000000E+00  0.00000000000E+00  0.60383681904E+03  0.60383681904E+03  0.00000000000E+00 0. -1.
          1   -1    0    0  501    0 -0.00000000000E+00 -0.00000000000E+00 -0.14083648117E+04  0.14083648117E+04  0.00000000000E+00 0. -1.
         25    2    1    2    0    0  0.36698580596E+02  0.74820023469E+02  0.95038187056E+02  0.17777061688E+03  0.12500125399E+03 0.  0.
          2    1    1    2  501    0 -0.24264688495E+02 -0.25063134761E+02 -0.13653683330E+04  0.13658139040E+04  0.00000000000E+00 0. -1.
          1    1    1    2  502    0 -0.12433892102E+02 -0.49756888708E+02  0.46580215324E+03  0.46861710982E+03  0.00000000000E+00 0. -1.
         22    1    3    3    0    0  0.58853315890E+02  0.84541730719E+02  0.28365413101E+02  0.10684387528E+03  0.00000000000E+00 0.  1.
         22    1    3    3    0    0 -0.22154735294E+02 -0.97217072506E+01  0.66672773955E+02  0.70926741605E+02  0.00000000000E+00 0.  1.
</event>
<event>
 7    1  0.5977291E-006  0.6360759E+02  0.7818608E-02  0.1424306E+00
          2   -1    0    0  502    0  0.00000000000E+00  0.00000000000E+00  0.24472557803E+04  0.24472557803E+04  0.00000000000E+00 0. -1.
          1   -1    0    0  501    0 -0.00000000000E+00 -0.00000000000E+00 -0.13961936147E+02  0.13961936147E+02  0.00000000000E+00 0. -1.
         25    2    1    2    0    0  0.23517466956E+02 -0.65085956710E+02  0.11593990642E+04  0.11681699727E+04  0.12500256773E+03 0.  0.
          2    1    1    2  501    0 -0.55849456189E+02  0.32298254428E+02  0.10493626711E+03  0.12318262520E+03  0.00000000000E+00 0. -1.
          1    1    1    2  502    0  0.32331989233E+02  0.32787702283E+02  0.11689585128E+04  0.11698651186E+04  0.00000000000E+00 0. -1.
         22    1    3    3    0    0  0.10821700046E+02  0.99257327716E+01  0.82880179369E+03  0.82893186849E+03  0.00000000000E+00 0.  1.
         22    1    3    3    0    0  0.12695766910E+02 -0.75011689482E+02  0.33059727055E+03  0.33923810422E+03  0.00000000000E+00 0.  1.
</event>
<event>
 7    1  0.5977291E-006  0.5123995E+02  0.7818608E-02  0.1481882E+00
          2   -1    0    0  502    0  0.00000000000E+00  0.00000000000E+00  0.34540018735E+02  0.34540018735E+02  0.00000000000E+00 0. -1.
          1   -1    0    0  501    0 -0.00000000000E+00 -0.00000000000E+00 -0.83323102049E+03  0.83323102049E+03  0.00000000000E+00 0. -1.
         25    2    1    2    0    0 -0.57147389057E+02 -0.22622441513E+02 -0.17670823902E+03  0.22500461326E+03  0.12499470116E+03 0.  0.
          2    1    1    2  501    0  0.81664932701E+01  0.36563997011E+02 -0.56540370617E+03  0.56664359914E+03  0.00000000000E+00 0. -1.
          1    1    1    2  502    0  0.48980895787E+02 -0.13941555498E+02 -0.56579056571E+02  0.76122826827E+02  0.00000000000E+00 0. -1.
         22    1    3    3    0    0  0.42363962463E+01  0.68137848429E+01 -0.15256125680E+03  0.15277209101E+03  0.00000000000E+00 0. -1.
         22    1    3    3    0    0 -0.61383785303E+02 -0.29436226356E+02 -0.24146982217E+02  0.72232522249E+02  0.00000000000E+00 0. -1.
</event>
<event>
 7    1  0.5977291E-006  0.9171547E+02  0.7818608E-02  0.1391924E+00
          2   -1    0    0  502    0  0.00000000000E+00  0.00000000000E+00  0.17828882223E+04  0.17828882223E+04  0.00000000000E+00 0. -1.
          1   -1    0    0  501    0 -0.00000000000E+00 -0.00000000000E+00 -0.22374037549E+04  0.22374037549E+04  0.00000000000E+00 0. -1.
         25    2    1    2    0    0 -0.54261934759E+02 -0.64945022676E+02 -0.56329275553E+02  0.16112723898E+03  0.12500714509E+03 0.  0.
          2    1    1    2  501    0  0.21264799951E+02  0.89525335478E+02 -0.21274362632E+04  0.21294252819E+04  0.00000000000E+00 0. -1.
          1    1    1    2  502    0  0.32997134809E+02 -0.24580312802E+02  0.17292500062E+04  0.17297394563E+04  0.00000000000E+00 0. -1.
         22    1    3    3    0    0  0.40237141505E+02 -0.29775899960E+02 -0.21050696183E+02  0.54302519138E+02  0.00000000000E+00 0. -1.
         22    1    3    3    0    0 -0.94499076265E+02 -0.35169122716E+02 -0.35278579369E+02  0.10682471984E+03  0.00000000000E+00 0. -1.
</event>
<event>
 7    1  0.5977291E-006  0.9715151E+02  0.7818608E-02  0.1404128E+00
          2   -1    0    0  502    0  0.00000000000E+00  0.00000000000E+00  0.36076920273E+03  0.36076920273E+03  0.00000000000E+00 0. -1.
          1   -1    0    0  501    0 -0.00000000000E+00 -0.00000000000E+00 -0.10443959523E+04  0.10443959523E+04  0.00000000000E+00 0. -1.
         25    2    1    2    0    0  0.51501414191E+02  0.61376555837E+02 -0.13831630958E+02  0.14911448460E+03  0.12499735290E+03 0.  0.
          2    1    1    2  501    0  0.33709788198E+02 -0.10326345776E+02 -0.95417264401E+03  0.95482376270E+03  0.00000000000E+00 0. -1.
          1    1    1    2  502    0 -0.85211202389E+02 -0.51050210061E+02  0.28437752542E+03  0.30122690770E+03  0.00000000000E+00 0. -1.
         22    1    3    3    0    0 -0.76892102404E+00  0.88241829116E+02  0.19342084344E+01  0.88266374161E+02  0.00000000000E+00 0. -1.
         22    1    3    3    0    0  0.52270335215E+02 -0.26865273279E+02 -0.15765839392E+02  0.60848110436E+02  0.00000000000E+00 0. -1.
</event>
<event>
 7    1  0.5977291E-006  0.9597866E+02  0.7818608E-02  0.1386961E+00
          2   -1    0    0  502    0  0.00000000000E+00  0.00000000000E+00  0.22215641332E+04  0.22215641332E+04  0.00000000000E+00 0. -1.
          1   -1    0    0  501    0 -0.00000000000E+00 -0.00000000000E+00 -0.33686609070E+02  0.33686609070E+02  0.00000000000E+00 0. -1.
         25    2    1    2    0    0  0.21705960048E+02 -0.54142723358E+02  0.10452020794E+04  0.10542652673E+04  0.12500113569E+03 0.  0.
          2    1    1    2  501    0 -0.41791493783E+02  0.89793405428E+02  0.56470597887E+02  0.11401014445E+03  0.00000000000E+00 0. -1.
          1    1    1    2  502    0  0.20085533735E+02 -0.35650682069E+02  0.10862048469E+04  0.10869753305E+04  0.00000000000E+00 0. -1.
         22    1    3    3    0    0  0.26233869019E+02  0.12936378764E+02  0.78412873198E+03  0.78467409419E+03  0.00000000000E+00 0. -1.
         22    1    3    3    0    0 -0.45279089704E+01 -0.67079102122E+02  0.26107334741E+03  0.26959117313E+03  0.00000000000E+00 0. -1.
</event>
<event>
 7    1  0.5977291E-006  0.9622400E+02  0.7818608E-02  0.1385657E+00
          2   -1    0    0  502    0  0.00000000000E+00  0.00000000000E+00  0.12183431515E+04  0.12183431515E+04  0.00000000000E+00 0. -1.
          1   -1    0    0  501    0 -0.00000000000E+00 -0.00000000000E+00 -0.49342000233E+03  0.49342000233E+03  0.00000000000E+00 0. -1.
         25    2    1    2    0    0  0.32934164206E+02 -0.91266268845E+02 -0.12412954044E+03  0.20110164051E+03  0.12497814211E+03 0.  0.
          2    1    1    2  501    0  0.78932496106E+01  0.97136325169E+02 -0.32325604529E+03  0.33762736837E+03  0.00000000000E+00 0. -1.
          1    1    1    2  502    0 -0.40827413817E+02 -0.58700563237E+01  0.11723087349E+04  0.11730341449E+04  0.00000000000E+00 0. -1.
         22    1    3    3    0    0 -0.52585099415E+01 -0.34998576561E+02  0.20770952836E+02  0.41036383488E+02  0.00000000000E+00 0. -1.
         22    1    3    3    0    0  0.38192674148E+02 -0.56267692285E+02 -0.14490049328E+03  0.16006525702E+03  0.00000000000E+00 0. -1.
</event>
<event>
 7    1  0.5977291E-006  0.9223609E+02  0.7818608E-02  0.1455860E+00
          2   -1    0    0  502    0  0.00000000000E+00  0.00000000000E+00  0.13263168157E+04  0.13263168157E+04  0.00000000000E+00 0. -1.
          1   -1    0    0  501    0 -0.00000000000E+00 -0.00000000000E+00 -0.31522122062E+02  0.31522122062E+02  0.00000000000E+00 0. -1.
         25    2    1    2    0    0 -0.27223974742E+02 -0.99724011907E+02  0.89633199367E+03  0.91089075396E+03  0.12499959768E+03 0.  0.
          2    1    1    2  501    0  0.43307201812E+02  0.80473505308E+02  0.64052544434E+02  0.11159850910E+03  0.00000000000E+00 0. -1.
          1    1    1    2  502    0 -0.16083227070E+02  0.19250506599E+02  0.33441015558E+03  0.33534967475E+03  0.00000000000E+00 0. -1.
         22    1    3    3    0    0  0.25596280629E+02 -0.41895982893E+02  0.10750624461E+03  0.11818644421E+03  0.00000000000E+00 0. -1.
         22    1    3    3    0    0 -0.52820255372E+02 -0.57828029014E+02  0.78882574906E+03  0.79270430975E+03  0.00000000000E+00 0. -1.
</event>
<event>
 7    1  0.5977291E-006  0.5159053E+02  0.7818608E-02  0.1547878E+00
          2   -1    0    0  502    0  0.00000000000E+00  0.00000000000E+00  0.14910036427E+03  0.14910036427E+03  0.00000000000E+00 0. -1.
          1   -1    0    0  501    0 -0.00000000000E+00 -0.00000000000E+00 -0.50033039320E+03  0.50033039320E+03  0.00000000000E+00 0. -1.
         25    2    1    2    0    0  0.66879349639E+02 -0.25179970801E+01 -0.28784656283E+02  0.14467512425E+03  0.12499258947E+03 0.  0.
          2    1    1    2  501    0 -0.48216804288E+02  0.17376999192E+02 -0.41041808126E+03  0.41360587731E+03  0.00000000000E+00 0. -1.
          1    1    1    2  502    0 -0.18662545351E+02 -0.14859002112E+02  0.87972708612E+02  0.91149755914E+02  0.00000000000E+00 0. -1.
         22    1    3    3    0    0 -0.29683752281E+02  0.95197921444E+01 -0.35364564131E+02  0.47142379958E+02  0.00000000000E+00 0.  1.
         22    1    3    3    0    0  0.96563101919E+02 -0.12037789224E+02  0.65799078482E+01  0.97532744291E+02  0.00000000000E+00 0.  1.
</event>
<event>
 7    1  0.5977291E-006  0.8060915E+02  0.7818608E-02  0.1464953E+00
          2   -1    0    0  502    0  0.00000000000E+00  0.00000000000E+00  0.32909260419E+03  0.32909260419E+03  0.00000000000E+00 0. -1.
          1   -1    0    0  501    0 -0.00000000000E+00 -0.00000000000E+00 -0.14144362540E+04  0.14144362540E+04  0.00000000000E+00 0. -1.
         25    2    1    2    0    0  0.46097522692E+02  0.86764709485E+02 -0.37594131499E+03  0.40818217268E+03  0.12501086900E+03 0.  0.
          2    1    1    2  501    0 -0.51144146263E+02 -0.60373370009E+02 -0.10202631864E+04  0.10233267499E+04  0.00000000000E+00 0. -1.
          1    1    1    2  502    0  0.50466235712E+01 -0.26391339475E+02  0.31086085156E+03  0.31201993565E+03  0.00000000000E+00 0. -1.
         22    1    3    3    0    0  0.88522435733E+02  0.45479735935E+02 -0.22384585263E+03  0.24497263878E+03  0.00000000000E+00 0. -1.
         22    1    3    3    0    0 -0.42424913041E+02  0.41284973550E+02 -0.15209546236E+03  0.16320953391E+03  0.00000000000E+00 0. -1.
</event>
<event>
 7    1  0.5977291E-006  0.6793590E+02  0.7818608E-02  0.1434489E+00
          2   -1    0    0  502    0  0.00000000000E+00  0.00000000000E+00  0.87204305984E+03  0.87204305984E+03  0.00000000000E+00 0. -1.
          1   -1    0    0  501    0 -0.00000000000E+00 -0.00000000000E+00 -0.32651600218E+02  0.32651600218E+02  0.00000000000E+00 0. -1.
         25    2    1    2    0    0  0.42483076807E+02  0.58019674085E+02  0.40362022826E+03  0.42860788049E+03  0.12499732862E+03 0.  0.
          2    1    1    2  501    0 -0.38362621785E+02  0.10999900733E+02  0.54884608485E+01  0.40284137931E+02  0.00000000000E+00 0. -1.
          1    1    1    2  502    0 -0.41204550226E+01 -0.69019574818E+02  0.43028277051E+03  0.43580264163E+03  0.00000000000E+00 0. -1.
         22    1    3    3    0    0 -0.21463773214E+02 -0.39899249036E+01  0.25060460115E+03  0.25155373020E+03  0.00000000000E+00 0.  1.
         22    1    3    3    0    0  0.63946850021E+02  0.62009598989E+02  0.15301562711E+03  0.17705415029E+03  0.00000000000E+00 0.  1.
</event>
<event>
 7    1  0.5977291E-006  0.1112827E+03  0.7818608E-02  0.1333684E+00
          2   -1    0    0  502    0  0.00000000000E+00  0.00000000000E+00  0.69708096500E+02  0.69708096500E+02  0.00000000000E+00 0. -1.
          1   -1    0    0  501    0 -0.00000000000E+00 -0.00000000000E+00 -0.20100108480E+04  0.20100108480E+04  0.00000000000E+00 0. -1.
         25    2    1    2    0    0  0.38458259254E+02 -0.47391496299E+02 -0.21188416215E+03  0.25347816852E+03  0.12502516596E+03 0.  0.
          2    1    1    2  501    0 -0.79450424107E+02  0.84389413693E+02 -0.17592048930E+04  0.17630189445E+04  0.00000000000E+00 0. -1.
          1    1    1    2  502    0  0.40992164854E+02 -0.36997917394E+02  0.30786303726E+02  0.63221831419E+02  0.00000000000E+00 0. -1.
         22    1    3    3    0    0  0.18875153968E+02 -0.38271577048E+02 -0.22446091026E+03  0.22848125805E+03  0.00000000000E+00 0.  1.
         22    1    3    3    0    0  0.19583105285E+02 -0.91199192509E+01  0.12576748115E+02  0.24996910467E+02  0.00000000000E+00 0.  1.
</event>
<event>
 7    1  0.5977291E-006  0.7444222E+02  0.7818608E-02  0.1438840E+00
          2   -1    0    0  502    0  0.00000000000E+00  0.00000000000E+00  0.82016128281E+03  0.82016128281E+03  0.00000000000E+00 0. -1.
          1   -1    0    0  501    0 -0.00000000000E+00 -0.00000000000E+00 -0.85479389789E+02  0.85479389789E+02  0.00000000000E+00 0. -1.
         25    2    1    2    0    0  0.61612944296E+02  0.86870466297E+02  0.20347758687E+03  0.26147785222E+03  0.12499962409E+03 0.  0.
          2    1    1    2  501    0 -0.39890877519E+02 -0.59108787741E+02 -0.33199276332E+02  0.78659537543E+02  0.00000000000E+00 0. -1.
          1    1    1    2  502    0 -0.21722066777E+02 -0.27761678556E+02  0.56440358248E+03  0.56550328283E+03  0.00000000000E+00 0. -1.
         22    1    3    3    0    0  0.69488228263E+02  0.39398336693E+02  0.19743103233E+03  0.21297853255E+03  0.00000000000E+00 0. -1.
         22    1    3    3    0    0 -0.78752839674E+01  0.47472129604E+02  0.60465545473E+01  0.48499319672E+02  0.00000000000E+00 0. -1.
</event>
<event>
 7    1  0.5977291E-006  0.1019700E+03  0.7818608E-02  0.1332523E+00
          2   -1    0    0  502    0  0.00000000000E+00  0.00000000000E+00  0.37941831102E+03  0.37941831102E+03  0.00000000000E+00 0. -1.
          1   -1    0    0  501    0 -0.00000000000E+00 -0.00000000000E+00 -0.14528086222E+03  0.14528086222E+03  0.00000000000E+00 0. -1.
         25    2    1    2    0    0 -0.44524144903E+02 -0.13541088460E+03  0.91159137949E+02  0.21036658535E+03  0.12500241858E+03 0.  0.
          2    1    1    2  501    0 -0.13766564650E+02  0.59301019271E+02 -0.62710576569E+02  0.87399917635E+02  0.00000000000E+00 0. -1.
          1    1    1    2  502    0  0.58290709553E+02  0.76109865329E+02  0.20568888742E+03  0.22693267026E+03  0.00000000000E+00 0. -1.
         22    1    3    3    0    0  0.24992798766E+02 -0.37970258087E+02 -0.17496622474E+02  0.48708441644E+02  0.00000000000E+00 0. -1.
         22    1    3    3    0    0 -0.69516943669E+02 -0.97440626513E+02  0.10865576042E+03  0.16165814370E+03  0.00000000000E+00 0. -1.
</event>
<event>
 7    1  0.5977291E-006  0.1087770E+03  0.7818608E-02  0.1326748E+00
          2   -1    0    0  502    0  0.00000000000E+00  0.00000000000E+00  0.36072043671E+03  0.36072043671E+03  0.00000000000E+00 0. -1.
          1   -1    0    0  501    0 -0.00000000000E+00 -0.00000000000E+00 -0.39934582204E+03  0.39934582204E+03  0.00000000000E+00 0. -1.
         25    2    1    2    0    0 -0.54241079799E+02 -0.40618598748E+02  0.75909751152E+02  0.16117990299E+03  0.12499882202E+03 0.  0.
          2    1    1    2  501    0 -0.58698091002E+02 -0.12643325605E+02 -0.33778941717E+03  0.34308455215E+03  0.00000000000E+00 0. -1.
          1    1    1    2  502    0  0.11293917080E+03  0.53261924353E+02  0.22325428069E+03  0.25580180362E+03  0.00000000000E+00 0. -1.
         22    1    3    3    0    0  0.28136777024E+02 -0.12976047669E+02  0.67018079505E+02  0.73834131775E+02  0.00000000000E+00 0.  1.
         22    1    3    3    0    0 -0.82377856822E+02 -0.27642551078E+02  0.88916716467E+01  0.87345771217E+02  0.00000000000E+00 0.  1.
</event>
<event>
 7    1  0.5977291E-006  0.1327811E+03  0.7818608E-02  0.1342308E+00
          2   -1    0    0  502    0  0.00000000000E+00  0.00000000000E+00  0.26844992828E+04  0.26844992828E+04  0.00000000000E+00 0. -1.
          1   -1    0    0  501    0 -0.00000000000E+00 -0.00000000000E+00 -0.40621620122E+03  0.40621620122E+03  0.00000000000E+00 0. -1.
         25    2    1    2    0    0 -0.12276443423E+02  0.99467326048E+02  0.48484828463E+03  0.51063392119E+03  0.12499872937E+03 0.  0.
          2    1    1    2  501    0 -0.27014237086E+02  0.33374559738E+02 -0.38994982513E+03  0.39230663563E+03  0.00000000000E+00 0. -1.
          1    1    1    2  502    0  0.39290680509E+02 -0.13284188579E+03  0.21833846221E+04  0.21877749272E+04  0.00000000000E+00 0. -1.
         22    1    3    3    0    0  0.63671883182E+01  0.48122092621E+02  0.43169619486E+03  0.43441671416E+03  0.00000000000E+00 0.  1.
         22    1    3    3    0    0 -0.18643631741E+02  0.51345233427E+02  0.53152089773E+02  0.76217207030E+02  0.00000000000E+00 0.  1.
</event>
<event>
 7    1  0.5977291E-006  0.1372335E+03  0.7818608E-02  0.1289955E+00
          2   -1    0    0  502    0  0.00000000000E+00  0.00000000000E+00  0.12904747799E+04  0.12904747799E+04  0.00000000000E+00 0. -1.
          1   -1    0    0  501    0 -0.00000000000E+00 -0.00000000000E+00 -0.71792112341E+03  0.71792112341E+03  0.00000000000E+00 0. -1.
         25    2    1    2    0    0  0.38032232537E+02 -0.17187483674E+03 -0.30509098119E+03  0.37375383089E+03  0.12499603628E+03 0.  0.
          2    1    1    2  501    0 -0.62950504557E+02  0.11019860421E+03 -0.36694709702E+03  0.38827396308E+03  0.00000000000E+00 0. -1.
          1    1    1    2  502    0  0.24918272020E+02  0.61676232529E+02  0.12445917347E+04  0.12463681093E+04  0.00000000000E+00 0. -1.
         22    1    3    3    0    0  0.60442678470E+02 -0.16488283729E+03 -0.30296482359E+03  0.35018188381E+03  0.00000000000E+00 0. -1.
         22    1    3    3    0    0 -0.22410445933E+02 -0.69919994477E+01 -0.21261576009E+01  0.23571947084E+02  0.00000000000E+00 0. -1.
</event>
<event>
 7    1  0.5977291E-006  0.1120647E+03  0.7818608E-02  0.1342549E+00
          2   -1    0    0  502    0  0.00000000000E+00  0.00000000000E+00  0.38895148799E+03  0.38895148799E+03  0.00000000000E+00 0. -1.
          1   -1    0    0  501    0 -0.00000000000E+00 -0.00000000000E+00 -0.23320118573E+03  0.23320118573E+03  0.00000000000E+00 0. -1.
         25    2    1    2    0    0 -0.43690445465E+02  0.78081152986E+02  0.39919396479E+02  0.15882061930E+03  0.12499963769E+03 0.  0.
          2    1    1    2  501    0  0.94010255966E+02 -0.71338023608E+02 -0.15103871363E+03  0.19167611968E+03  0.00000000000E+00 0. -1.
          1    1    1    2  502    0 -0.50319810500E+02 -0.67431293788E+01  0.26686961941E+03  0.27165593475E+03  0.00000000000E+00 0. -1.
         22    1    3    3    0    0 -0.10422503123E+02 -0.13684754549E+02  0.57166482211E+02  0.59698473739E+02  0.00000000000E+00 0. -1.
         22    1    3    3    0    0 -0.33267942342E+02  0.91765907535E+02 -0.17247085732E+02  0.99122145556E+02  0.00000000000E+00 0. -1.
</event>
<event>
 7    1  0.5977291E-006  0.5916610E+02  0.7818608E-02  0.1438568E+00
          2   -1    0    0  502    0  0.00000000000E+00  0.00000000000E+00  0.99786914799E+03  0.99786914799E+03  0.00000000000E+00 0. -1.
          1   -1    0    0  501    0 -0.00000000000E+00 -0.00000000000E+00 -0.73645049790E+02  0.73645049790E+02  0.00000000000E+00 0. -1.
         25    2    1    2    0    0  0.23071359537E+02  0.24231427856E+02  0.64551434241E+03  0.65835019897E+03  0.12496706967E+03 0.  0.
          2    1    1    2  501    0  0.19465601628E+02  0.39951618456E+02 -0.54985850069E+02  0.70699965854E+02  0.00000000000E+00 0. -1.
          1    1    1    2  502    0 -0.42536961165E+02 -0.64183046313E+02  0.33369560586E+03  0.34246403296E+03  0.00000000000E+00 0. -1.
         22    1    3    3    0    0  0.28341837532E+01 -0.41363557468E+01 -0.48954115188E+01  0.70076451359E+01  0.00000000000E+00 0. -1.
         22    1    3    3    0    0  0.20237175784E+02  0.28367783603E+02  0.65040975393E+03  0.65134255383E+03  0.00000000000E+00 0. -1.
</event>
<event>
 7    1  0.5977291E-006  0.8187476E+02  0.7818608E-02  0.1379319E+00
          2   -1    0    0  502    0  0.00000000000E+00  0.00000000000E+00  0.16504569553E+03  0.16504569553E+03  0.00000000000E+00 0. -1.
          1   -1    0    0  501    0 -0.00000000000E+00 -0.00000000000E+00 -0.27327518127E+03  0.27327518127E+03  0.00000000000E+00 0. -1.
         25    2    1    2    0    0  0.39297605371E+02  0.43234744711E+02 -0.11685915283E+03  0.18081552615E+03  0.12499859182E+03 0.  0.
          2    1    1    2  501    0 -0.29894044738E+02  0.41367221998E+02 -0.10428197804E+03  0.11610181700E+03  0.00000000000E+00 0. -1.
          1    1    1    2  502    0 -0.94035606331E+01 -0.84601966709E+02  0.11291164513E+03  0.14140353365E+03  0.00000000000E+00 0. -1.
         22    1    3    3    0    0  0.23241361742E+02  0.87526634876E+02 -0.82506522040E+02  0.12250877065E+03  0.00000000000E+00 0.  1.
         22    1    3    3    0    0  0.16056243630E+02 -0.44291890165E+02 -0.34352630786E+02  0.58306755490E+02  0.00000000000E+00 0.  1.
</event>
<event>
 7    1  0.5977291E-006  0.5699792E+02  0.7818608E-02  0.1523806E+00
          2   -1    0    0  502    0  0.00000000000E+00  0.00000000000E+00  0.14458800341E+03  0.14458800341E+03  0.00000000000E+00 0. -1.
          1   -1    0    0  501    0 -0.00000000000E+00 -0.00000000000E+00 -0.12726550946E+04  0.12726550946E+04  0.00000000000E+00 0. -1.
         25    2    1    2    0    0 -0.64966075431E+02  0.45576340559E+02 -0.43604482379E+03  0.46049769500E+03  0.12500097987E+03 0.  0.
          2    1    1    2  501    0  0.41216677750E+02 -0.36921545576E+02 -0.82223854176E+03  0.82409843745E+03  0.00000000000E+00 0. -1.
          1    1    1    2  502    0  0.23749397682E+02 -0.86547949826E+01  0.13021627436E+03  0.13264696557E+03  0.00000000000E+00 0. -1.
         22    1    3    3    0    0  0.35321393830E+02  0.30231528183E+02 -0.12864857402E+03  0.13679181904E+03  0.00000000000E+00 0. -1.
         22    1    3    3    0    0 -0.10028746926E+03  0.15344812376E+02 -0.30739624977E+03  0.32370587596E+03  0.00000000000E+00 0. -1.
</event>
<event>
 7    1  0.5977291E-006  0.2712704E+02  0.7818608E-02  0.1647005E+00
          2   -1    0    0  502    0  0.00000000000E+00  0.00000000000E+00  0.42844836673E+02  0.42844836673E+02  0.00000000000E+00 0. -1.
          1   -1    0    0  501    0 -0.00000000000E+00 -0.00000000000E+00 -0.72291717389E+03  0.72291717389E+03  0.00000000000E+00 0. -1.
         25    2    1    2    0    0 -0.23360437205E+02 -0.19408246688E+02 -0.62023016635E+03  0.63343044560E+03  0.12500512032E+03 0.  0.
          2    1    1    2  501    0  0.28103911555E+00  0.28820462286E+02 -0.89246278681E+02  0.93784840395E+02  0.00000000000E+00 0. -1.
          1    1    1    2  502    0  0.23079398090E+02 -0.94122155979E+01  0.29404107809E+02  0.38546724565E+02  0.00000000000E+00 0. -1.
         22    1    3    3    0    0 -0.68055212339E+01 -0.71613276133E+02 -0.40516752597E+03  0.41150394960E+03  0.00000000000E+00 0.  1.
         22    1    3    3    0    0 -0.16554915971E+02  0.52205029446E+02 -0.21506264038E+03  0.22192649600E+03  0.00000000000E+00 0.  1.
</event>
<event>
 7    1  0.5977291E-006  0.7538361E+02  0.7818608E-02  0.1374688E+00
          2   -1    0    0  502    0  0.00000000000E+00  0.00000000000E+00  0.90181774091E+03  0.90181774091E+03  0.00000000000E+00 0. -1.
          1   -1    0    0  501    0 -0.00000000000E+00 -0.00000000000E+00 -0.23783800782E+03  0.23783800782E+03  0.00000000000E+00 0. -1.
         25    2    1    2    0    0 -0.57529547449E+02  0.42166772644E+02 -0.10331858031E+03  0.17716497821E+03  0.12500005968E+03 0.  0.
          2    1    1    2  501    0  0.83623602311E+02  0.91566327686E+01 -0.78306002160E+02  0.11492858984E+03  0.00000000000E+00 0. -1.
          1    1    1    2  502    0 -0.26094054863E+02 -0.51323405413E+02  0.84560431556E+03  0.84756218069E+03  0.00000000000E+00 0. -1.
         22    1    3    3    0    0 -0.69176380145E+02  0.78043683914E+02 -0.87989752484E+02  0.13644920194E+03  0.00000000000E+00 0. -1.
         22    1    3    3    0    0  0.11646832697E+02 -0.35876911270E+02 -0.15328827830E+02  0.40715776264E+02  0.00000000000E+00 0. -1.
</event>
<event>
 7    1  0.5977291E-006  0.9811564E+02  0.7818608E-02  0.1377627E+00
          2   -1    0    0  502    0  0.00000000000E+00  0.00000000000E+00  0.15927015323E+04  0.15927015323E+04  0.00000000000E+00 0. -1.
          1   -1    0    0  501    0 -0.00000000000E+00 -0.00000000000E+00 -0.26072649905E+02  0.26072649905E+02  0.00000000000E+00 0. -1.
         25    2    1    2    0    0 -0.10790925848E+03 -0.75386470333E+01  0.59898045868E+03  0.62136952929E+03  0.12498505024E+03 0.  0.
          2    1    1    2  501    0  0.16025877027E+02  0.40098999874E+02  0.25342677870E+02  0.50070049401E+02  0.00000000000E+00 0. -1.
          1    1    1    2  502    0  0.91883381453E+02 -0.32560352841E+02  0.94230574589E+03  0.94733460356E+03  0.00000000000E+00 0. -1.
         22    1    3    3    0    0 -0.31102696460E+02 -0.29448398141E+02  0.46796001304E+02  0.63438565701E+02  0.00000000000E+00 0. -1.
         22    1    3    3    0    0 -0.76806562020E+02  0.21909751108E+02  0.55218445738E+03  0.55793096359E+03  0.00000000000E+00 0. -1.
</event>
<event>
 7    1  0.5977291E-006  0.1108065E+03  0.7818608E-02  0.1363153E+00
          2   -1    0    0  502    0  0.00000000000E+00  0.00000000000E+00  0.15806470953E+04  0.15806470953E+04  0.00000000000E+00 0. -1.
          1   -1    0    0  501    0 -0.00000000000E+00 -0.00000000000E+00 -0.15170316358E+03  0.15170316358E+03  0.00000000000E+00 0. -1.
         25    2    1    2    0    0  0.13355172381E+03 -0.64386268005E+02  0.29879088791E+03  0.35620730969E+03  0.12500399329E+03 0.  0.
          2    1    1    2  501    0 -0.42624326124E+02  0.63955645042E+01 -0.11681863033E+03  0.12451637971E+03  0.00000000000E+00 0. -1.
          1    1    1    2  502    0 -0.90927397682E+02  0.57990703501E+02  0.12469716741E+04  0.12516265694E+04  0.00000000000E+00 0. -1.
         22    1    3    3    0    0  0.90704146598E+02 -0.81043091279E+02  0.11728588893E+03  0.16897101703E+03  0.00000000000E+00 0. -1.
         22    1    3    3    0    0  0.42847577208E+02  0.16656823273E+02  0.18150499898E+03  0.18723629266E+03  0.00000000000E+00 0. -1.
</event>
<event>
 7    1  0.5977291E-006  0.1311876E+03  0.7818608E-02  0.1299615E+00
          2   -1    0    0  502    0  0.00000000000E+00  0.00000000000E+00  0.46550715497E+04  0.46550715497E+04  0.00000000000E+00 0. -1.
          1   -1    0    0  501    0 -0.00000000000E+00 -0.00000000000E+00 -0.23202914208E+02  0.23202914208E+02  0.00000000000E+00 0. -1.
         25    2    1    2    0    0 -0.75681594268E+02 -0.26348269484E+02  0.11733309676E+04  0.11826891247E+04  0.12500428455E+03 0.  0.
          2    1    1    2  501    0  0.13791913826E+03  0.39488943338E+02  0.26438828417E+03  0.30080264319E+03  0.00000000000E+00 0. -1.
          1    1    1    2  502    0 -0.62237543989E+02 -0.13140673854E+02  0.31941493838E+04  0.31947826961E+04  0.00000000000E+00 0. -1.
         22    1    3    3    0    0 -0.12511387155E+01  0.24410182636E+02  0.49032549880E+02  0.54786981229E+02  0.00000000000E+00 0. -1.
         22    1    3    3    0    0 -0.74430455553E+02 -0.50758452120E+02  0.11242984177E+04  0.11279021434E+04  0.00000000000E+00 0. -1.
</event>
<event>
 7    1  0.5977291E-006  0.1523156E+03  0.7818608E-02  0.1267292E+00
          2   -1    0    0  502    0  0.00000000000E+00  0.00000000000E+00  0.58424820004E+03  0.58424820004E+03  0.00000000000E+00 0. -1.
          1   -1    0    0  501    0 -0.00000000000E+00 -0.00000000000E+00 -0.99118861722E+03  0.99118861722E+03  0.00000000000E+00 0. -1.
         25    2    1    2    0    0 -0.12657708415E+03 -0.12361233525E+03  0.22147061998E+03  0.30979998750E+03  0.12500011632E+03 0.  0.
          2    1    1    2  501    0  0.14326573985E+03  0.51115214956E+02 -0.93645938924E+03  0.94873285234E+03  0.00000000000E+00 0. -1.
          1    1    1    2  502    0 -0.16688655700E+02  0.72497120292E+02  0.30804835209E+03  0.31690397742E+03  0.00000000000E+00 0. -1.
         22    1    3    3    0    0  0.20983642543E+02 -0.42984196033E+02  0.39506938782E+02  0.62038315378E+02  0.00000000000E+00 0. -1.
         22    1    3    3    0    0 -0.14756072670E+03 -0.80628139215E+02  0.18196368120E+03  0.24776167212E+03  0.00000000000E+00 0. -1.
</event>
<event>
 7    1  0.5977291E-006  0.5279538E+02  0.7818608E-02  0.1460284E+00
          2   -1    0    0  502    0  0.00000000000E+00  0.00000000000E+00  0.27259204159E+04  0.27259204159E+04  0.00000000000E+00 0. -1.
          1   -1    0    0  501    0 -0.00000000000E+00 -0.00000000000E+00 -0.34446473635E+02  0.34446473635E+02  0.00000000000E+00 0. -1.
         25    2    1    2    0    0 -0.45759026423E+02  0.13463984925E+02  0.95805826276E+03  0.96735390557E+03  0.12499110524E+03 0.  0.
          2    1    1    2  501    0 -0.57525642069E+00 -0.42431059554E+02 -0.14044456893E+02  0.44698685710E+02  0.00000000000E+00 0. -1.
          1    1    1    2  502    0  0.46334282844E+02  0.28967074629E+02  0.17474601364E+04  0.17483142983E+04  0.00000000000E+00 0. -1.
         22    1    3    3    0    0 -0.62044380807E+02  0.48646750516E+02  0.38522819673E+03  0.39321339637E+03  0.00000000000E+00 0. -1.
         22    1    3    3    0    0  0.16285354384E+02 -0.35182765591E+02  0.57283006603E+03  0.57414050920E+03  0.00000000000E+00 0. -1.
</event>
<event>
 7    1  0.5977291E-006  0.7312441E+02  0.7818608E-02  0.1415094E+00
          2   -1    0    0  502    0  0.00000000000E+00  0.00000000000E+00  0.14080150125E+02  0.14080150125E+02  0.00000000000E+00 0. -1.
          1   -1    0    0  501    0 -0.00000000000E+00 -0.00000000000E+00 -0.29181012059E+04  0.29181012059E+04  0.00000000000E+00 0. -1.
         25    2    1    2    0    0 -0.70324625037E+02 -0.22480343795E+02 -0.17723825335E+04  0.17783176600E+04  0.12499174393E+03 0.  0.
          2    1    1    2  501    0  0.48380552806E+02  0.59455918286E+02 -0.10941117904E+04  0.10967936424E+04  0.00000000000E+00 0. -1.
          1    1    1    2  502    0  0.21944072231E+02 -0.36975574491E+02 -0.37526731838E+02  0.57070053596E+02  0.00000000000E+00 0. -1.
         22    1    3    3    0    0 -0.96841775402E+02  0.12344883131E+02 -0.10194172917E+04  0.10240812176E+04  0.00000000000E+00 0.  1.
         22    1    3    3    0    0  0.26517150365E+02 -0.34825226926E+02 -0.75296524175E+03  0.75423644236E+03  0.00000000000E+00 0.  1.
</event>
<event>
 7    1  0.5977291E-006  0.4137782E+02  0.7818608E-02  0.1545060E+00
          2   -1    0    0  502    0  0.00000000000E+00  0.00000000000E+00  0.16112647712E+04  0.16112647712E+04  0.00000000000E+00 0. -1.
          1   -1    0    0  501    0 -0.00000000000E+00 -0.00000000000E+00 -0.12767504604E+03  0.12767504604E+03  0.00000000000E+00 0. -1.
         25    2    1    2    0    0  0.86170962387E+01  0.61612614491E+02 -0.24522979639E+02  0.14174089681E+03  0.12497494424E+03 0.  0.
          2    1    1    2  501    0  0.98947910508E+01 -0.37638878911E+02 -0.35865421123E+02  0.52923723678E+02  0.00000000000E+00 0. -1.
          1    1    1    2  502    0 -0.18511887289E+02 -0.23973735579E+02  0.15439781259E+04  0.15442751967E+04  0.00000000000E+00 0. -1.
         22    1    3    3    0    0  0.28767258759E+02 -0.32405465448E+02 -0.10324527173E+02  0.44545092083E+02  0.00000000000E+00 0.  1.
         22    1    3    3    0    0 -0.20150162520E+02  0.94018079938E+02 -0.14198452467E+02  0.97195804731E+02  0.00000000000E+00 0.  1.
</event>
<event>
 7    1  0.5977291E-006  0.4572949E+02  0.7818608E-02  0.1470829E+00
          2   -1    0    0  502    0  0.00000000000E+00  0.00000000000E+00  0.64031284133E+03  0.64031284133E+03  0.00000000000E+00 0. -1.
          1   -1    0    0  501    0 -0.00000000000E+00 -0.00000000000E+00 -0.30952610633E+03  0.30952610633E+03  0.00000000000E+00 0. -1.
         25    2    1    2    0    0 -0.16431780001E+02  0.32002294188E+02  0.51743390450E+02  0.13998773663E+03  0.12500015090E+03 0.  0.
          2    1    1    2  501    0  0.45957684383E+02  0.29177135370E+01 -0.26243532877E+03  0.26644497291E+03  0.00000000000E+00 0. -1.
          1    1    1    2  502    0 -0.29525904382E+02 -0.34920007725E+02  0.54147867332E+03  0.54340623812E+03  0.00000000000E+00 0. -1.
         22    1    3    3    0    0  0.20310787842E+02  0.10401678750E+02  0.83675435628E+02  0.86731202869E+02  0.00000000000E+00 0. -1.
         22    1    3    3    0    0 -0.36742567843E+02  0.21600615438E+02 -0.31932045178E+02  0.53256533761E+02  0.00000000000E+00 0. -1.
</event>
<event>
 7    1  0.5977291E-006  0.1004027E+03  0.7818608E-02  0.1391133E+00
          2   -1    0    0  502    0  0.00000000000E+00  0.00000000000E+00  0.14440098587E+04  0.14440098587E+04  0.00000000000E+00 0. -1.
          1   -1    0    0  501    0 -0.00000000000E+00 -0.00000000000E+00 -0.59586231156E+02  0.59586231156E+02  0.00000000000E+00 0. -1.
         25    2    1    2    0    0  0.98427715418E+02  0.61599016011E+02  0.16504328184E+03  0.23737594595E+03  0.12500240356E+03 0.  0.
          2    1    1    2  501    0 -0.34640240256E+02  0.15191809892E+02 -0.46641767150E+01  0.38111571434E+02  0.00000000000E+00 0. -1.
          1    1    1    2  502    0 -0.63787475162E+02 -0.76790825903E+02  0.12240445225E+04  0.12281085725E+04  0.00000000000E+00 0. -1.
         22    1    3    3    0    0  0.90180282600E+01  0.55994123544E+02  0.89717855817E+01  0.57420898998E+02  0.00000000000E+00 0.  1.
         22    1    3    3    0    0  0.89409687158E+02  0.56048924672E+01  0.15607149626E+03  0.17995504695E+03  0.00000000000E+00 0.  1.
</event>
<event>
 7    1  0.5977291E-006  0.4085163E+02  0.7818608E-02  0.1540981E+00
          2   -1    0    0  502    0  0.00000000000E+00  0.00000000000E+00  0.13981844229E+04  0.13981844229E+04  0.00000000000E+00 0. -1.
          1   -1    0    0  501    0 -0.00000000000E+00 -0.00000000000E+00 -0.25177262842E+03  0.25177262842E+03  0.00000000000E+00 0. -1.
         25    2    1    2    0    0  0.65473927816E+02 -0.69031754297E+01  0.29965985633E+03  0.33129399227E+03  0.12500076305E+03 0.  0.
          2    1    1    2  501    0 -0.29427851337E+02 -0.11239833281E+02 -0.23452609485E+03  0.23663224939E+03  0.00000000000E+00 0. -1.
          1    1    1    2  502    0 -0.36046076479E+02  0.18143008710E+02  0.10812780330E+04  0.10820308096E+04  0.00000000000E+00 0. -1.
         22    1    3    3    0    0  0.45018518321E+02  0.53395305171E+02  0.10190438417E+03  0.12354039469E+03  0.00000000000E+00 0.  1.
         22    1    3    3    0    0  0.20455409495E+02 -0.60298480601E+02  0.19775547215E+03  0.20775359758E+03  0.00000000000E+00 0.  1.
</event>
<event>
 7    1  0.5977291E-006  0.8500847E+02  0.7818608E-02  0.1318113E+00
          2   -1    0    0  502    0  0.00000000000E+00  0.00000000000E+00  0.27434659528E+04  0.27434659528E+04  0.00000000000E+00 0. -1.
          1   -1    0    0  501    0 -0.00000000000E+00 -0.00000000000E+00 -0.12676367348E+03  0.12676367348E+03  0.00000000000E+00 0. -1.
         25    2    1    2    0    0 -0.74326643922E+02  0.29710425575E+02  0.52591719379E+03  0.54646595651E+03  0.12501594908E+03 0.  0.
          2    1    1    2  501    0  0.12795532196E+02 -0.85369810445E+02 -0.99602995828E+02  0.13180473041E+03  0.00000000000E+00 0. -1.
          1    1    1    2  502    0  0.61531111726E+02  0.55659384870E+02  0.21903880814E+04  0.21919589394E+04  0.00000000000E+00 0. -1.
         22    1    3    3    0    0 -0.50739395182E+01 -0.39806704859E+02  0.75688718673E+02  0.85668551688E+02  0.00000000000E+00 0. -1.
         22    1    3    3    0    0 -0.69252704404E+02  0.69517130434E+02  0.45022847511E+03  0.46079740483E+03  0.00000000000E+00 0. -1.
</event>
<event>
 7    1  0.5977291E-006  0.5620480E+02  0.7818608E-02  0.1536863E+00
          2   -1    0    0  502    0  0.00000000000E+00  0.00000000000E+00  0.21554368174E+03  0.21554368174E+03  0.00000000000E+00 0. -1.
          1   -1    0    0  501    0 -0.00000000000E+00 -0.00000000000E+00 -0.10492118346E+04  0.10492118346E+04  0.00000000000E+00 0. -1.
         25    2    1    2    0    0  0.47148104715E+02 -0.70641500950E+01  0.15145036991E+02  0.13463693837E+03  0.12499954813E+03 0.  0.
          2    1    1    2  501    0 -0.47318555522E+02  0.30582681797E+02 -0.98767421728E+03  0.98927989245E+03  0.00000000000E+00 0. -1.
          1    1    1    2  502    0  0.17045080694E+00 -0.23518531702E+02  0.13886102746E+03  0.14083868550E+03  0.00000000000E+00 0. -1.
         22    1    3    3    0    0  0.99197665163E+01 -0.64307389144E+02  0.12783722932E+02  0.66311881577E+02  0.00000000000E+00 0. -1.
         22    1    3    3    0    0  0.37228338199E+02  0.57243239049E+02  0.23613140590E+01  0.68325056795E+02  0.00000000000E+00 0. -1.
</event>
<event>
 7    1  0.5977291E-006  0.7675952E+02  0.7818608E-02  0.1366237E+00
          2   -1    0    0  502    0  0.00000000000E+00  0.00000000000E+00  0.50133135544E+03  0.50133135544E+03  0.00000000000E+00 0. -1.
          1   -1    0    0  501    0 -0.00000000000E+00 -0.00000000000E+00 -0.85632891380E+03  0.85632891380E+03  0.00000000000E+00 0. -1.
         25    2    1    2    0    0 -0.11110968186E+03  0.56845684362E+02 -0.82360358282E+02  0.19489670623E+03  0.12499881700E+03 0.  0.
          2    1    1    2  501    0  0.74889616610E+02 -0.82128618671E+01 -0.71364282889E+03  0.71760852350E+03  0.00000000000E+00 0. -1.
          1    1    1    2  502    0  0.36220065249E+02 -0.48632822495E+02  0.44100562881E+03  0.44515503950E+03  0.00000000000E+00 0. -1.
         22    1    3    3    0    0 -0.82208131025E+02 -0.10081774329E+02 -0.89142457093E+02  0.12168071596E+03  0.00000000000E+00 0. -1.
         22    1    3    3    0    0 -0.28901550834E+02  0.66927458691E+02  0.67820988115E+01  0.73215990274E+02  0.00000000000E+00 0. -1.
</event>
<event>
 7    1  0.5977291E-006  0.1374617E+03  0.7818608E-02  0.1327007E+00
          2   -1    0    0  502    0  0.00000000000E+00  0.00000000000E+00  0.21698701171E+04  0.21698701171E+04  0.00000000000E+00 0. -1.
          1   -1    0    0  501    0 -0.00000000000E+00 -0.00000000000E+00 -0.35282099865E+04  0.35282099865E+04  0.00000000000E+00 0. -1.
         25    2    1    2    0    0  0.10331984438E+03 -0.95197638811E+02 -0.25280789398E+02  0.18975601978E+03  0.12502259016E+03 0.  0.
          2    1    1    2  501    0 -0.64034533160E+02  0.12173045295E+03 -0.34190395028E+04  0.34218050567E+04  0.00000000000E+00 0. -1.
          1    1    1    2  502    0 -0.39285311215E+02 -0.26532814143E+02  0.20859804228E+04  0.20865190271E+04  0.00000000000E+00 0. -1.
         22    1    3    3    0    0  0.10263478347E+02  0.20091116718E+02 -0.34598867761E+02  0.41304643917E+02  0.00000000000E+00 0.  1.
         22    1    3    3    0    0  0.93056366028E+02 -0.11528875553E+03  0.93180783627E+01  0.14845137586E+03  0.00000000000E+00 0.  1.
</event>
<event>
 7    1  0.5977291E-006  0.9361631E+02  0.7818608E-02  0.1460920E+00
          2   -1    0    0  502    0  0.00000000000E+00  0.00000000000E+00  0.45670286359E+03  0.45670286359E+03  0.00000000000E+00 0. -1.
          1   -1    0    0  501    0 -0.00000000000E+00 -0.00000000000E+00 -0.14813756146E+03  0.14813756146E+03  0.00000000000E+00 0. -1.
         25    2    1    2    0    0 -0.75627510629E+02  0.77200997060E+02  0.32347523713E+03  0.36323723913E+03  0.12500219417E+03 0.  0.
          2    1    1    2  501    0  0.51806224072E+02 -0.77215325024E+02 -0.10973444000E+03  0.14383232805E+03  0.00000000000E+00 0. -1.
          1    1    1    2  502    0  0.23821286557E+02  0.14327963728E-01  0.94824505005E+02  0.97770857866E+02  0.00000000000E+00 0. -1.
         22    1    3    3    0    0  0.27984813767E+01  0.54594884097E+02  0.38653303131E+02  0.66951554952E+02  0.00000000000E+00 0.  1.
         22    1    3    3    0    0 -0.78425992006E+02  0.22606112963E+02  0.28482193400E+03  0.29628568418E+03  0.00000000000E+00 0.  1.
</event>
<event>
 7    1  0.6339289E-006  0.7180912E+02  0.7818608E-02  0.1405389E+00
          2   -1    0    0  502    0  0.00000000000E+00  0.00000000000E+00  0.20845591891E+04  0.20845591891E+04  0.00000000000E+00 0. -1.
          1   -1    0    0  501    0 -0.00000000000E+00 -0.00000000000E+00 -0.71666928413E+03  0.71666928413E+03  0.00000000000E+00 0. -1.
         25    2    1    2    0    0 -0.44980215810E+02 -0.22989535504E+02 -0.71852481490E+01  0.13502314062E+03  0.12501152809E+03 0.  0.
          2    1    1    2  501    0 -0.25094574147E+02  0.40009018722E+02 -0.64405681230E+03  0.64578606109E+03  0.00000000000E+00 0. -1.
          1    1    1    2  502    0  0.70074789957E+02 -0.17019483218E+02  0.20191319654E+04  0.20204192716E+04  0.00000000000E+00 0. -1.
         22    1    3    3    0    0 -0.18006868647E+02 -0.53945707150E+01  0.58728030812E+02  0.61663038481E+02  0.00000000000E+00 0. -1.
         22    1    3    3    0    0 -0.26973347163E+02 -0.17594964789E+02 -0.65913278961E+02  0.73360102144E+02  0.00000000000E+00 0. -1.
</event>
<event>
 7    1  0.5977291E-006  0.2607676E+02  0.7818608E-02  0.1660694E+00
          2   -1    0    0  502    0  0.00000000000E+00  0.00000000000E+00  0.20725084739E+03  0.20725084739E+03  0.00000000000E+00 0. -1.
          1   -1    0    0  501    0 -0.00000000000E+00 -0.00000000000E+00 -0.12893445550E+04  0.12893445550E+04  0.00000000000E+00 0. -1.
         25    2    1    2    0    0  0.14653769079E+02  0.37695475177E+02 -0.19436672555E+03  0.23460304957E+03  0.12499794027E+03 0.  0.
          2    1    1    2  501    0  0.68565109182E+01 -0.23009040171E+02 -0.10738185467E+04  0.10740869140E+04  0.00000000000E+00 0. -1.
          1    1    1    2  502    0 -0.21510279998E+02 -0.14686435006E+02  0.18609156461E+03  0.18790543881E+03  0.00000000000E+00 0. -1.
         22    1    3    3    0    0  0.84225332052E+01  0.39052890432E+02  0.18060569941E+00  0.39951219444E+02  0.00000000000E+00 0. -1.
         22    1    3    3    0    0  0.62312358742E+01 -0.13574152549E+01 -0.19454733125E+03  0.19465183013E+03  0.00000000000E+00 0. -1.
</event>
<event>
 7    1  0.5977291E-006  0.2433477E+02  0.7818608E-02  0.1672264E+00
          2   -1    0    0  502    0  0.00000000000E+00  0.00000000000E+00  0.12089352521E+04  0.12089352521E+04  0.00000000000E+00 0. -1.
          1   -1    0    0  501    0 -0.00000000000E+00 -0.00000000000E+00 -0.17136504606E+03  0.17136504606E+03  0.00000000000E+00 0. -1.
         25    2    1    2    0    0 -0.81243365172E+01 -0.66960330767E+01 -0.12713233312E+03  0.17860372943E+03  0.12500328131E+03 0.  0.
          2    1    1    2  501    0  0.10038420462E+02  0.30955406357E+02 -0.39584419592E+01  0.32782256342E+02  0.00000000000E+00 0. -1.
          1    1    1    2  502    0 -0.19140839452E+01 -0.24259373280E+02  0.11686609811E+04  0.11689143123E+04  0.00000000000E+00 0. -1.
         22    1    3    3    0    0  0.29164762998E+01 -0.63798334230E+02 -0.87069785577E+02  0.10798092815E+03  0.00000000000E+00 0.  1.
         22    1    3    3    0    0 -0.11040812817E+02  0.57102301153E+02 -0.40062547546E+02  0.70622801279E+02  0.00000000000E+00 0.  1.
</event>
<event>
 7    1  0.5977291E-006  0.6080025E+02  0.7818608E-02  0.1481794E+00
          2   -1    0    0  502    0  0.00000000000E+00  0.00000000000E+00  0.25376550421E+04  0.25376550421E+04  0.00000000000E+00 0. -1.
          1   -1    0    0  501    0 -0.00000000000E+00 -0.00000000000E+00 -0.94228442805E+02  0.94228442805E+02  0.00000000000E+00 0. -1.
         25    2    1    2    0    0  0.30697404034E+02 -0.16154487897E+02 -0.57086757159E+01  0.12984839519E+03  0.12499887464E+03 0.  0.
          2    1    1    2  501    0  0.29954793197E+02  0.10042427582E+02 -0.16502619562E+02  0.35643743345E+02  0.00000000000E+00 0. -1.
          1    1    1    2  502    0 -0.60652197231E+02  0.61120603145E+01  0.24656378946E+04  0.24663913464E+04  0.00000000000E+00 0. -1.
         22    1    3    3    0    0 -0.20403188458E+02  0.22162551497E+02 -0.45520719780E+02  0.54585755627E+02  0.00000000000E+00 0.  1.
         22    1    3    3    0    0  0.51100592493E+02 -0.38317039393E+02  0.39812044064E+02  0.75262639560E+02  0.00000000000E+00 0.  1.
</event>
<event>
 7    1  0.5977291E-006  0.4229605E+02  0.7818608E-02  0.1576743E+00
          2   -1    0    0  502    0  0.00000000000E+00  0.00000000000E+00  0.22038686286E+03  0.22038686286E+03  0.00000000000E+00 0. -1.
          1   -1    0    0  501    0 -0.00000000000E+00 -0.00000000000E+00 -0.13740311088E+04  0.13740311088E+04  0.00000000000E+00 0. -1.
         25    2    1    2    0    0 -0.55231884306E+01 -0.24694995648E+02 -0.39286545905E+01  0.12759709250E+03  0.12500094107E+03 0.  0.
          2    1    1    2  501    0 -0.22967678939E+02 -0.77676757259E+01 -0.13052120198E+04  0.13054371941E+04  0.00000000000E+00 0. -1.
          1    1    1    2  502    0  0.28490867369E+02  0.32462671374E+02  0.15549642844E+03  0.16138368509E+03  0.00000000000E+00 0. -1.
         22    1    3    3    0    0  0.28588747636E+01 -0.27563501988E+02 -0.62495596824E+02  0.68363875177E+02  0.00000000000E+00 0.  1.
         22    1    3    3    0    0 -0.83820631942E+01  0.28685063396E+01  0.58566942234E+02  0.59233217324E+02  0.00000000000E+00 0.  1.
</event>
<event>
 7    1  0.5977291E-006  0.5340036E+02  0.7818608E-02  0.1522354E+00
          2   -1    0    0  502    0  0.00000000000E+00  0.00000000000E+00  0.76477627447E+03  0.76477627447E+03  0.00000000000E+00 0. -1.
          1   -1    0    0  501    0 -0.00000000000E+00 -0.00000000000E+00 -0.12446501429E+03  0.12446501429E+03  0.00000000000E+00 0. -1.
         25    2    1    2    0    0 -0.50673627748E+02 -0.53479931511E+01  0.14557527466E+03  0.19851832119E+03  0.12498378165E+03 0.  0.
          2    1    1    2  501    0  0.49149910374E+02 -0.21851607543E+02 -0.90271440964E+02  0.10508158495E+03  0.00000000000E+00 0. -1.
          1    1    1    2  502    0  0.15237173737E+01  0.27199600694E+02  0.58500742649E+03  0.58564138262E+03  0.00000000000E+00 0. -1.
         22    1    3    3    0    0 -0.35466695566E+02 -0.63028806015E+02  0.58757446417E+02  0.93182371678E+02  0.00000000000E+00 0.  1.
         22    1    3    3    0    0 -0.15206932182E+02  0.57680812864E+02  0.86817828241E+02  0.10533594951E+03  0.00000000000E+00 0.  1.
</event>
<event>
 7    1  0.5977291E-006  0.2521010E+03  0.7818608E-02  0.1270389E+00
          2   -1    0    0  502    0  0.00000000000E+00  0.00000000000E+00  0.12487136723E+04  0.12487136723E+04  0.00000000000E+00 0. -1.
          1   -1    0    0  501    0 -0.00000000000E+00 -0.00000000000E+00 -0.11766744871E+04  0.11766744871E+04  0.00000000000E+00 0. -1.
         25    2    1    2    0    0 -0.21139017085E+03  0.66117838666E+02 -0.13702512573E+03  0.28889252827E+03  0.12500253951E+03 0.  0.
          2    1    1    2  501    0 -0.38622780617E+02 -0.20269927056E+02 -0.94943655065E+03  0.95043797947E+03  0.00000000000E+00 0. -1.
          1    1    1    2  502    0  0.25001295147E+03 -0.45847911610E+02  0.11585008616E+04  0.11860576517E+04  0.00000000000E+00 0. -1.
         22    1    3    3    0    0 -0.16241873281E+03  0.66844264281E+02 -0.39890563391E+02  0.18010901555E+03  0.00000000000E+00 0.  1.
         22    1    3    3    0    0 -0.48971438043E+02 -0.72642561511E+00 -0.97134562341E+02  0.10878351272E+03  0.00000000000E+00 0.  1.
</event>
<event>
 7    1  0.5977291E-006  0.5212578E+02  0.7818608E-02  0.1520991E+00
          2   -1    0    0  502    0  0.00000000000E+00  0.00000000000E+00  0.27069376486E+04  0.27069376486E+04  0.00000000000E+00 0. -1.
          1   -1    0    0  501    0 -0.00000000000E+00 -0.00000000000E+00 -0.52563049991E+03  0.52563049991E+03  0.00000000000E+00 0. -1.
         25    2    1    2    0    0 -0.70791579181E+02 -0.75639081314E+01 -0.45163933076E+03  0.47398859141E+03  0.12497375448E+03 0.  0.
          2    1    1    2  501    0  0.20110571205E+02  0.19716411692E+02 -0.59394917583E+02  0.65733767570E+02  0.00000000000E+00 0. -1.
          1    1    1    2  502    0  0.50681007976E+02 -0.12152503561E+02  0.26923413971E+04  0.26928457896E+04  0.00000000000E+00 0. -1.
         22    1    3    3    0    0 -0.97722850496E+02 -0.14780604429E+02 -0.22643418438E+03  0.24706408406E+03  0.00000000000E+00 0. -1.
         22    1    3    3    0    0  0.26931271315E+02  0.72166962977E+01 -0.22520514639E+03  0.22692450736E+03  0.00000000000E+00 0. -1.
</event>
<event>
 7    1  0.5977291E-006  0.1134144E+03  0.7818608E-02  0.1411878E+00
          2   -1    0    0  502    0  0.00000000000E+00  0.00000000000E+00  0.20849124250E+04  0.20849124250E+04  0.00000000000E+00 0. -1.
          1   -1    0    0  501    0 -0.00000000000E+00 -0.00000000000E+00 -0.89286180381E+03  0.89286180381E+03  0.00000000000E+00 0. -1.
         25    2    1    2    0    0  0.83688550726E+01  0.94045050002E+02  0.29382266431E+03  0.33297347287E+03  0.12500026563E+03 0.  0.
          2    1    1    2  501    0 -0.19360166550E+02  0.20810277602E+02 -0.87117568111E+03  0.87163923217E+03  0.00000000000E+00 0. -1.
          1    1    1    2  502    0  0.10991311477E+02 -0.11485532760E+03  0.17694036380E+04  0.17731615238E+04  0.00000000000E+00 0. -1.
         22    1    3    3    0    0  0.22306582453E+02  0.11523425091E+03  0.28105442603E+03  0.30457857212E+03  0.00000000000E+00 0.  1.
         22    1    3    3    0    0 -0.13937727380E+02 -0.21189200912E+02  0.12768238284E+02  0.28394900752E+02  0.00000000000E+00 0.  1.
</event>
<event>
 7    1  0.5977291E-006  0.7314745E+02  0.7818608E-02  0.1384230E+00
          2   -1    0    0  502    0  0.00000000000E+00  0.00000000000E+00  0.33611210846E+04  0.33611210846E+04  0.00000000000E+00 0. -1.
          1   -1    0    0  501    0 -0.00000000000E+00 -0.00000000000E+00 -0.17622558315E+03  0.17622558315E+03  0.00000000000E+00 0. -1.
         25    2    1    2    0    0 -0.21426873494E+02 -0.31177564569E+02  0.17443980556E+04  0.17492801271E+04  0.12500094090E+03 0.  0.
          2    1    1    2  501    0  0.72512917186E+02  0.11098285927E+02 -0.16555340898E+03  0.18107795651E+03  0.00000000000E+00 0. -1.
          1    1    1    2  502    0 -0.51086043692E+02  0.20079278642E+02  0.16060508548E+04  0.16069885841E+04  0.00000000000E+00 0. -1.
         22    1    3    3    0    0 -0.43770151705E+02 -0.44632071274E+02  0.42013392797E+03  0.42475918518E+03  0.00000000000E+00 0.  1.
         22    1    3    3    0    0  0.22343278212E+02  0.13454506705E+02  0.13242641277E+04  0.13245209419E+04  0.00000000000E+00 0.  1.
</event>
<event>
 7    1  0.5977291E-006  0.6041753E+02  0.7818608E-02  0.1461371E+00
          2   -1    0    0  502    0  0.00000000000E+00  0.00000000000E+00  0.69666012709E+03  0.69666012709E+03  0.00000000000E+00 0. -1.
          1   -1    0    0  501    0 -0.00000000000E+00 -0.00000000000E+00 -0.30703103572E+03  0.30703103572E+03  0.00000000000E+00 0. -1.
         25    2    1    2    0    0  0.35934555471E+02  0.10366009900E+02  0.74483909552E+02  0.15024317320E+03  0.12500564737E+03 0.  0.
          2    1    1    2  501    0 -0.58383124101E+02  0.18781589815E+02 -0.26506750941E+03  0.27207006789E+03  0.00000000000E+00 0. -1.
          1    1    1    2  502    0  0.22448568630E+02 -0.29147599715E+02  0.58021269123E+03  0.58137792172E+03  0.00000000000E+00 0. -1.
         22    1    3    3    0    0  0.63771130768E+01  0.47530852028E+02 -0.13882971863E+02  0.49925808691E+02  0.00000000000E+00 0.  1.
         22    1    3    3    0    0  0.29557442394E+02 -0.37164842128E+02  0.88366881415E+02  0.10031736451E+03  0.00000000000E+00 0.  1.
</event>
<event>
 7    1  0.5977291E-006  0.6146984E+02  0.7818608E-02  0.1537458E+00
          2   -1    0    0  502    0  0.00000000000E+00  0.00000000000E+00  0.16134061971E+04  0.16134061971E+04  0.00000000000E+00 0. -1.
          1   -1    0    0  501    0 -0.00000000000E+00 -0.00000000000E+00 -0.39368667992E+02  0.39368667992E+02  0.00000000000E+00 0. -1.
         25    2    1    2    0    0  0.42061413811E+02 -0.45417278133E+00  0.48799120648E+03  0.50549624801E+03  0.12498668066E+03 0.  0.
          2    1    1    2  501    0 -0.62445260761E+02 -0.61313754118E+01  0.17492130340E+01  0.62769929920E+02  0.00000000000E+00 0. -1.
          1    1    1    2  502    0  0.20383846950E+02  0.65855481931E+01  0.10842971096E+04  0.10845086871E+04  0.00000000000E+00 0. -1.
         22    1    3    3    0    0  0.25503265280E+02  0.27227371512E+02  0.46349288664E+03  0.46499183032E+03  0.00000000000E+00 0. -1.
         22    1    3    3    0    0  0.16558148532E+02 -0.27681544293E+02  0.24498319843E+02  0.40504417690E+02  0.00000000000E+00 0. -1.
</event>
<event>
 7    1  0.5977291E-006  0.1043328E+03  0.7818608E-02  0.1329129E+00
          2   -1    0    0  502    0  0.00000000000E+00  0.00000000000E+00  0.17671030890E+04  0.17671030890E+04  0.00000000000E+00 0. -1.
          1   -1    0    0  501    0 -0.00000000000E+00 -0.00000000000E+00 -0.72757555805E+02  0.72757555805E+02  0.00000000000E+00 0. -1.
         25    2    1    2    0    0  0.87105323549E+02 -0.14930757214E+02  0.44144507871E+03  0.46723481242E+03  0.12499739005E+03 0.  0.
          2    1    1    2  501    0 -0.76829716351E+02  0.75363755559E+02 -0.10140014999E+02  0.10809866267E+03  0.00000000000E+00 0. -1.
          1    1    1    2  502    0 -0.10275607198E+02 -0.60432998345E+02  0.12630404695E+04  0.12645271697E+04  0.00000000000E+00 0. -1.
         22    1    3    3    0    0  0.33819716553E+02  0.52046185505E+02  0.12709504261E+03  0.14144160813E+03  0.00000000000E+00 0. -1.
         22    1    3    3    0    0  0.53285606996E+02 -0.66976942719E+02  0.31435003609E+03  0.32579320429E+03  0.00000000000E+00 0. -1.
</event>
<event>
 7    1  0.5977291E-006  0.1136443E+03  0.7818608E-02  0.1345187E+00
          2   -1    0    0  502    0  0.00000000000E+00  0.00000000000E+00  0.36582701812E+03  0.36582701812E+03  0.00000000000E+00 0. -1.
          1   -1    0    0  501    0 -0.00000000000E+00 -0.00000000000E+00 -0.11698973648E+04  0.11698973648E+04  0.00000000000E+00 0. -1.
         25    2    1    2    0    0 -0.91642159285E+02  0.12771896244E+03  0.44368297597E+02  0.20567405769E+03  0.12499141351E+03 0.  0.
          2    1    1    2  501    0  0.50990712181E+02 -0.10046955376E+03 -0.10838071664E+04  0.10896477220E+04  0.00000000000E+00 0. -1.
          1    1    1    2  502    0  0.40651447104E+02 -0.27249408676E+02  0.23536852217E+03  0.24040260326E+03  0.00000000000E+00 0. -1.
         22    1    3    3    0    0  0.10776699441E+02  0.34174839271E+02 -0.31378651447E+02  0.47630627297E+02  0.00000000000E+00 0. -1.
         22    1    3    3    0    0 -0.10241885873E+03  0.93544123168E+02  0.75746949045E+02  0.15804343040E+03  0.00000000000E+00 0. -1.
</event>
<event>
 7    1  0.5977291E-006  0.4291793E+02  0.7818608E-02  0.1589742E+00
          2   -1    0    0  502    0  0.00000000000E+00  0.00000000000E+00  0.12565866525E+03  0.12565866525E+03  0.00000000000E+00 0. -1.
          1   -1    0    0  501    0 -0.00000000000E+00 -0.00000000000E+00 -0.36455228588E+03  0.36455228588E+03  0.00000000000E+00 0. -1.
         25    2    1    2    0    0  0.57894715300E+01  0.25308540573E+02 -0.16280147945E+03  0.20688817601E+03  0.12499742179E+03 0.  0.
          2    1    1    2  501    0 -0.23156554327E+02 -0.38909305734E+02 -0.17562857692E+03  0.18137132384E+03  0.00000000000E+00 0. -1.
          1    1    1    2  502    0  0.17367082797E+02  0.13600765160E+02  0.99536435746E+02  0.10195145128E+03  0.00000000000E+00 0. -1.
         22    1    3    3    0    0 -0.18526861835E+02  0.22127877689E+02  0.11355206738E+02  0.31013356809E+02  0.00000000000E+00 0. -1.
         22    1    3    3    0    0  0.24316333365E+02  0.31806628843E+01 -0.17415668619E+03  0.17587481920E+03  0.00000000000E+00 0. -1.
</event>
<event>
 7    1  0.5977291E-006  0.1903692E+03  0.7818608E-02  0.1301667E+00
          2   -1    0    0  502    0  0.00000000000E+00  0.00000000000E+00  0.62661877188E+03  0.62661877188E+03  0.00000000000E+00 0. -1.
          1   -1    0    0  501    0 -0.00000000000E+00 -0.00000000000E+00 -0.34454532712E+03  0.34454532712E+03  0.00000000000E+00 0. -1.
         25    2    1    2    0    0  0.90482234752E+02  0.15270609205E+03 -0.10890649171E+03  0.24288437756E+03  0.12500404622E+03 0.  0.
          2    1    1    2  501    0 -0.31018116802E+02  0.29801399263E+02 -0.14905927344E+03  0.15514159329E+03  0.00000000000E+00 0. -1.
          1    1    1    2  502    0 -0.59464117950E+02 -0.18250749131E+03  0.54003920991E+03  0.57313812816E+03  0.00000000000E+00 0. -1.
         22    1    3    3    0    0  0.55270846858E+02  0.10628611665E+03 -0.13373971043E+03  0.17954920009E+03  0.00000000000E+00 0. -1.
         22    1    3    3    0    0  0.35211387895E+02  0.46419975396E+02  0.24833218723E+02  0.63335177471E+02  0.00000000000E+00 0. -1.
</event>
<event>
 7    1  0.5977291E-006  0.9682007E+02  0.7818608E-02  0.1439267E+00
          2   -1    0    0  502    0  0.00000000000E+00  0.00000000000E+00  0.13283684943E+04  0.13283684943E+04  0.00000000000E+00 0. -1.
          1   -1    0    0  501    0 -0.00000000000E+00 -0.00000000000E+00 -0.13563311954E+03  0.13563311954E+03  0.00000000000E+00 0. -1.
         25    2    1    2    0    0  0.11121026311E+03 -0.52518247632E+02  0.58628229063E+03  0.61194509211E+03  0.12499592994E+03 0.  0.
          2    1    1    2  501    0 -0.87265019885E+02  0.40008160245E+02 -0.10374394296E+03  0.14134582513E+03  0.00000000000E+00 0. -1.
          1    1    1    2  502    0 -0.23945243229E+02  0.12510087387E+02  0.71019702704E+03  0.71071069654E+03  0.00000000000E+00 0. -1.
         22    1    3    3    0    0  0.78423759365E+02  0.16136528720E+02  0.15987456575E+03  0.17880310502E+03  0.00000000000E+00 0.  1.
         22    1    3    3    0    0  0.32786503749E+02 -0.68654776353E+02  0.42640772488E+03  0.43314198709E+03  0.00000000000E+00 0.  1.
</event>
<event>
 7    1  0.5977291E-006  0.9104968E+02  0.7818608E-02  0.1334072E+00
          2   -1    0    0  502    0  0.00000000000E+00  0.00000000000E+00  0.16492908936E+04  0.16492908936E+04  0.00000000000E+00 0. -1.
          1   -1    0    0  501    0 -0.00000000000E+00 -0.00000000000E+00 -0.58191712803E+03  0.58191712803E+03  0.00000000000E+00 0. -1.
         25    2    1    2    0    0 -0.14104968190E+03 -0.27453219663E+02  0.98431221694E+03  0.10025681808E+04  0.12499489854E+03 0.  0.
          2    1    1    2  501    0  0.63306393281E+02  0.22725149284E+02 -0.56848709355E+03  0.57245236254E+03  0.00000000000E+00 0. -1.
          1    1    1    2  502    0  0.77743288624E+02  0.47280703797E+01  0.65154864219E+03  0.65618747833E+03  0.00000000000E+00 0. -1.
         22    1    3    3    0    0  0.14142931003E+02 -0.31742640031E+02  0.15481733879E+03  0.15866954995E+03  0.00000000000E+00 0. -1.
         22    1    3    3    0    0 -0.15519261291E+03  0.42894203675E+01  0.82949487815E+03  0.84389863083E+03  0.00000000000E+00 0. -1.
</event>
<event>
 7    1  0.5977291E-006  0.1854419E+03  0.7818608E-02  0.1271069E+00
          2   -1    0    0  502    0  0.00000000000E+00  0.00000000000E+00  0.11395044306E+04  0.11395044306E+04  0.00000000000E+00 0. -1.
          1   -1    0    0  501    0 -0.00000000000E+00 -0.00000000000E+00 -0.70894179318E+03  0.70894179318E+03  0.00000000000E+00 0. -1.
         25    2    1    2    0    0 -0.11293198021E+03  0.20479539973E+03 -0.37454965464E+03  0.45891890365E+03  0.12499731372E+03 0.  0.
          2    1    1    2  501    0 -0.16224288610E+00 -0.58909450919E+02 -0.28137275279E+03  0.28747343485E+03  0.00000000000E+00 0. -1.
          1    1    1    2  502    0  0.11309422310E+03 -0.14588594881E+03  0.10864850448E+04  0.11020538852E+04  0.00000000000E+00 0. -1.
         22    1    3    3    0    0 -0.14736002520E+01  0.67905771365E+02 -0.35434860971E+02  0.76609364012E+02  0.00000000000E+00 0. -1.
         22    1    3    3    0    0 -0.11145837996E+03  0.13688962836E+03 -0.33911479367E+03  0.38230953964E+03  0.00000000000E+00 0. -1.
</event>
<event>
 7    1  0.5977291E-006  0.8442677E+02  0.7818608E-02  0.1347792E+00
          2   -1    0    0  502    0  0.00000000000E+00  0.00000000000E+00  0.11105706580E+04  0.11105706580E+04  0.00000000000E+00 0. -1.
          1   -1    0    0  501    0 -0.00000000000E+00 -0.00000000000E+00 -0.29145178758E+03  0.29145178758E+03  0.00000000000E+00 0. -1.
         25    2    1    2    0    0 -0.57849025452E+02  0.66734300081E+01  0.88457460281E+02  0.16383160684E+03  0.12500011482E+03 0.  0.
          2    1    1    2  501    0  0.50825444195E+02 -0.70709523385E+02 -0.24520076021E+03  0.26020467959E+03  0.00000000000E+00 0. -1.
          1    1    1    2  502    0  0.70235812575E+01  0.64036093377E+02  0.97586217035E+03  0.97798615914E+03  0.00000000000E+00 0. -1.
         22    1    3    3    0    0 -0.17761872781E+02 -0.38256303139E+02 -0.14464559750E+02  0.44589823316E+02  0.00000000000E+00 0.  1.
         22    1    3    3    0    0 -0.40087152671E+02  0.44929733148E+02  0.10292202003E+03  0.11924178352E+03  0.00000000000E+00 0.  1.
</event>
<event>
 7    1  0.5977291E-006  0.2050856E+03  0.7818608E-02  0.1263685E+00
          2   -1    0    0  502    0  0.00000000000E+00  0.00000000000E+00  0.22725798916E+04  0.22725798916E+04  0.00000000000E+00 0. -1.
          1   -1    0    0  501    0 -0.00000000000E+00 -0.00000000000E+00 -0.81691873786E+03  0.81691873786E+03  0.00000000000E+00 0. -1.
         25    2    1    2    0    0  0.15107553518E+03 -0.16480202670E+03 -0.61415724554E+03  0.66543010435E+03  0.12499830475E+03 0.  0.
          2    1    1    2  501    0 -0.54877670228E+02 -0.16228012044E+02 -0.16769135083E+03  0.17718717845E+03  0.00000000000E+00 0. -1.
          1    1    1    2  502    0 -0.96197864955E+02  0.18103003874E+03  0.22375097501E+04  0.22468813466E+04  0.00000000000E+00 0. -1.
         22    1    3    3    0    0  0.14550050100E+03 -0.76928791442E+02 -0.44992793235E+03  0.47908619167E+03  0.00000000000E+00 0. -1.
         22    1    3    3    0    0  0.55750341829E+01 -0.87873235254E+02 -0.16422931319E+03  0.18634391268E+03  0.00000000000E+00 0. -1.
</event>
<event>
 7    1  0.5977291E-006  0.4740897E+02  0.7818608E-02  0.1505528E+00
          2   -1    0    0  502    0  0.00000000000E+00  0.00000000000E+00  0.12259240943E+03  0.12259240943E+03  0.00000000000E+00 0. -1.
          1   -1    0    0  501    0 -0.00000000000E+00 -0.00000000000E+00 -0.11999491824E+04  0.11999491824E+04  0.00000000000E+00 0. -1.
         25    2    1    2    0    0  0.12953345806E+02  0.21436243030E+02 -0.21207090202E+03  0.24744043218E+03  0.12500159324E+03 0.  0.
          2    1    1    2  501    0 -0.46430989283E+02 -0.13650243990E+02 -0.96675660780E+03  0.96796720226E+03  0.00000000000E+00 0. -1.
          1    1    1    2  502    0  0.33477643477E+02 -0.77859990399E+01  0.10147073683E+03  0.10713395740E+03  0.00000000000E+00 0. -1.
         22    1    3    3    0    0 -0.41027854771E+02  0.23225362352E+02 -0.26316602446E+02  0.53993202237E+02  0.00000000000E+00 0. -1.
         22    1    3    3    0    0  0.53981200577E+02 -0.17891193228E+01 -0.18575429957E+03  0.19344722994E+03  0.00000000000E+00 0. -1.
</event>
<event>
 7    1  0.5977291E-006  0.1117746E+03  0.7818608E-02  0.1332385E+00
          2   -1    0    0  502    0  0.00000000000E+00  0.00000000000E+00  0.21913714801E+04  0.21913714801E+04  0.00000000000E+00 0. -1.
          1   -1    0    0  501    0 -0.00000000000E+00 -0.00000000000E+00 -0.41516819374E+02  0.41516819374E+02  0.00000000000E+00 0. -1.
         25    2    1    2    0    0  0.10195402093E+03 -0.10255554790E+03  0.38275028151E+03  0.42782476856E+03  0.12499596718E+03 0.  0.
          2    1    1    2  501    0 -0.89675585673E+02  0.48322700960E+02  0.12164171246E+03  0.15866159052E+03  0.00000000000E+00 0. -1.
          1    1    1    2  502    0 -0.12278435255E+02  0.54232846941E+02  0.16454626667E+04  0.16464019404E+04  0.00000000000E+00 0. -1.
         22    1    3    3    0    0  0.73704586034E+02  0.67088739509E+01  0.19741577822E+03  0.21083255081E+03  0.00000000000E+00 0.  1.
         22    1    3    3    0    0  0.28249434895E+02 -0.10926442185E+03  0.18533450329E+03  0.21699221775E+03  0.00000000000E+00 0.  1.
</event>
<event>
 7    1  0.5977291E-006  0.8740781E+02  0.7818608E-02  0.1351462E+00
          2   -1    0    0  502    0  0.00000000000E+00  0.00000000000E+00  0.82125564457E+03  0.82125564457E+03  0.00000000000E+00 0. -1.
          1   -1    0    0  501    0 -0.00000000000E+00 -0.00000000000E+00 -0.11185966265E+04  0.11185966265E+04  0.00000000000E+00 0. -1.
         25    2    1    2    0    0 -0.43913091303E+02 -0.11666830144E+03  0.62912196142E+03  0.65342075094E+03  0.12499753303E+03 0.  0.
          2    1    1    2  501    0 -0.85443747252E+01  0.86922846944E+02 -0.10996152680E+04  0.11030785672E+04  0.00000000000E+00 0. -1.
          1    1    1    2  502    0  0.52457466029E+02  0.29745454494E+02  0.17315232469E+03  0.18335295294E+03  0.00000000000E+00 0. -1.
         22    1    3    3    0    0 -0.62251818673E+02 -0.12431946716E+03  0.40069221772E+03  0.42412836757E+03  0.00000000000E+00 0. -1.
         22    1    3    3    0    0  0.18338727369E+02  0.76511657218E+01  0.22842974371E+03  0.22929238336E+03  0.00000000000E+00 0. -1.
</event>
<event>
 7    1  0.5977291E-006  0.9917637E+02  0.7818608E-02  0.1367257E+00
          2   -1    0    0  502    0  0.00000000000E+00  0.00000000000E+00  0.28446844796E+04  0.28446844796E+04  0.00000000000E+00 0. -1.
          1   -1    0    0  501    0 -0.00000000000E+00 -0.00000000000E+00 -0.11565148837E+03  0.11565148837E+03  0.00000000000E+00 0. -1.
         25    2    1    2    0    0  0.38599846668E+02  0.40491824585E+02 -0.43965030592E+02  0.14383330229E+03  0.12500223562E+03 0.  0.
          2    1    1    2  501    0  0.43990789419E+02  0.15178432644E+02  0.51013266548E+01  0.46814505283E+02  0.00000000000E+00 0. -1.
          1    1    1    2  502    0 -0.82590636088E+02 -0.55670257229E+02  0.27678966952E+04  0.27696881604E+04  0.00000000000E+00 0. -1.
         22    1    3    3    0    0 -0.32999074926E+02 -0.23596135280E+02 -0.17363419968E+02  0.44127144697E+02  0.00000000000E+00 0.  1.
         22    1    3    3    0    0  0.71598921595E+02  0.64087959865E+02 -0.26601610624E+02  0.99706157588E+02  0.00000000000E+00 0.  1.
</event>
<event>
 7    1  0.5977291E-006  0.8817570E+02  0.7818608E-02  0.1440656E+00
          2   -1    0    0  502    0  0.00000000000E+00  0.00000000000E+00  0.25275748329E+03  0.25275748329E+03  0.00000000000E+00 0. -1.
          1   -1    0    0  501    0 -0.00000000000E+00 -0.00000000000E+00 -0.15430737585E+03  0.15430737585E+03  0.00000000000E+00 0. -1.
         25    2    1    2    0    0  0.60829247476E+02  0.51542191909E+02  0.96975383748E+01  0.14858898092E+03  0.12501139190E+03 0.  0.
          2    1    1    2  501    0 -0.84982703810E+02 -0.34852936810E+02 -0.58121489063E+02  0.10869634144E+03  0.00000000000E+00 0. -1.
          1    1    1    2  502    0  0.24153456334E+02 -0.16689255099E+02  0.14687405813E+03  0.14977953678E+03  0.00000000000E+00 0. -1.
         22    1    3    3    0    0  0.62004863238E+02 -0.27833156817E+02 -0.37736920404E+01  0.68070025967E+02  0.00000000000E+00 0.  1.
         22    1    3    3    0    0 -0.11756157616E+01  0.79375348726E+02  0.13471230415E+02  0.80518954952E+02  0.00000000000E+00 0.  1.
</event>
<event>
 7    1  0.5977291E-006  0.2214137E+02  0.7818608E-02  0.1721864E+00
          2   -1    0    0  502    0  0.00000000000E+00  0.00000000000E+00  0.20328778210E+04  0.20328778210E+04  0.00000000000E+00 0. -1.
          1   -1    0    0  501    0 -0.00000000000E+00 -0.00000000000E+00 -0.11007287840E+03  0.11007287840E+03  0.00000000000E+00 0. -1.
         25    2    1    2    0    0  0.76114107362E+01  0.14799644835E+02  0.12446442088E+04  0.12510161329E+04  0.12500078077E+03 0.  0.
          2    1    1    2  501    0 -0.22147810261E+02 -0.54124440013E+00 -0.10560528250E+03  0.10790409694E+03  0.00000000000E+00 0. -1.
          1    1    1    2  502    0  0.14536399525E+02 -0.14258400435E+02  0.78376601634E+03  0.78403046960E+03  0.00000000000E+00 0. -1.
         22    1    3    3    0    0 -0.39359039689E+02 -0.38466425893E+02  0.56123285055E+03  0.56392474007E+03  0.00000000000E+00 0. -1.
         22    1    3    3    0    0  0.46970450425E+02  0.53266070729E+02  0.68341135823E+03  0.68709139280E+03  0.00000000000E+00 0. -1.
</event>
<event>
 7    1  0.5977291E-006  0.1037407E+03  0.7818608E-02  0.1355656E+00
          2   -1    0    0  502    0  0.00000000000E+00  0.00000000000E+00  0.80855668930E+03  0.80855668930E+03  0.00000000000E+00 0. -1.
          1   -1    0    0  501    0 -0.00000000000E+00 -0.00000000000E+00 -0.32385710054E+03  0.32385710054E+03  0.00000000000E+00 0. -1.
         25    2    1    2    0    0  0.14240974048E+03  0.17196684996E+02  0.21019089702E+03  0.28351653614E+03  0.12500061167E+03 0.  0.
          2    1    1    2  501    0 -0.43363617335E+02 -0.22887933609E+02 -0.28067154935E+03  0.28492240948E+03  0.00000000000E+00 0. -1.
          1    1    1    2  502    0 -0.99046123147E+02  0.56912486134E+01  0.55518024108E+03  0.56397484421E+03  0.00000000000E+00 0. -1.
         22    1    3    3    0    0  0.55833411340E+02 -0.28983969264E+02  0.14431973514E+02  0.64542405872E+02  0.00000000000E+00 0. -1.
         22    1    3    3    0    0  0.86576329142E+02  0.46180654260E+02  0.19575892351E+03  0.21897413027E+03  0.00000000000E+00 0. -1.
</event>
<event>
 7    1  0.5977291E-006  0.1241565E+03  0.7818608E-02  0.1336232E+00
          2   -1    0    0  502    0  0.00000000000E+00  0.00000000000E+00  0.94165086748E+03  0.94165086748E+03  0.00000000000E+00 0. -1.
          1   -1    0    0  501    0 -0.00000000000E+00 -0.00000000000E+00 -0.70048153957E+02  0.70048153957E+02  0.00000000000E+00 0. -1.
         25    2    1    2    0    0  0.13886529727E+02 -0.90138084951E+02  0.31629789038E+03  0.35211811474E+03  0.12500040481E+03 0.  0.
          2    1    1    2  501    0  0.87494965989E+01  0.13292428988E+03  0.35953247436E+02  0.13797846402E+03  0.00000000000E+00 0. -1.
          1    1    1    2  502    0 -0.22636026326E+02 -0.42786204933E+02  0.51935157571E+03  0.52160244268E+03  0.00000000000E+00 0. -1.
         22    1    3    3    0    0 -0.24731117500E+02 -0.70685290971E+02  0.71527890282E+02  0.10355808815E+03  0.00000000000E+00 0. -1.
         22    1    3    3    0    0  0.38617647227E+02 -0.19452793980E+02  0.24477000010E+03  0.24856002660E+03  0.00000000000E+00 0. -1.
</event>
<event>
 7    1  0.5977291E-006  0.1161877E+03  0.7818608E-02  0.1292929E+00
          2   -1    0    0  502    0  0.00000000000E+00  0.00000000000E+00  0.20483071082E+04  0.20483071082E+04  0.00000000000E+00 0. -1.
          1   -1    0    0  501    0 -0.00000000000E+00 -0.00000000000E+00 -0.22169425080E+03  0.22169425080E+03  0.00000000000E+00 0. -1.
         25    2    1    2    0    0 -0.10889907685E+02  0.54765889559E+02  0.68212703940E+02  0.15295845683E+03  0.12500169515E+03 0.  0.
          2    1    1    2  501    0 -0.68328179843E+02  0.34214497669E+02 -0.16925713873E+03  0.18570770319E+03  0.00000000000E+00 0. -1.
          1    1    1    2  502    0  0.79218087528E+02 -0.88980387228E+02  0.19276572921E+04  0.19313351989E+04  0.00000000000E+00 0. -1.
         22    1    3    3    0    0 -0.58688258024E+02 -0.29842802970E+01  0.46429321654E+02  0.74892586202E+02  0.00000000000E+00 0.  1.
         22    1    3    3    0    0  0.47798350339E+02  0.57750169856E+02  0.21783382286E+02  0.78065870631E+02  0.00000000000E+00 0.  1.
</event>
<event>
 7    1  0.5977291E-006  0.8951464E+02  0.7818608E-02  0.1430821E+00
          2   -1    0    0  502    0  0.00000000000E+00  0.00000000000E+00  0.62567784331E+03  0.62567784331E+03  0.00000000000E+00 0. -1.
          1   -1    0    0  501    0 -0.00000000000E+00 -0.00000000000E+00 -0.19558987150E+03  0.19558987150E+03  0.00000000000E+00 0. -1.
         25    2    1    2    0    0  0.63120846326E+02 -0.92739798908E+02  0.36311062208E+03  0.40007615820E+03  0.12500678762E+03 0.  0.
          2    1    1    2  501    0 -0.15277568441E+02  0.27133358891E+02 -0.16889123748E+03  0.17173780410E+03  0.00000000000E+00 0. -1.
          1    1    1    2  502    0 -0.47843277886E+02  0.65606440018E+02  0.23586858720E+03  0.24945375251E+03  0.00000000000E+00 0. -1.
         22    1    3    3    0    0  0.51285332600E+02 -0.46931968333E+02  0.34070833468E+03  0.34772829093E+03  0.00000000000E+00 0. -1.
         22    1    3    3    0    0  0.11835513726E+02 -0.45807830575E+02  0.22402287397E+02  0.52347867270E+02  0.00000000000E+00 0. -1.
</event>
<event>
 7    1  0.5977291E-006  0.6718616E+02  0.7818608E-02  0.1394158E+00
          2   -1    0    0  502    0  0.00000000000E+00  0.00000000000E+00  0.13986074085E+04  0.13986074085E+04  0.00000000000E+00 0. -1.
          1   -1    0    0  501    0 -0.00000000000E+00 -0.00000000000E+00 -0.29566296267E+03  0.29566296267E+03  0.00000000000E+00 0. -1.
         25    2    1    2    0    0  0.62493463153E+01  0.53333104161E+02  0.91065423008E+02  0.16371599880E+03  0.12500617051E+03 0.  0.
          2    1    1    2  501    0 -0.54874089719E+02 -0.57392313021E+01 -0.25548024432E+03  0.26136996716E+03  0.00000000000E+00 0. -1.
          1    1    1    2  502    0  0.48624743404E+02 -0.47593872859E+02  0.12673592671E+04  0.12691844052E+04  0.00000000000E+00 0. -1.
         22    1    3    3    0    0 -0.56009051677E+02  0.34049662476E+01  0.34040906788E+02  0.65630716893E+02  0.00000000000E+00 0.  1.
         22    1    3    3    0    0  0.62258397992E+02  0.49928137913E+02  0.57024516220E+02  0.98085281904E+02  0.00000000000E+00 0.  1.
</event>
<event>
 7    1  0.5977291E-006  0.5409259E+02  0.7818608E-02  0.1426866E+00
          2   -1    0    0  502    0  0.00000000000E+00  0.00000000000E+00  0.64146434307E+03  0.64146434307E+03  0.00000000000E+00 0. -1.
          1   -1    0    0  501    0 -0.00000000000E+00 -0.00000000000E+00 -0.60267682917E+03  0.60267682917E+03  0.00000000000E+00 0. -1.
         25    2    1    2    0    0  0.41450609865E+02 -0.24180283004E+02 -0.13510468333E+03  0.19021348494E+03  0.12500022100E+03 0.  0.
          2    1    1    2  501    0  0.46667448122E+01  0.52895252270E+02 -0.43720629263E+03  0.44041915096E+03  0.00000000000E+00 0. -1.
          1    1    1    2  502    0 -0.46117354677E+02 -0.28714969266E+02  0.61109848985E+03  0.61350853634E+03  0.00000000000E+00 0. -1.
         22    1    3    3    0    0  0.84549557948E+02 -0.81118559941E+01 -0.10579325905E+03  0.13567108615E+03  0.00000000000E+00 0. -1.
         22    1    3    3    0    0 -0.43098948083E+02 -0.16068427010E+02 -0.29311424280E+02  0.54542398790E+02  0.00000000000E+00 0. -1.
</event>
<event>
 7    1  0.5977291E-006  0.1476996E+03  0.7818608E-02  0.1250709E+00
          2   -1    0    0  502    0  0.00000000000E+00  0.00000000000E+00  0.36965493469E+04  0.36965493469E+04  0.00000000000E+00 0. -1.
          1   -1    0    0  501    0 -0.00000000000E+00 -0.00000000000E+00 -0.43076527743E+03  0.43076527743E+03  0.00000000000E+00 0. -1.
         25    2    1    2    0    0 -0.84988089618E+02  0.52552738622E+02 -0.80685117598E+02  0.17920675643E+03  0.12498082907E+03 0.  0.
          2    1    1    2  501    0 -0.62994051845E+02 -0.64728520455E+02 -0.29249118450E+03  0.30611946187E+03  0.00000000000E+00 0. -1.
          1    1    1    2  502    0  0.14798214146E+03  0.12175781833E+02  0.36389603716E+04  0.36419884061E+04  0.00000000000E+00 0. -1.
         22    1    3    3    0    0 -0.67616067820E+02  0.39351239955E+02  0.16201828342E+02  0.79893378668E+02  0.00000000000E+00 0. -1.
         22    1    3    3    0    0 -0.17372021798E+02  0.13201498667E+02 -0.96886945940E+02  0.99313377759E+02  0.00000000000E+00 0. -1.
</event>
<event>
 7    1  0.5977291E-006  0.5849603E+02  0.7818608E-02  0.1508048E+00
          2   -1    0    0  502    0  0.00000000000E+00  0.00000000000E+00  0.35609769749E+03  0.35609769749E+03  0.00000000000E+00 0. -1.
          1   -1    0    0  501    0 -0.00000000000E+00 -0.00000000000E+00 -0.23448648850E+04  0.23448648850E+04  0.00000000000E+00 0. -1.
         25    2    1    2    0    0 -0.33718257530E+02 -0.45847993286E+02 -0.53054846652E+03  0.54804526871E+03  0.12503192333E+03 0.  0.
          2    1    1    2  501    0  0.52775395163E+02  0.26184828707E+02 -0.18045468755E+04  0.18055083255E+04  0.00000000000E+00 0. -1.
          1    1    1    2  502    0 -0.19057137633E+02  0.19663164578E+02  0.34632815450E+03  0.34740898828E+03  0.00000000000E+00 0. -1.
         22    1    3    3    0    0  0.39159273192E+02 -0.22522843095E+02 -0.33544150641E+03  0.33846969047E+03  0.00000000000E+00 0. -1.
         22    1    3    3    0    0 -0.72877530722E+02 -0.23325150191E+02 -0.19510696011E+03  0.20957557825E+03  0.00000000000E+00 0. -1.
</event>
<event>
 7    1  0.5977291E-006  0.4086858E+02  0.7818608E-02  0.1507523E+00
          2   -1    0    0  502    0  0.00000000000E+00  0.00000000000E+00  0.14902845517E+04  0.14902845517E+04  0.00000000000E+00 0. -1.
          1   -1    0    0  501    0 -0.00000000000E+00 -0.00000000000E+00 -0.67737522841E+02  0.67737522841E+02  0.00000000000E+00 0. -1.
         25    2    1    2    0    0  0.70688532677E+01 -0.10509524498E+01  0.83467833601E+03  0.84401644324E+03  0.12499903469E+03 0.  0.
          2    1    1    2  501    0  0.17302461146E+02 -0.37025201370E+02 -0.55570311028E+02  0.68980433211E+02  0.00000000000E+00 0. -1.
          1    1    1    2  502    0 -0.24371314414E+02  0.38076153820E+02  0.64343900385E+03  0.64502519806E+03  0.00000000000E+00 0. -1.
         22    1    3    3    0    0  0.16978149893E+02 -0.74869139296E+01  0.83159883844E+03  0.83180583044E+03  0.00000000000E+00 0. -1.
         22    1    3    3    0    0 -0.99092966248E+01  0.64359614798E+01  0.30794975664E+01  0.12210612803E+02  0.00000000000E+00 0. -1.
</event>
<event>
 7    1  0.5977291E-006  0.1078960E+03  0.7818608E-02  0.1359997E+00
          2   -1    0    0  502    0  0.00000000000E+00  0.00000000000E+00  0.48792632623E+03  0.48792632623E+03  0.00000000000E+00 0. -1.
          1   -1    0    0  501    0 -0.00000000000E+00 -0.00000000000E+00 -0.18567942899E+04  0.18567942899E+04  0.00000000000E+00 0. -1.
         25    2    1    2    0    0 -0.79721813503E+02  0.12684883014E+00 -0.62983936912E+02  0.16108025403E+03  0.12499715312E+03 0.  0.
          2    1    1    2  501    0  0.10144288535E+03 -0.40051424044E+02 -0.17418753571E+04  0.17452863763E+04  0.00000000000E+00 0. -1.
          1    1    1    2  502    0 -0.21721071842E+02  0.39924575213E+02  0.43599133039E+03  0.43835398577E+03  0.00000000000E+00 0. -1.
         22    1    3    3    0    0  0.21195240020E+02 -0.26206522544E+02 -0.43417529053E+02  0.54964550870E+02  0.00000000000E+00 0. -1.
         22    1    3    3    0    0 -0.10091705352E+03  0.26333371374E+02 -0.19566407859E+02  0.10611570316E+03  0.00000000000E+00 0. -1.
</event>
<event>
 7    1  0.5977291E-006  0.8402475E+02  0.7818608E-02  0.1368025E+00
          2   -1    0    0  502    0  0.00000000000E+00  0.00000000000E+00  0.25585377084E+04  0.25585377084E+04  0.00000000000E+00 0. -1.
          1   -1    0    0  501    0 -0.00000000000E+00 -0.00000000000E+00 -0.17155590291E+02  0.17155590291E+02  0.00000000000E+00 0. -1.
         25    2    1    2    0    0  0.35837285314E+01  0.56055237207E+02  0.10732530512E+04  0.10819665831E+04  0.12499817001E+03 0.  0.
          2    1    1    2  501    0 -0.56408276826E+02 -0.69778733359E+02  0.15229902524E+03  0.17676526359E+03  0.00000000000E+00 0. -1.
          1    1    1    2  502    0  0.52824548294E+02  0.13723496152E+02  0.13158300417E+04  0.13169614519E+04  0.00000000000E+00 0. -1.
         22    1    3    3    0    0 -0.14420600753E+02  0.84432278507E+02  0.96050154234E+03  0.96431321479E+03  0.00000000000E+00 0.  1.
         22    1    3    3    0    0  0.18004329284E+02 -0.28377041300E+02  0.11275150881E+03  0.11765336836E+03  0.00000000000E+00 0.  1.
</event>
<event>
 7    1  0.5977291E-006  0.8426494E+02  0.7818608E-02  0.1339928E+00
          2   -1    0    0  502    0  0.00000000000E+00  0.00000000000E+00  0.18618133832E+03  0.18618133832E+03  0.00000000000E+00 0. -1.
          1   -1    0    0  501    0 -0.00000000000E+00 -0.00000000000E+00 -0.15450461775E+04  0.15450461775E+04  0.00000000000E+00 0. -1.
         25    2    1    2    0    0 -0.10315580921E+03 -0.13435434065E+02 -0.50588916975E+03  0.53138488985E+03  0.12499766887E+03 0.  0.
          2    1    1    2  501    0  0.55769309728E+02  0.63681374992E+02 -0.10177055551E+04  0.10212199226E+04  0.00000000000E+00 0. -1.
          1    1    1    2  502    0  0.47386499486E+02 -0.50245940927E+02  0.16472988570E+03  0.17862270336E+03  0.00000000000E+00 0. -1.
         22    1    3    3    0    0 -0.13884719377E+02  0.47742067295E+02 -0.22361564590E+03  0.22907651017E+03  0.00000000000E+00 0. -1.
         22    1    3    3    0    0 -0.89271089837E+02 -0.61177501360E+02 -0.28227352386E+03  0.30230837968E+03  0.00000000000E+00 0. -1.
</event>
<event>
 7    1  0.5977291E-006  0.3846513E+02  0.7818608E-02  0.1620836E+00
          2   -1    0    0  502    0  0.00000000000E+00  0.00000000000E+00  0.15361523329E+04  0.15361523329E+04  0.00000000000E+00 0. -1.
          1   -1    0    0  501    0 -0.00000000000E+00 -0.00000000000E+00 -0.16443643144E+02  0.16443643144E+02  0.00000000000E+00 0. -1.
         25    2    1    2    0    0 -0.66686357979E+01  0.40307724010E+02  0.60959588499E+03  0.62361862017E+03  0.12499542833E+03 0.  0.
          2    1    1    2  501    0  0.20029082139E+02 -0.40713774413E+01  0.25545455585E+01  0.20597717073E+02  0.00000000000E+00 0. -1.
          1    1    1    2  502    0 -0.13360446341E+02 -0.36236346569E+02  0.90755825922E+03  0.90837963882E+03  0.00000000000E+00 0. -1.
         22    1    3    3    0    0 -0.50800162823E+02  0.19357930441E+02  0.50786408513E+03  0.51076542069E+03  0.00000000000E+00 0.  1.
         22    1    3    3    0    0  0.44131527026E+02  0.20949793569E+02  0.10173179986E+03  0.11285319947E+03  0.00000000000E+00 0.  1.
</event>
<event>
 7    1  0.5977291E-006  0.7507027E+02  0.7818608E-02  0.1392184E+00
          2   -1    0    0  502    0  0.00000000000E+00  0.00000000000E+00  0.14462114960E+04  0.14462114960E+04  0.00000000000E+00 0. -1.
          1   -1    0    0  501    0 -0.00000000000E+00 -0.00000000000E+00 -0.78720535624E+02  0.78720535624E+02  0.00000000000E+00 0. -1.
         25    2    1    2    0    0 -0.17506334944E+02 -0.64948751240E+02  0.66651874024E+03  0.68146682611E+03  0.12499996777E+03 0.  0.
          2    1    1    2  501    0  0.62526192185E+02  0.42819680387E+02 -0.50018161415E+02  0.90801245636E+02  0.00000000000E+00 0. -1.
          1    1    1    2  502    0 -0.45019857241E+02  0.22129070852E+02  0.75099038157E+03  0.75266395990E+03  0.00000000000E+00 0. -1.
         22    1    3    3    0    0  0.37813632433E+02 -0.75571093860E+02  0.44067246678E+03  0.44870155337E+03  0.00000000000E+00 0. -1.
         22    1    3    3    0    0 -0.55319967377E+02  0.10622342620E+02  0.22584627346E+03  0.23276527273E+03  0.00000000000E+00 0. -1.
</event>
<event>
 7    1  0.5977291E-006  0.7258518E+02  0.7818608E-02  0.1403643E+00
          2   -1    0    0  502    0  0.00000000000E+00  0.00000000000E+00  0.22032687042E+04  0.22032687042E+04  0.00000000000E+00 0. -1.
          1   -1    0    0  501    0 -0.00000000000E+00 -0.00000000000E+00 -0.11562717411E+04  0.11562717411E+04  0.00000000000E+00 0. -1.
         25    2    1    2    0    0 -0.90287700900E+02 -0.31010224901E+02  0.80336825267E+02  0.17661140364E+03  0.12499631763E+03 0.  0.
          2    1    1    2  501    0  0.18922065122E+02  0.43425474818E+02 -0.11069955392E+04  0.11080085470E+04  0.00000000000E+00 0. -1.
          1    1    1    2  502    0  0.71365635778E+02 -0.12415249917E+02  0.20736556770E+04  0.20749204947E+04  0.00000000000E+00 0. -1.
         22    1    3    3    0    0 -0.23255743254E+02 -0.26265163901E+02 -0.30835868969E+02  0.46706950705E+02  0.00000000000E+00 0.  1.
         22    1    3    3    0    0 -0.67031957645E+02 -0.47450610000E+01  0.11117269424E+03  0.12990445294E+03  0.00000000000E+00 0.  1.
</event>
<event>
 7    1  0.5977291E-006  0.4564099E+02  0.7818608E-02  0.1576624E+00
          2   -1    0    0  502    0  0.00000000000E+00  0.00000000000E+00  0.90025024207E+03  0.90025024207E+03  0.00000000000E+00 0. -1.
          1   -1    0    0  501    0 -0.00000000000E+00 -0.00000000000E+00 -0.10128573782E+04  0.10128573782E+04  0.00000000000E+00 0. -1.
         25    2    1    2    0    0  0.21359019893E+02 -0.22163605088E+02  0.30752593617E+03  0.33338300437E+03  0.12499837222E+03 0.  0.
          2    1    1    2  501    0 -0.42891433918E+02  0.15687409643E+02 -0.99918905268E+03  0.10002322395E+04  0.00000000000E+00 0. -1.
          1    1    1    2  502    0  0.21532414024E+02  0.64761954452E+01  0.57905598035E+03  0.57949237643E+03  0.00000000000E+00 0. -1.
         22    1    3    3    0    0  0.51662764303E+02 -0.48812455234E+02  0.10446603770E+03  0.12635208757E+03  0.00000000000E+00 0. -1.
         22    1    3    3    0    0 -0.30303744410E+02  0.26648850146E+02  0.20305989848E+03  0.20703091679E+03  0.00000000000E+00 0. -1.
</event>
<event>
 7    1  0.5977291E-006  0.6360972E+02  0.7818608E-02  0.1411903E+00
          2   -1    0    0  502    0  0.00000000000E+00  0.00000000000E+00  0.10142070970E+04  0.10142070970E+04  0.00000000000E+00 0. -1.
          1   -1    0    0  501    0 -0.00000000000E+00 -0.00000000000E+00 -0.90199862377E+02  0.90199862377E+02  0.00000000000E+00 0. -1.
         25    2    1    2    0    0  0.26977015166E+02  0.10298649282E+03  0.46867125686E+03  0.49660018233E+03  0.12500006813E+03 0.  0.
          2    1    1    2  501    0 -0.33659369964E+02 -0.52760950172E+02 -0.61941619776E+02  0.88053593396E+02  0.00000000000E+00 0. -1.
          1    1    1    2  502    0  0.66823547981E+01 -0.50225542645E+02  0.51727759750E+03  0.51975318361E+03  0.00000000000E+00 0. -1.
         22    1    3    3    0    0 -0.34952553783E+02  0.74719628044E+02  0.35185515214E+03  0.36139556156E+03  0.00000000000E+00 0.  1.
         22    1    3    3    0    0  0.61929568949E+02  0.28266864773E+02  0.11681610472E+03  0.13520462076E+03  0.00000000000E+00 0.  1.
</event>
<event>
 7    1  0.1194681E-005  0.9805260E+02  0.7818608E-02  0.1369544E+00
          2   -1    0    0  502    0  0.00000000000E+00  0.00000000000E+00  0.30969792842E+04  0.30969792842E+04  0.00000000000E+00 0. -1.
          1   -1    0    0  501    0 -0.00000000000E+00 -0.00000000000E+00 -0.64529744963E+03  0.64529744963E+03  0.00000000000E+00 0. -1.
         25    2    1    2    0    0  0.32624853209E+02 -0.13525732003E+03 -0.23206007383E+03  0.29805332082E+03  0.12499992206E+03 0.  0.
          2    1    1    2  501    0  0.69280909036E+01  0.45661709723E+02 -0.37805247903E+03  0.38086305554E+03  0.00000000000E+00 0. -1.
          1    1    1    2  502    0 -0.39552944113E+02  0.89595610304E+02  0.30617943874E+04  0.30633603575E+04  0.00000000000E+00 0. -1.
         22    1    3    3    0    0  0.69879995040E+02 -0.89759216529E+02 -0.20243743784E+03  0.23220862796E+03  0.00000000000E+00 0. -1.
         22    1    3    3    0    0 -0.37255141830E+02 -0.45498103498E+02 -0.29622635997E+02  0.65844692862E+02  0.00000000000E+00 0. -1.
</event>
<event>
 7    1  0.5977291E-006  0.2283368E+03  0.7818608E-02  0.1156657E+00
          2   -1    0    0  502    0  0.00000000000E+00  0.00000000000E+00  0.14994710796E+04  0.14994710796E+04  0.00000000000E+00 0. -1.
          1   -1    0    0  501    0 -0.00000000000E+00 -0.00000000000E+00 -0.56933244896E+03  0.56933244896E+03  0.00000000000E+00 0. -1.
         25    2    1    2    0    0 -0.24192689873E+02 -0.35313630654E+03  0.35426535854E+03  0.51615633022E+03  0.12499150262E+03 0.  0.
          2    1    1    2  501    0  0.70785611382E+02  0.14512763270E+03 -0.46392610881E+03  0.49122303182E+03  0.00000000000E+00 0. -1.
          1    1    1    2  502    0 -0.46592921509E+02  0.20800867385E+03  0.10397993809E+04  0.10614241665E+04  0.00000000000E+00 0. -1.
         22    1    3    3    0    0  0.26481535047E+01  0.32771170689E+01 -0.68656482663E+01  0.80553919448E+01  0.00000000000E+00 0.  1.
         22    1    3    3    0    0 -0.26840843378E+02 -0.35641342361E+03  0.36113100681E+03  0.50810093828E+03  0.00000000000E+00 0.  1.
</event>
<event>
 7    1  0.5977291E-006  0.5553980E+02  0.7818608E-02  0.1473191E+00
          2   -1    0    0  502    0  0.00000000000E+00  0.00000000000E+00  0.53651126814E+03  0.53651126814E+03  0.00000000000E+00 0. -1.
          1   -1    0    0  501    0 -0.00000000000E+00 -0.00000000000E+00 -0.14095099636E+03  0.14095099636E+03  0.00000000000E+00 0. -1.
         25    2    1    2    0    0  0.76243627583E+01  0.93244688104E+01 -0.70468908271E+02  0.14399956902E+03  0.12499972887E+03 0.  0.
          2    1    1    2  501    0  0.23509751411E+02 -0.55317253017E+02 -0.39289659191E+01  0.60234073961E+02  0.00000000000E+00 0. -1.
          1    1    1    2  502    0 -0.31134114170E+02  0.45992784206E+02  0.46995814597E+03  0.47322862152E+03  0.00000000000E+00 0. -1.
         22    1    3    3    0    0  0.51041396740E+02 -0.33852594451E+02 -0.19339758920E+02  0.64228098270E+02  0.00000000000E+00 0. -1.
         22    1    3    3    0    0 -0.43417033982E+02  0.43177063261E+02 -0.51129149352E+02  0.79771470747E+02  0.00000000000E+00 0. -1.
</event>
<event>
 7    1  0.5977291E-006  0.3448494E+02  0.7818608E-02  0.1573510E+00
          2   -1    0    0  502    0  0.00000000000E+00  0.00000000000E+00  0.21133072482E+03  0.21133072482E+03  0.00000000000E+00 0. -1.
          1   -1    0    0  501    0 -0.00000000000E+00 -0.00000000000E+00 -0.41397013687E+03  0.41397013687E+03  0.00000000000E+00 0. -1.
         25    2    1    2    0    0 -0.50836468282E+02 -0.38660380043E+02  0.11426808420E+03  0.18099998474E+03  0.12499931167E+03 0.  0.
          2    1    1    2  501    0  0.30104051837E+02  0.16507688415E+02 -0.37616438996E+03  0.37772795235E+03  0.00000000000E+00 0. -1.
          1    1    1    2  502    0  0.20732416445E+02  0.22152691628E+02  0.59256893706E+02  0.66572924600E+02  0.00000000000E+00 0. -1.
         22    1    3    3    0    0 -0.22525802290E+02 -0.79346971868E+02  0.39897661839E+02  0.91625199228E+02  0.00000000000E+00 0. -1.
         22    1    3    3    0    0 -0.28310665992E+02  0.40686591825E+02  0.74370422364E+02  0.89374785515E+02  0.00000000000E+00 0. -1.
</event>
<event>
 7    1  0.5977291E-006  0.4970216E+02  0.7818608E-02  0.1529823E+00
          2   -1    0    0  502    0  0.00000000000E+00  0.00000000000E+00  0.11522473548E+04  0.11522473548E+04  0.00000000000E+00 0. -1.
          1   -1    0    0  501    0 -0.00000000000E+00 -0.00000000000E+00 -0.24052208897E+03  0.24052208897E+03  0.00000000000E+00 0. -1.
         25    2    1    2    0    0  0.35211574427E+02  0.14713704086E+02 -0.26186659887E+02  0.13325487815E+03  0.12495908664E+03 0.  0.
          2    1    1    2  501    0 -0.76336627284E+01  0.26788386499E+02 -0.15902518036E+03  0.16144627109E+03  0.00000000000E+00 0. -1.
          1    1    1    2  502    0 -0.27577911699E+02 -0.41502090585E+02  0.10969371061E+04  0.10980682946E+04  0.00000000000E+00 0. -1.
         22    1    3    3    0    0  0.75203850882E+02  0.11284780529E+02  0.13011691032E+02  0.77150953089E+02  0.00000000000E+00 0. -1.
         22    1    3    3    0    0 -0.39992276454E+02  0.34289235574E+01 -0.39198350919E+02  0.56103925064E+02  0.00000000000E+00 0. -1.
</event>
<event>
 7    1  0.5977291E-006  0.8769761E+02  0.7818608E-02  0.1359459E+00
          2   -1    0    0  502    0  0.00000000000E+00  0.00000000000E+00  0.75463035253E+03  0.75463035253E+03  0.00000000000E+00 0. -1.
          1   -1    0    0  501    0 -0.00000000000E+00 -0.00000000000E+00 -0.58089822128E+03  0.58089822128E+03  0.00000000000E+00 0. -1.
         25    2    1    2    0    0  0.12239410323E+03  0.59674781957E+02 -0.36786661013E+02  0.18846591057E+03  0.12499897965E+03 0.  0.
          2    1    1    2  501    0 -0.37688715957E+02 -0.41652340961E+02 -0.46380823089E+03  0.46719742278E+03  0.00000000000E+00 0. -1.
          1    1    1    2  502    0 -0.84705387271E+02 -0.18022440996E+02  0.67432702316E+03  0.67986524045E+03  0.00000000000E+00 0. -1.
         22    1    3    3    0    0  0.13178287321E+03  0.85534644392E+02 -0.34561925440E+02  0.16086462554E+03  0.00000000000E+00 0.  1.
         22    1    3    3    0    0 -0.93887699770E+01 -0.25859862435E+02 -0.22247355735E+01  0.27601285029E+02  0.00000000000E+00 0.  1.
</event>
<event>
 7    1  0.5977291E-006  0.7033797E+02  0.7818608E-02  0.1390406E+00
          2   -1    0    0  502    0  0.00000000000E+00  0.00000000000E+00  0.50974798822E+03  0.50974798822E+03  0.00000000000E+00 0. -1.
          1   -1    0    0  501    0 -0.00000000000E+00 -0.00000000000E+00 -0.33620399311E+04  0.33620399311E+04  0.00000000000E+00 0. -1.
         25    2    1    2    0    0  0.23301845204E+01 -0.92422671841E+02  0.30098385620E+03  0.33876621300E+03  0.12499554131E+03 0.  0.
          2    1    1    2  501    0 -0.39995473082E+02  0.36739438139E+02 -0.33369704476E+04  0.33374123497E+04  0.00000000000E+00 0. -1.
          1    1    1    2  502    0  0.37665288562E+02  0.55683233703E+02  0.18369464852E+03  0.19560935656E+03  0.00000000000E+00 0. -1.
         22    1    3    3    0    0  0.20594219726E+02 -0.12031340452E+03  0.24048542901E+03  0.26968996785E+03  0.00000000000E+00 0.  1.
         22    1    3    3    0    0 -0.18264035206E+02  0.27890732678E+02  0.60498427198E+02  0.69076245155E+02  0.00000000000E+00 0.  1.
</event>
<event>
 7    1  0.5977291E-006  0.1564723E+03  0.7818608E-02  0.1207995E+00
          2   -1    0    0  502    0  0.00000000000E+00  0.00000000000E+00  0.58469558319E+03  0.58469558319E+03  0.00000000000E+00 0. -1.
          1   -1    0    0  501    0 -0.00000000000E+00 -0.00000000000E+00 -0.42100934182E+04  0.42100934182E+04  0.00000000000E+00 0. -1.
         25    2    1    2    0    0  0.13353649487E+03  0.13859260798E+03 -0.13916595762E+03  0.26838491900E+03  0.12499357798E+03 0.  0.
          2    1    1    2  501    0 -0.13127972419E+03  0.18618706356E+02 -0.39933095506E+04  0.39955102539E+04  0.00000000000E+00 0. -1.
          1    1    1    2  502    0 -0.22567706741E+01 -0.15721131434E+03  0.50707767325E+03  0.53089382845E+03  0.00000000000E+00 0. -1.
         22    1    3    3    0    0  0.48438078234E+02  0.66527043141E+01 -0.92444692423E+02  0.10457785165E+03  0.00000000000E+00 0.  1.
         22    1    3    3    0    0  0.85098416635E+02  0.13193990367E+03 -0.46721265201E+02  0.16380706735E+03  0.00000000000E+00 0.  1.
</event>
<event>
 7    1  0.5977291E-006  0.4559747E+02  0.7818608E-02  0.1489289E+00
          2   -1    0    0  502    0  0.00000000000E+00  0.00000000000E+00  0.56882896199E+03  0.56882896199E+03  0.00000000000E+00 0. -1.
          1   -1    0    0  501    0 -0.00000000000E+00 -0.00000000000E+00 -0.78518026980E+02  0.78518026980E+02  0.00000000000E+00 0. -1.
         25    2    1    2    0    0  0.68469782639E+02  0.69046361050E+01  0.28857833099E+03  0.32193114370E+03  0.12500569201E+03 0.  0.
          2    1    1    2  501    0 -0.34978295153E+02 -0.28722284636E+02 -0.51779571373E+02  0.68771903988E+02  0.00000000000E+00 0. -1.
          1    1    1    2  502    0 -0.33491487486E+02  0.21817648531E+02  0.25351217540E+03  0.25664394128E+03  0.00000000000E+00 0. -1.
         22    1    3    3    0    0 -0.23089348321E+02 -0.35002104062E+02  0.89517180511E+02  0.98851357610E+02  0.00000000000E+00 0. -1.
         22    1    3    3    0    0  0.91559130960E+02  0.41906740167E+02  0.19906115048E+03  0.22307978609E+03  0.00000000000E+00 0. -1.
</event>
<event>
 7    1  0.5977291E-006  0.2439145E+03  0.7818608E-02  0.1313779E+00
          2   -1    0    0  502    0  0.00000000000E+00  0.00000000000E+00  0.30571007698E+03  0.30571007698E+03  0.00000000000E+00 0. -1.
          1   -1    0    0  501    0 -0.00000000000E+00 -0.00000000000E+00 -0.14373758355E+04  0.14373758355E+04  0.00000000000E+00 0. -1.
         25    2    1    2    0    0 -0.17148658559E+03 -0.18433643540E+03 -0.33865852878E+02  0.28312500999E+03  0.12500121935E+03 0.  0.
          2    1    1    2  501    0  0.14387633296E+03  0.19623660108E+03 -0.12659606111E+04  0.12891336128E+04  0.00000000000E+00 0. -1.
          1    1    1    2  502    0  0.27610252633E+02 -0.11900165681E+02  0.16816070553E+03  0.17082728962E+03  0.00000000000E+00 0. -1.
         22    1    3    3    0    0 -0.13390949652E+03 -0.19935393218E+03 -0.23171093647E+02  0.24126881919E+03  0.00000000000E+00 0. -1.
         22    1    3    3    0    0 -0.37577089074E+02  0.15017496786E+02 -0.10694759232E+02  0.41856190797E+02  0.00000000000E+00 0. -1.
</event>
<event>
 7    1  0.5977291E-006  0.6193791E+02  0.7818608E-02  0.1418535E+00
          2   -1    0    0  502    0  0.00000000000E+00  0.00000000000E+00  0.54867253132E+03  0.54867253132E+03  0.00000000000E+00 0. -1.
          1   -1    0    0  501    0 -0.00000000000E+00 -0.00000000000E+00 -0.10326954480E+04  0.10326954480E+04  0.00000000000E+00 0. -1.
         25    2    1    2    0    0 -0.47658339630E+02 -0.82686527295E+02 -0.21769308939E+03  0.26856510838E+03  0.12501422775E+03 0.  0.
          2    1    1    2  501    0  0.50871480338E+02  0.33360444529E+02 -0.78722275598E+03  0.78956981598E+03  0.00000000000E+00 0. -1.
          1    1    1    2  502    0 -0.32131407080E+01  0.49326082766E+02  0.52089292866E+03  0.52323305500E+03  0.00000000000E+00 0. -1.
         22    1    3    3    0    0 -0.38398508907E+02 -0.10342890394E+03 -0.21961382255E+03  0.24576862028E+03  0.00000000000E+00 0. -1.
         22    1    3    3    0    0 -0.92598307224E+01  0.20742376647E+02  0.19207331632E+01  0.22796488104E+02  0.00000000000E+00 0. -1.
</event>
<event>
 7    1  0.5977291E-006  0.6247197E+02  0.7818608E-02  0.1415538E+00
          2   -1    0    0  502    0  0.00000000000E+00  0.00000000000E+00  0.53899940734E+03  0.53899940734E+03  0.00000000000E+00 0. -1.
          1   -1    0    0  501    0 -0.00000000000E+00 -0.00000000000E+00 -0.72349144647E+03  0.72349144647E+03  0.00000000000E+00 0. -1.
         25    2    1    2    0    0  0.74857978062E+02  0.74622809703E+02 -0.24692158139E+03  0.29625559396E+03  0.12499931596E+03 0.  0.
          2    1    1    2  501    0 -0.50723910658E+02 -0.30655316602E+02 -0.44872690684E+03  0.45262401668E+03  0.00000000000E+00 0. -1.
          1    1    1    2  502    0 -0.24134067404E+02 -0.43967493102E+02  0.51115644910E+03  0.51361124317E+03  0.00000000000E+00 0. -1.
         22    1    3    3    0    0 -0.13819538917E+02  0.70426102843E+02 -0.82107784266E+02  0.10905275721E+03  0.00000000000E+00 0.  1.
         22    1    3    3    0    0  0.88677516980E+02  0.41967068602E+01 -0.16481379712E+03  0.18720283675E+03  0.00000000000E+00 0.  1.
</event>
<event>
 7    1  0.5977291E-006  0.9287296E+02  0.7818608E-02  0.1467416E+00
          2   -1    0    0  502    0  0.00000000000E+00  0.00000000000E+00  0.33729951296E+03  0.33729951296E+03  0.00000000000E+00 0. -1.
          1   -1    0    0  501    0 -0.00000000000E+00 -0.00000000000E+00 -0.28952377346E+03  0.28952377346E+03  0.00000000000E+00 0. -1.
         25    2    1    2    0    0  0.47867067858E+02 -0.65560972677E+02  0.57542567345E+02  0.15976944232E+03  0.12500252125E+03 0.  0.
          2    1    1    2  501    0 -0.70528156931E+02  0.62182553895E+02 -0.22851805595E+03  0.24710603558E+03  0.00000000000E+00 0. -1.
          1    1    1    2  502    0  0.22661089073E+02  0.33784187825E+01  0.21875122811E+03  0.21994780852E+03  0.00000000000E+00 0. -1.
         22    1    3    3    0    0  0.46963734601E+02 -0.60436022212E+01  0.82581239445E+02  0.95193374789E+02  0.00000000000E+00 0. -1.
         22    1    3    3    0    0  0.90333325633E+00 -0.59517370456E+02 -0.25038672100E+02  0.64576067529E+02  0.00000000000E+00 0. -1.
</event>
<event>
 7    1  0.5977291E-006  0.6611924E+02  0.7818608E-02  0.1434179E+00
          2   -1    0    0  502    0  0.00000000000E+00  0.00000000000E+00  0.16388402678E+03  0.16388402678E+03  0.00000000000E+00 0. -1.
          1   -1    0    0  501    0 -0.00000000000E+00 -0.00000000000E+00 -0.86232938039E+03  0.86232938039E+03  0.00000000000E+00 0. -1.
         25    2    1    2    0    0 -0.37851745333E+02  0.74352203886E+02  0.20672346848E+02  0.15169979301E+03  0.12499790570E+03 0.  0.
          2    1    1    2  501    0  0.39835142381E+02 -0.10122030923E+02 -0.78289689890E+03  0.78397503046E+03  0.00000000000E+00 0. -1.
          1    1    1    2  502    0 -0.19833970478E+01 -0.64230172963E+02  0.63779198447E+02  0.90538583694E+02  0.00000000000E+00 0. -1.
         22    1    3    3    0    0 -0.46961500822E+02  0.26230223532E+02  0.65878391008E+02  0.85049218620E+02  0.00000000000E+00 0. -1.
         22    1    3    3    0    0  0.91097554886E+01  0.48121980354E+02 -0.45206044160E+02  0.66650574392E+02  0.00000000000E+00 0. -1.
</event>
<event>
 7    1  0.5977291E-006  0.8392001E+02  0.7818608E-02  0.1422599E+00
          2   -1    0    0  502    0  0.00000000000E+00  0.00000000000E+00  0.24007223137E+04  0.24007223137E+04  0.00000000000E+00 0. -1.
          1   -1    0    0  501    0 -0.00000000000E+00 -0.00000000000E+00 -0.47039202279E+03  0.47039202279E+03  0.00000000000E+00 0. -1.
         25    2    1    2    0    0  0.95212433893E+02 -0.48760971264E+02  0.47708937786E+03  0.50466361319E+03  0.12501219191E+03 0.  0.
          2    1    1    2  501    0 -0.34574134183E+02 -0.74189132155E+01 -0.45502414744E+03  0.45639608432E+03  0.00000000000E+00 0. -1.
          1    1    1    2  502    0 -0.60638299710E+02  0.56179884480E+02  0.19082650605E+04  0.19100546390E+04  0.00000000000E+00 0. -1.
         22    1    3    3    0    0  0.15825590602E+02 -0.99449619173E+01 -0.76546275737E+00  0.18706616976E+02  0.00000000000E+00 0. -1.
         22    1    3    3    0    0  0.79386843291E+02 -0.38816009347E+02  0.47785484062E+03  0.48595699622E+03  0.00000000000E+00 0. -1.
</event>
<event>
 7    1  0.5977291E-006  0.3620260E+02  0.7818608E-02  0.1585292E+00
          2   -1    0    0  502    0  0.00000000000E+00  0.00000000000E+00  0.48836997810E+03  0.48836997810E+03  0.00000000000E+00 0. -1.
          1   -1    0    0  501    0 -0.00000000000E+00 -0.00000000000E+00 -0.25514161053E+03  0.25514161053E+03  0.00000000000E+00 0. -1.
         25    2    1    2    0    0  0.25464569703E+02  0.55102151005E+02  0.86835105304E+01  0.13923093835E+03  0.12500063793E+03 0.  0.
          2    1    1    2  501    0 -0.21408563389E+02 -0.28538021151E+02 -0.18775080541E+03  0.19111020426E+03  0.00000000000E+00 0. -1.
          1    1    1    2  502    0 -0.40560063146E+01 -0.26564129854E+02  0.41229566246E+03  0.41317044602E+03  0.00000000000E+00 0. -1.
         22    1    3    3    0    0 -0.10983737109E+02 -0.72004884096E+00  0.56260733356E+02  0.57327402426E+02  0.00000000000E+00 0. -1.
         22    1    3    3    0    0  0.36448306812E+02  0.55822199846E+02 -0.47577222825E+02  0.81903535924E+02  0.00000000000E+00 0. -1.
</event>
<event>
 7    1  0.5977291E-006  0.1326669E+03  0.7818608E-02  0.1383457E+00
          2   -1    0    0  502    0  0.00000000000E+00  0.00000000000E+00  0.87055068246E+03  0.87055068246E+03  0.00000000000E+00 0. -1.
          1   -1    0    0  501    0 -0.00000000000E+00 -0.00000000000E+00 -0.34992950824E+02  0.34992950824E+02  0.00000000000E+00 0. -1.
         25    2    1    2    0    0  0.96080664042E+02 -0.60139765038E+02  0.48781573716E+03  0.51617600530E+03  0.12500075874E+03 0.  0.
          2    1    1    2  501    0 -0.12087634580E+03  0.77822223943E+02  0.27030434193E+03  0.30615653967E+03  0.00000000000E+00 0. -1.
          1    1    1    2  502    0  0.24795681763E+02 -0.17682458905E+02  0.77437652540E+02  0.83211088311E+02  0.00000000000E+00 0. -1.
         22    1    3    3    0    0  0.12072749106E+03 -0.66308533787E+02  0.35171232708E+03  0.37772147116E+03  0.00000000000E+00 0.  1.
         22    1    3    3    0    0 -0.24646827022E+02  0.61687687485E+01  0.13610341008E+03  0.13845453415E+03  0.00000000000E+00 0.  1.
</event>
<event>
 7    1  0.5977291E-006  0.7424009E+02  0.7818608E-02  0.1440422E+00
          2   -1    0    0  502    0  0.00000000000E+00  0.00000000000E+00  0.97615050361E+03  0.97615050361E+03  0.00000000000E+00 0. -1.
          1   -1    0    0  501    0 -0.00000000000E+00 -0.00000000000E+00 -0.41369843554E+03  0.41369843554E+03  0.00000000000E+00 0. -1.
         25    2    1    2    0    0 -0.35981140032E+02 -0.65984518007E+02  0.56416627105E+03  0.58271569714E+03  0.12500161300E+03 0.  0.
          2    1    1    2  501    0  0.61314156694E+02  0.41935385678E+02 -0.40024231057E+03  0.40707727713E+03  0.00000000000E+00 0. -1.
          1    1    1    2  502    0 -0.25333016662E+02  0.24049132330E+02  0.39852810759E+03  0.40005596489E+03  0.00000000000E+00 0. -1.
         22    1    3    3    0    0 -0.54825104651E+02 -0.21521045994E+02  0.10008835837E+03  0.11613193791E+03  0.00000000000E+00 0.  1.
         22    1    3    3    0    0  0.18843964619E+02 -0.44463472013E+02  0.46407791268E+03  0.46658375924E+03  0.00000000000E+00 0.  1.
</event>
<event>
 7    1  0.5977291E-006  0.7770921E+02  0.7818608E-02  0.1397289E+00
          2   -1    0    0  502    0  0.00000000000E+00  0.00000000000E+00  0.89568135542E+02  0.89568135542E+02  0.00000000000E+00 0. -1.
          1   -1    0    0  501    0 -0.00000000000E+00 -0.00000000000E+00 -0.80910271738E+03  0.80910271738E+03  0.00000000000E+00 0. -1.
         25    2    1    2    0    0  0.11089285571E+02 -0.35929000857E+02 -0.54156942329E+03  0.55707862589E+03  0.12500115930E+03 0.  0.
          2    1    1    2  501    0  0.38849425883E+02 -0.25601924337E+02 -0.23779062766E+03  0.24229964719E+03  0.00000000000E+00 0. -1.
          1    1    1    2  502    0 -0.49938711454E+02  0.61530925194E+02  0.59825469117E+02  0.99292579843E+02  0.00000000000E+00 0. -1.
         22    1    3    3    0    0  0.58409957870E+02 -0.49427041624E+02 -0.25209159507E+03  0.26344815036E+03  0.00000000000E+00 0. -1.
         22    1    3    3    0    0 -0.47320672299E+02  0.13498040767E+02 -0.28947782822E+03  0.29363047554E+03  0.00000000000E+00 0. -1.
</event>
<event>
 7    1  0.5977291E-006  0.1027389E+03  0.7818608E-02  0.1304654E+00
          2   -1    0    0  502    0  0.00000000000E+00  0.00000000000E+00  0.74370760342E+02  0.74370760342E+02  0.00000000000E+00 0. -1.
          1   -1    0    0  501    0 -0.00000000000E+00 -0.00000000000E+00 -0.82205860983E+03  0.82205860983E+03  0.00000000000E+00 0. -1.
         25    2    1    2    0    0  0.12484306630E+03  0.59611997785E+02 -0.13343355206E+03  0.22927842817E+03  0.12499881330E+03 0.  0.
          2    1    1    2  501    0 -0.75577688878E+02  0.17375351451E+02 -0.54996258642E+03  0.55540321962E+03  0.00000000000E+00 0. -1.
          1    1    1    2  502    0 -0.49265377418E+02 -0.76987349236E+02 -0.64291711006E+02  0.11174772239E+03  0.00000000000E+00 0. -1.
         22    1    3    3    0    0  0.17419985381E+02  0.10726030564E+02 -0.10620158115E+03  0.10815396184E+03  0.00000000000E+00 0.  1.
         22    1    3    3    0    0  0.10742308092E+03  0.48885967221E+02 -0.27231970906E+02  0.12112446633E+03  0.00000000000E+00 0.  1.
</event>
<event>
 7    1  0.5977291E-006  0.7893370E+02  0.7818608E-02  0.1335228E+00
          2   -1    0    0  502    0  0.00000000000E+00  0.00000000000E+00  0.29330616220E+03  0.29330616220E+03  0.00000000000E+00 0. -1.
          1   -1    0    0  501    0 -0.00000000000E+00 -0.00000000000E+00 -0.25256676283E+03  0.25256676283E+03  0.00000000000E+00 0. -1.
         25    2    1    2    0    0  0.29588314672E+02  0.35861122687E+02 -0.11844671619E+03  0.17836824441E+03  0.12499647016E+03 0.  0.
          2    1    1    2  501    0 -0.49724195426E+02 -0.10998107618E+03 -0.60331696673E+02  0.13493793518E+03  0.00000000000E+00 0. -1.
          1    1    1    2  502    0  0.20135880754E+02  0.74119953493E+02  0.21951781223E+03  0.23256674544E+03  0.00000000000E+00 0. -1.
         22    1    3    3    0    0  0.67550606256E+02  0.57597855984E+02 -0.69657462690E+02  0.11283952999E+03  0.00000000000E+00 0. -1.
         22    1    3    3    0    0 -0.37962291584E+02 -0.21736733297E+02 -0.48789253496E+02  0.65528714419E+02  0.00000000000E+00 0. -1.
</event>
<event>
 7    1  0.5977291E-006  0.6472981E+02  0.7818608E-02  0.1441119E+00
          2   -1    0    0  502    0  0.00000000000E+00  0.00000000000E+00  0.38126920121E+03  0.38126920121E+03  0.00000000000E+00 0. -1.
          1   -1    0    0  501    0 -0.00000000000E+00 -0.00000000000E+00 -0.15502999324E+04  0.15502999324E+04  0.00000000000E+00 0. -1.
         25    2    1    2    0    0 -0.59296143542E+02  0.11292056366E+02 -0.15143987504E+03  0.20543410111E+03  0.12500236387E+03 0.  0.
          2    1    1    2  501    0  0.90108509175E+00 -0.39844280879E+02 -0.13685887981E+04  0.13691689731E+04  0.00000000000E+00 0. -1.
          1    1    1    2  502    0  0.58395058451E+02  0.28552224513E+02  0.35099794189E+03  0.35696605943E+03  0.00000000000E+00 0. -1.
         22    1    3    3    0    0 -0.37446385576E+02  0.63608502544E+01  0.12487956839E+02  0.39983012326E+02  0.00000000000E+00 0.  1.
         22    1    3    3    0    0 -0.21849757966E+02  0.49312061112E+01 -0.16392783187E+03  0.16545108878E+03  0.00000000000E+00 0.  1.
</event>
<event>
 7    1  0.5977291E-006  0.8765951E+02  0.7818608E-02  0.1374307E+00
          2   -1    0    0  502    0  0.00000000000E+00  0.00000000000E+00  0.17400680835E+04  0.17400680835E+04  0.00000000000E+00 0. -1.
          1   -1    0    0  501    0 -0.00000000000E+00 -0.00000000000E+00 -0.35155065844E+03  0.35155065844E+03  0.00000000000E+00 0. -1.
         25    2    1    2    0    0  0.43426685477E+02  0.14133227505E+02  0.59427777583E+02  0.14575005821E+03  0.12500317432E+03 0.  0.
          2    1    1    2  501    0 -0.90525548420E+02  0.16362748038E+01 -0.30135772603E+03  0.31466495094E+03  0.00000000000E+00 0. -1.
          1    1    1    2  502    0  0.47098862942E+02 -0.15769502309E+02  0.16304473735E+04  0.16312037328E+04  0.00000000000E+00 0. -1.
         22    1    3    3    0    0 -0.23157471200E+02  0.23449010661E+02 -0.22397063971E+02  0.39846619026E+02  0.00000000000E+00 0. -1.
         22    1    3    3    0    0  0.66584156677E+02 -0.93157831552E+01  0.81824841554E+02  0.10590343919E+03  0.00000000000E+00 0. -1.
</event>
<event>
 7    1  0.5977291E-006  0.2637191E+03  0.7818608E-02  0.1176309E+00
          2   -1    0    0  502    0  0.00000000000E+00  0.00000000000E+00  0.56730370334E+03  0.56730370334E+03  0.00000000000E+00 0. -1.
          1   -1    0    0  501    0 -0.00000000000E+00 -0.00000000000E+00 -0.82442324858E+03  0.82442324858E+03  0.00000000000E+00 0. -1.
         25    2    1    2    0    0 -0.17923888477E+03  0.61396731260E+02 -0.60657738796E+02  0.23494739671E+03  0.12499912609E+03 0.  0.
          2    1    1    2  501    0  0.28888611797E+03 -0.41108510432E+02 -0.63790240203E+03  0.70147314511E+03  0.00000000000E+00 0. -1.
          1    1    1    2  502    0 -0.10964723320E+03 -0.20288220828E+02  0.44144059559E+03  0.45530641011E+03  0.00000000000E+00 0. -1.
         22    1    3    3    0    0 -0.15657274292E+03  0.54434943417E+02  0.42752748754E+01  0.16582058035E+03  0.00000000000E+00 0.  1.
         22    1    3    3    0    0 -0.22666141842E+02  0.69617878428E+01 -0.64933013672E+02  0.69126816363E+02  0.00000000000E+00 0.  1.
</event>
<event>
 7    1  0.5977291E-006  0.1184150E+03  0.7818608E-02  0.1393979E+00
          2   -1    0    0  502    0  0.00000000000E+00  0.00000000000E+00  0.26342835660E+04  0.26342835660E+04  0.00000000000E+00 0. -1.
          1   -1    0    0  501    0 -0.00000000000E+00 -0.00000000000E+00 -0.67368918414E+03  0.67368918414E+03  0.00000000000E+00 0. -1.
         25    2    1    2    0    0  0.72452194623E+02  0.63301212374E+02  0.59191385413E+03  0.61257099838E+03  0.12499941339E+03 0.  0.
          2    1    1    2  501    0 -0.10338043027E+03 -0.58182150168E+02 -0.65793486390E+03  0.66854391112E+03  0.00000000000E+00 0. -1.
          1    1    1    2  502    0  0.30928235646E+02 -0.51190622057E+01  0.20266153917E+04  0.20268578407E+04  0.00000000000E+00 0. -1.
         22    1    3    3    0    0  0.52169758169E+02  0.99438112840E+02  0.48679568743E+03  0.49957948642E+03  0.00000000000E+00 0.  1.
         22    1    3    3    0    0  0.20282436454E+02 -0.36136900466E+02  0.10511816670E+03  0.11299151196E+03  0.00000000000E+00 0.  1.
</event>
<event>
 7    1  0.5977291E-006  0.5351996E+02  0.7818608E-02  0.1559415E+00
          2   -1    0    0  502    0  0.00000000000E+00  0.00000000000E+00  0.66106691843E+02  0.66106691843E+02  0.00000000000E+00 0. -1.
          1   -1    0    0  501    0 -0.00000000000E+00 -0.00000000000E+00 -0.27556303299E+04  0.27556303299E+04  0.00000000000E+00 0. -1.
         25    2    1    2    0    0 -0.33140327325E+02 -0.66697550781E+02 -0.33038616611E+03  0.36100823174E+03  0.12500032021E+03 0.  0.
          2    1    1    2  501    0  0.23394397041E+02  0.47689887286E+02 -0.24073814842E+04  0.24079674486E+04  0.00000000000E+00 0. -1.
          1    1    1    2  502    0  0.97459302834E+01  0.19007663495E+02  0.48244012238E+02  0.52761341391E+02  0.00000000000E+00 0. -1.
         22    1    3    3    0    0 -0.65896546234E+01 -0.11239008647E+02  0.91687422894E+01  0.15931249122E+02  0.00000000000E+00 0.  1.
         22    1    3    3    0    0 -0.26550672701E+02 -0.55458542134E+02 -0.33955490840E+03  0.34507698262E+03  0.00000000000E+00 0.  1.
</event>
<event>
 7    1  0.5977291E-006  0.2659789E+03  0.7818608E-02  0.1334702E+00
          2   -1    0    0  502    0  0.00000000000E+00  0.00000000000E+00  0.11237670915E+04  0.11237670915E+04  0.00000000000E+00 0. -1.
          1   -1    0    0  501    0 -0.00000000000E+00 -0.00000000000E+00 -0.29107111438E+03  0.29107111438E+03  0.00000000000E+00 0. -1.
         25    2    1    2    0    0 -0.61025142831E+02  0.26681677741E+03  0.17652745259E+03  0.34885824178E+03  0.12499948231E+03 0.  0.
          2    1    1    2  501    0  0.78297321171E+02 -0.25178286396E+03 -0.11984116398E+03  0.28963250105E+03  0.00000000000E+00 0. -1.
          1    1    1    2  502    0 -0.17272178341E+02 -0.15033913456E+02  0.77600968846E+03  0.77634746299E+03  0.00000000000E+00 0. -1.
         22    1    3    3    0    0 -0.22708879464E+02  0.77415927161E+02 -0.87467910382E+01  0.81150633628E+02  0.00000000000E+00 0. -1.
         22    1    3    3    0    0 -0.38316263366E+02  0.18940085025E+03  0.18527424363E+03  0.26770760816E+03  0.00000000000E+00 0. -1.
</event>
<event>
 7    1  0.5977291E-006  0.7284567E+02  0.7818608E-02  0.1376218E+00
          2   -1    0    0  502    0  0.00000000000E+00  0.00000000000E+00  0.92038695081E+02  0.92038695081E+02  0.00000000000E+00 0. -1.
          1   -1    0    0  501    0 -0.00000000000E+00 -0.00000000000E+00 -0.20162510944E+04  0.20162510944E+04  0.00000000000E+00 0. -1.
         25    2    1    2    0    0  0.82510034886E+01  0.10105271348E+03 -0.87370428691E+03  0.88839863662E+03  0.12495289761E+03 0.  0.
          2    1    1    2  501    0  0.35210021705E+02 -0.61390262531E+02 -0.11237310129E+04  0.11259573257E+04  0.00000000000E+00 0. -1.
          1    1    1    2  502    0 -0.43461025194E+02 -0.39662450950E+02  0.73222900495E+02  0.93933827151E+02  0.00000000000E+00 0. -1.
         22    1    3    3    0    0  0.20935212831E+02  0.57850011533E+02 -0.79762263544E+03  0.79999173466E+03  0.00000000000E+00 0. -1.
         22    1    3    3    0    0 -0.12684209342E+02  0.43202701948E+02 -0.76081651477E+02  0.88406901958E+02  0.00000000000E+00 0. -1.
</event>
<event>
 7    1  0.5977291E-006  0.2434682E+03  0.7818608E-02  0.1232349E+00
          2   -1    0    0  502    0  0.00000000000E+00  0.00000000000E+00  0.49026962545E+03  0.49026962545E+03  0.00000000000E+00 0. -1.
          1   -1    0    0  501    0 -0.00000000000E+00 -0.00000000000E+00 -0.65053821214E+03  0.65053821214E+03  0.00000000000E+00 0. -1.
         25    2    1    2    0    0 -0.68338295237E+02 -0.20851444525E+03  0.21582961343E+03  0.33219921765E+03  0.12500200677E+03 0.  0.
          2    1    1    2  501    0  0.17483382194E+01 -0.65970150792E+02 -0.49700830082E+03  0.50137049032E+03  0.00000000000E+00 0. -1.
          1    1    1    2  502    0  0.66589957017E+02  0.27448459605E+03  0.12091010070E+03  0.30723812962E+03  0.00000000000E+00 0. -1.
         22    1    3    3    0    0 -0.42010940609E+01  0.11698082734E+02 -0.53804959178E+01  0.13544152513E+02  0.00000000000E+00 0.  1.
         22    1    3    3    0    0 -0.64137201176E+02 -0.22021252799E+03  0.22121010935E+03  0.31865506514E+03  0.00000000000E+00 0.  1.
</event>
<event>
 7    1  0.5977291E-006  0.1328598E+03  0.7818608E-02  0.1389778E+00
          2   -1    0    0  502    0  0.00000000000E+00  0.00000000000E+00  0.16247474481E+03  0.16247474481E+03  0.00000000000E+00 0. -1.
          1   -1    0    0  501    0 -0.00000000000E+00 -0.00000000000E+00 -0.45853365124E+03  0.45853365124E+03  0.00000000000E+00 0. -1.
         25    2    1    2    0    0 -0.10251105849E+03 -0.43122632865E+02 -0.15985147239E+03  0.23139526578E+03  0.12499278869E+03 0.  0.
          2    1    1    2  501    0 -0.28697868551E+02  0.33884320052E+01 -0.22462784544E+03  0.22647895725E+03  0.00000000000E+00 0. -1.
          1    1    1    2  502    0  0.13120892704E+03  0.39734200860E+02  0.88420411393E+02  0.16313417301E+03  0.00000000000E+00 0. -1.
         22    1    3    3    0    0 -0.94312008471E+02 -0.63146326537E+02 -0.58363637531E+02  0.12762651638E+03  0.00000000000E+00 0. -1.
         22    1    3    3    0    0 -0.81990500181E+01  0.20023693671E+02 -0.10148783486E+03  0.10376874941E+03  0.00000000000E+00 0. -1.
</event>
<event>
 7    1  0.5977291E-006  0.1062483E+03  0.7818608E-02  0.1288690E+00
          2   -1    0    0  502    0  0.00000000000E+00  0.00000000000E+00  0.10320458379E+04  0.10320458379E+04  0.00000000000E+00 0. -1.
          1   -1    0    0  501    0 -0.00000000000E+00 -0.00000000000E+00 -0.24995686584E+03  0.24995686584E+03  0.00000000000E+00 0. -1.
         25    2    1    2    0    0 -0.98832679257E+01 -0.46277971065E+02  0.14653497041E+03  0.19833501302E+03  0.12499980099E+03 0.  0.
          2    1    1    2  501    0  0.95996686775E+02  0.58264670578E+02 -0.20760941554E+03  0.23603348307E+03  0.00000000000E+00 0. -1.
          1    1    1    2  502    0 -0.86113418849E+02 -0.11986699513E+02  0.84316341721E+03  0.84763420766E+03  0.00000000000E+00 0. -1.
         22    1    3    3    0    0  0.31850780942E+01  0.39318214695E+02  0.79788551521E+02  0.89007188940E+02  0.00000000000E+00 0. -1.
         22    1    3    3    0    0 -0.13068346020E+02 -0.85596185760E+02  0.66746418884E+02  0.10932782408E+03  0.00000000000E+00 0. -1.
</event>
<event>
 7    1  0.5977291E-006  0.2529583E+03  0.7818608E-02  0.1232519E+00
          2   -1    0    0  502    0  0.00000000000E+00  0.00000000000E+00  0.18726717387E+04  0.18726717387E+04  0.00000000000E+00 0. -1.
          1   -1    0    0  501    0 -0.00000000000E+00 -0.00000000000E+00 -0.91017148877E+03  0.91017148877E+03  0.00000000000E+00 0. -1.
         25    2    1    2    0    0 -0.20048556478E+03  0.23534591713E+03  0.18174088798E+03  0.37978511652E+03  0.12499928788E+03 0.  0.
          2    1    1    2  501    0  0.17517397456E+03 -0.17721058253E+03 -0.79135894272E+03  0.82966167089E+03  0.00000000000E+00 0. -1.
          1    1    1    2  502    0  0.25311590214E+02 -0.58135334600E+02  0.15721183046E+04  0.15733964400E+04  0.00000000000E+00 0. -1.
         22    1    3    3    0    0 -0.19149822887E+03  0.16668849910E+03  0.10053022046E+03  0.27306217720E+03  0.00000000000E+00 0. -1.
         22    1    3    3    0    0 -0.89873359122E+01  0.68657418025E+02  0.81210667526E+02  0.10672293932E+03  0.00000000000E+00 0. -1.
</event>
<event>
 7    1  0.5977291E-006  0.1362717E+03  0.7818608E-02  0.1234116E+00
          2   -1    0    0  502    0  0.00000000000E+00  0.00000000000E+00  0.15029820562E+04  0.15029820562E+04  0.00000000000E+00 0. -1.
          1   -1    0    0  501    0 -0.00000000000E+00 -0.00000000000E+00 -0.24769557635E+04  0.24769557635E+04  0.00000000000E+00 0. -1.
         25    2    1    2    0    0 -0.22818013857E+03 -0.74901805233E+02  0.69635147887E+03  0.74713241154E+03  0.12500000871E+03 0.  0.
          2    1    1    2  501    0  0.13593520710E+03  0.49206170246E+01 -0.24453746302E+04  0.24491548900E+04  0.00000000000E+00 0. -1.
          1    1    1    2  502    0  0.92244931472E+02  0.69981188209E+02  0.77504944396E+03  0.78365051820E+03  0.00000000000E+00 0. -1.
         22    1    3    3    0    0 -0.42906356269E+01  0.12746087619E+02  0.37162451955E+01  0.13952877195E+02  0.00000000000E+00 0.  1.
         22    1    3    3    0    0 -0.22388950295E+03 -0.87647892852E+02  0.69263523367E+03  0.73317953434E+03  0.00000000000E+00 0.  1.
</event>
<event>
 7    1  0.5977291E-006  0.6644246E+02  0.7818608E-02  0.1373478E+00
          2   -1    0    0  502    0  0.00000000000E+00  0.00000000000E+00  0.62627497233E+03  0.62627497233E+03  0.00000000000E+00 0. -1.
          1   -1    0    0  501    0 -0.00000000000E+00 -0.00000000000E+00 -0.13701766120E+04  0.13701766120E+04  0.00000000000E+00 0. -1.
         25    2    1    2    0    0  0.72814361315E+02  0.39706817789E+01 -0.28243875730E+02  0.14742943528E+03  0.12498009579E+03 0.  0.
          2    1    1    2  501    0 -0.39344865700E+02  0.53540475811E+02 -0.12795216510E+04  0.12812455878E+04  0.00000000000E+00 0. -1.
          1    1    1    2  502    0 -0.33469495615E+02 -0.57511157590E+02  0.56386388703E+03  0.56777656123E+03  0.00000000000E+00 0. -1.
         22    1    3    3    0    0  0.70406110376E+02  0.57438073748E+02 -0.22445805275E+02  0.93594694661E+02  0.00000000000E+00 0. -1.
         22    1    3    3    0    0  0.24082509389E+01 -0.53467391970E+02 -0.57980704553E+01  0.53834740620E+02  0.00000000000E+00 0. -1.
</event>
<event>
 7    1  0.5977291E-006  0.1586675E+03  0.7818608E-02  0.1328518E+00
          2   -1    0    0  502    0  0.00000000000E+00  0.00000000000E+00  0.51594975103E+04  0.51594975103E+04  0.00000000000E+00 0. -1.
          1   -1    0    0  501    0 -0.00000000000E+00 -0.00000000000E+00 -0.13036050017E+04  0.13036050017E+04  0.00000000000E+00 0. -1.
         25    2    1    2    0    0 -0.93294373904E+02  0.17324899830E+03  0.17539234202E+03  0.29172998400E+03  0.12499941725E+03 0.  0.
          2    1    1    2  501    0  0.97158820076E+01 -0.39344082348E+02 -0.12438415606E+04  0.12445015802E+04  0.00000000000E+00 0. -1.
          1    1    1    2  502    0  0.83578491896E+02 -0.13390491595E+03  0.49243417271E+04  0.49268709478E+04  0.00000000000E+00 0. -1.
         22    1    3    3    0    0 -0.10188090431E+03  0.70433741038E+02  0.62288738196E+02  0.13863808079E+03  0.00000000000E+00 0.  1.
         22    1    3    3    0    0  0.85865304067E+01  0.10281525726E+03  0.11310360382E+03  0.15309190320E+03  0.00000000000E+00 0.  1.
</event>
<event>
 7    1  0.7620895E-006  0.5945332E+02  0.7818608E-02  0.1438820E+00
          2   -1    0    0  502    0  0.00000000000E+00  0.00000000000E+00  0.12021913409E+04  0.12021913409E+04  0.00000000000E+00 0. -1.
          1   -1    0    0  501    0 -0.00000000000E+00 -0.00000000000E+00 -0.18507937096E+04  0.18507937096E+04  0.00000000000E+00 0. -1.
         25    2    1    2    0    0  0.80240155005E+02  0.45950468416E+02 -0.16093328853E+03  0.22377440357E+03  0.12500212924E+03 0.  0.
          2    1    1    2  501    0 -0.36102992234E+02 -0.46684908590E+02 -0.16574984179E+04  0.16585487367E+04  0.00000000000E+00 0. -1.
          1    1    1    2  502    0 -0.44137162771E+02  0.73444017361E+00  0.11698293377E+04  0.11706619101E+04  0.00000000000E+00 0. -1.
         22    1    3    3    0    0  0.54422958680E+02  0.16267368032E+02 -0.17343194781E+03  0.18249692111E+03  0.00000000000E+00 0.  1.
         22    1    3    3    0    0  0.25817196325E+02  0.29683100384E+02  0.12498659278E+02  0.41277482460E+02  0.00000000000E+00 0.  1.
</event>
<event>
 7    1  0.5977291E-006  0.8607810E+02  0.7818608E-02  0.1383191E+00
          2   -1    0    0  502    0  0.00000000000E+00  0.00000000000E+00  0.49066487359E+03  0.49066487359E+03  0.00000000000E+00 0. -1.
          1   -1    0    0  501    0 -0.00000000000E+00 -0.00000000000E+00 -0.19997899863E+03  0.19997899863E+03  0.00000000000E+00 0. -1.
         25    2    1    2    0    0  0.86111895211E+02  0.12415901896E+02 -0.41657078465E+02  0.15788965024E+03  0.12499766537E+03 0.  0.
          2    1    1    2  501    0 -0.65600256974E+01 -0.46579807889E+02 -0.90041342859E+02  0.10158816793E+03  0.00000000000E+00 0. -1.
          1    1    1    2  502    0 -0.79551869514E+02  0.34163905993E+02  0.42238429629E+03  0.43116605405E+03  0.00000000000E+00 0. -1.
         22    1    3    3    0    0  0.55098222189E+01 -0.40188165116E+02  0.18291829243E+02  0.44497615366E+02  0.00000000000E+00 0. -1.
         22    1    3    3    0    0  0.80602072993E+02  0.52604067011E+02 -0.59948907708E+02  0.11339203487E+03  0.00000000000E+00 0. -1.
</event>
<event>
 7    1  0.5977291E-006  0.7875584E+02  0.7818608E-02  0.1476110E+00
          2   -1    0    0  502    0  0.00000000000E+00  0.00000000000E+00  0.21364326079E+03  0.21364326079E+03  0.00000000000E+00 0. -1.
          1   -1    0    0  501    0 -0.00000000000E+00 -0.00000000000E+00 -0.89890514952E+03  0.89890514952E+03  0.00000000000E+00 0. -1.
         25    2    1    2    0    0  0.82950975802E+02 -0.34798557907E+02 -0.36319692671E+02  0.15822855304E+03  0.12500140360E+03 0.  0.
          2    1    1    2  501    0 -0.56985086956E+01  0.24743346838E+02 -0.79147721216E+03  0.79188438776E+03  0.00000000000E+00 0. -1.
          1    1    1    2  502    0 -0.77252467106E+02  0.10055211069E+02  0.14253501609E+03  0.16243546951E+03  0.00000000000E+00 0. -1.
         22    1    3    3    0    0  0.76372098216E+02 -0.62731621963E+02 -0.64492386634E+02  0.11801365054E+03  0.00000000000E+00 0. -1.
         22    1    3    3    0    0  0.65788775861E+01  0.27933064056E+02  0.28172693962E+02  0.40214902498E+02  0.00000000000E+00 0. -1.
</event>
<event>
 7    1  0.5977291E-006  0.1022616E+03  0.7818608E-02  0.1348819E+00
          2   -1    0    0  502    0  0.00000000000E+00  0.00000000000E+00  0.37471820423E+03  0.37471820423E+03  0.00000000000E+00 0. -1.
          1   -1    0    0  501    0 -0.00000000000E+00 -0.00000000000E+00 -0.29493604482E+03  0.29493604482E+03  0.00000000000E+00 0. -1.
         25    2    1    2    0    0  0.72604690599E+02 -0.12961140239E+03  0.92189814829E+01  0.19437218809E+03  0.12500000463E+03 0.  0.
          2    1    1    2  501    0 -0.54825411574E+02  0.79980075757E+02 -0.18792772606E+03  0.21146978151E+03  0.00000000000E+00 0. -1.
          1    1    1    2  502    0 -0.17779279025E+02  0.49631326635E+02  0.25849090398E+03  0.26381227945E+03  0.00000000000E+00 0. -1.
         22    1    3    3    0    0 -0.30198083478E+02 -0.29945201466E+02 -0.21914274062E+02  0.47842185823E+02  0.00000000000E+00 0.  1.
         22    1    3    3    0    0  0.10280277408E+03 -0.99666200926E+02  0.31133255545E+02  0.14653000227E+03  0.00000000000E+00 0.  1.
</event>
<event>
 7    1  0.5977291E-006  0.3816625E+02  0.7818608E-02  0.1541007E+00
          2   -1    0    0  502    0  0.00000000000E+00  0.00000000000E+00  0.18996763981E+03  0.18996763981E+03  0.00000000000E+00 0. -1.
          1   -1    0    0  501    0 -0.00000000000E+00 -0.00000000000E+00 -0.22421533433E+03  0.22421533433E+03  0.00000000000E+00 0. -1.
         25    2    1    2    0    0 -0.22645875986E+01 -0.18431137205E+02 -0.74471356360E+02  0.14668068569E+03  0.12499762182E+03 0.  0.
          2    1    1    2  501    0  0.35954065994E+02  0.19667267794E+02 -0.10798908291E+03  0.11550384544E+03  0.00000000000E+00 0. -1.
          1    1    1    2  502    0 -0.33689478396E+02 -0.12361305888E+01  0.14821274475E+03  0.15199844302E+03  0.00000000000E+00 0. -1.
         22    1    3    3    0    0  0.40689443310E+02 -0.55446667295E+02 -0.49426591119E+02  0.84693279667E+02  0.00000000000E+00 0. -1.
         22    1    3    3    0    0 -0.42954030909E+02  0.37015530090E+02 -0.25044765241E+02  0.61987406021E+02  0.00000000000E+00 0. -1.
</event>
<event>
 7    1  0.6871915E-006  0.8632696E+02  0.7818608E-02  0.1326541E+00
          2   -1    0    0  502    0  0.00000000000E+00  0.00000000000E+00  0.74934410449E+03  0.74934410449E+03  0.00000000000E+00 0. -1.
          1   -1    0    0  501    0 -0.00000000000E+00 -0.00000000000E+00 -0.11302473279E+04  0.11302473279E+04  0.00000000000E+00 0. -1.
         25    2    1    2    0    0 -0.10776547158E+02 -0.19340425811E+01 -0.48677180756E+03  0.50268462642E+03  0.12500066606E+03 0.  0.
          2    1    1    2  501    0 -0.75452067101E+02 -0.72339222419E+01 -0.63070655455E+03  0.63524491499E+03  0.00000000000E+00 0. -1.
          1    1    1    2  502    0  0.86228614259E+02  0.91679648230E+01  0.73657513873E+03  0.74166189095E+03  0.00000000000E+00 0. -1.
         22    1    3    3    0    0 -0.55580107360E+02 -0.24928174792E+02 -0.37729175070E+03  0.38217748152E+03  0.00000000000E+00 0. -1.
         22    1    3    3    0    0  0.44803560202E+02  0.22994132211E+02 -0.10948005686E+03  0.12050714490E+03  0.00000000000E+00 0. -1.
</event>
<event>
 7    1  0.5977291E-006  0.6153951E+02  0.7818608E-02  0.1394941E+00
          2   -1    0    0  502    0  0.00000000000E+00  0.00000000000E+00  0.27206685472E+02  0.27206685472E+02  0.00000000000E+00 0. -1.
          1   -1    0    0  501    0 -0.00000000000E+00 -0.00000000000E+00 -0.91949078468E+03  0.91949078468E+03  0.00000000000E+00 0. -1.
         25    2    1    2    0    0 -0.12165761748E+02  0.21039525944E+02 -0.25465799325E+03  0.28472200009E+03  0.12500102560E+03 0.  0.
          2    1    1    2  501    0 -0.54037409085E+02  0.29446043282E+02 -0.47796767317E+03  0.48191307063E+03  0.00000000000E+00 0. -1.
          1    1    1    2  502    0  0.66203170833E+02 -0.50485569226E+02 -0.15965843279E+03  0.18006239943E+03  0.00000000000E+00 0. -1.
         22    1    3    3    0    0  0.36179788547E+02 -0.34344514190E+02 -0.13895962192E+03  0.14764247112E+03  0.00000000000E+00 0. -1.
         22    1    3    3    0    0 -0.48345550296E+02  0.55384040135E+02 -0.11569837133E+03  0.13707952897E+03  0.00000000000E+00 0. -1.
</event>
<event>
 7    1  0.5977291E-006  0.5726301E+02  0.7818608E-02  0.1431514E+00
          2   -1    0    0  502    0  0.00000000000E+00  0.00000000000E+00  0.53497376374E+03  0.53497376374E+03  0.00000000000E+00 0. -1.
          1   -1    0    0  501    0 -0.00000000000E+00 -0.00000000000E+00 -0.73158084891E+02  0.73158084891E+02  0.00000000000E+00 0. -1.
         25    2    1    2    0    0  0.65216059943E+02  0.37688975266E+02  0.29673144340E+02  0.14892378685E+03  0.12499682182E+03 0.  0.
          2    1    1    2  501    0 -0.88578517927E+01 -0.47604923453E+02  0.39701984566E+02  0.62617392582E+02  0.00000000000E+00 0. -1.
          1    1    1    2  502    0 -0.56358208150E+02  0.99159481864E+01  0.39244054995E+03  0.39659066920E+03  0.00000000000E+00 0. -1.
         22    1    3    3    0    0  0.53325659322E+02 -0.21658351186E+02  0.58338913932E+02  0.81952053037E+02  0.00000000000E+00 0. -1.
         22    1    3    3    0    0  0.11890400620E+02  0.59347326452E+02 -0.28665769591E+02  0.66971733815E+02  0.00000000000E+00 0. -1.
</event>
<event>
 7    1  0.5977291E-006  0.1362898E+03  0.7818608E-02  0.1261740E+00
          2   -1    0    0  502    0  0.00000000000E+00  0.00000000000E+00  0.36297177934E+03  0.36297177934E+03  0.00000000000E+00 0. -1.
          1   -1    0    0  501    0 -0.00000000000E+00 -0.00000000000E+00 -0.57468586705E+03  0.57468586705E+03  0.00000000000E+00 0. -1.
         25    2    1    2    0    0  0.20824476994E+03  0.17396219389E+01  0.65944026715E+02  0.25168084324E+03  0.12500288677E+03 0.  0.
          2    1    1    2  501    0 -0.86759703910E+02 -0.13266420074E+02 -0.45904566743E+03  0.46736085514E+03  0.00000000000E+00 0. -1.
          1    1    1    2  502    0 -0.12148506603E+03  0.11526798135E+02  0.18138755301E+03  0.21861594802E+03  0.00000000000E+00 0. -1.
         22    1    3    3    0    0  0.72510618214E+02  0.58925843874E+02  0.93811648472E+01  0.93904478508E+02  0.00000000000E+00 0. -1.
         22    1    3    3    0    0  0.13573415173E+03 -0.57186221935E+02  0.56562861867E+02  0.15777636473E+03  0.00000000000E+00 0. -1.
</event>
<event>
 7    1  0.5977291E-006  0.8420622E+02  0.7818608E-02  0.1412657E+00
          2   -1    0    0  502    0  0.00000000000E+00  0.00000000000E+00  0.45757117818E+03  0.45757117818E+03  0.00000000000E+00 0. -1.
          1   -1    0    0  501    0 -0.00000000000E+00 -0.00000000000E+00 -0.12616640715E+04  0.12616640715E+04  0.00000000000E+00 0. -1.
         25    2    1    2    0    0 -0.90516272863E+02  0.74748230933E+02 -0.28017334514E+03  0.32848324327E+03  0.12499457629E+03 0.  0.
          2    1    1    2  501    0  0.17389235697E+02 -0.33845218719E+02 -0.95290293321E+03  0.95366235349E+03  0.00000000000E+00 0. -1.
          1    1    1    2  502    0  0.73127037166E+02 -0.40903012214E+02  0.42898338508E+03  0.43708965287E+03  0.00000000000E+00 0. -1.
         22    1    3    3    0    0 -0.42610299158E+02  0.37469876775E+02 -0.18229674433E+02  0.59598240660E+02  0.00000000000E+00 0.  1.
         22    1    3    3    0    0 -0.47905973705E+02  0.37278354158E+02 -0.26194367071E+03  0.26888500261E+03  0.00000000000E+00 0.  1.
</event>
<event>
 7    1  0.5977291E-006  0.7311810E+02  0.7818608E-02  0.1364486E+00
          2   -1    0    0  502    0  0.00000000000E+00  0.00000000000E+00  0.87016448369E+02  0.87016448369E+02  0.00000000000E+00 0. -1.
          1   -1    0    0  501    0 -0.00000000000E+00 -0.00000000000E+00 -0.18666914243E+04  0.18666914243E+04  0.00000000000E+00 0. -1.
         25    2    1    2    0    0 -0.93601383275E+01  0.26659833400E+02 -0.43658317416E+03  0.45500496984E+03  0.12500518277E+03 0.  0.
          2    1    1    2  501    0 -0.38856741341E+02 -0.69642961434E+02 -0.14061634262E+04  0.14084230791E+04  0.00000000000E+00 0. -1.
          1    1    1    2  502    0  0.48216879668E+02  0.42983128034E+02  0.63071624400E+02  0.90279823798E+02  0.00000000000E+00 0. -1.
         22    1    3    3    0    0  0.38326294691E+02  0.16228476253E+02 -0.48699299237E+02  0.64061611379E+02  0.00000000000E+00 0. -1.
         22    1    3    3    0    0 -0.47686433019E+02  0.10431357147E+02 -0.38788387492E+03  0.39094335847E+03  0.00000000000E+00 0. -1.
</event>
<event>
 7    1  0.5977291E-006  0.8543347E+02  0.7818608E-02  0.1372347E+00
          2   -1    0    0  502    0  0.00000000000E+00  0.00000000000E+00  0.83052511323E+02  0.83052511323E+02  0.00000000000E+00 0. -1.
          1   -1    0    0  501    0 -0.00000000000E+00 -0.00000000000E+00 -0.22644387671E+04  0.22644387671E+04  0.00000000000E+00 0. -1.
         25    2    1    2    0    0 -0.40459998047E+02  0.12196192266E+03 -0.11777064934E+04  0.11912712909E+04  0.12499192691E+03 0.  0.
          2    1    1    2  501    0  0.24734401088E+02 -0.72615115678E+02 -0.10696225121E+04  0.10723698355E+04  0.00000000000E+00 0. -1.
          1    1    1    2  502    0  0.15725596958E+02 -0.49346806987E+02  0.65942749748E+02  0.83850152080E+02  0.00000000000E+00 0. -1.
         22    1    3    3    0    0  0.20368970585E+02  0.10825918244E+03 -0.89601856873E+03  0.90276476507E+03  0.00000000000E+00 0. -1.
         22    1    3    3    0    0 -0.60828968631E+02  0.13702740229E+02 -0.28168792468E+03  0.28850652580E+03  0.00000000000E+00 0. -1.
</event>
<event>
 7    1  0.5977291E-006  0.1474552E+03  0.7818608E-02  0.1260590E+00
          2   -1    0    0  502    0  0.00000000000E+00  0.00000000000E+00  0.17386936848E+04  0.17386936848E+04  0.00000000000E+00 0. -1.
          1   -1    0    0  501    0 -0.00000000000E+00 -0.00000000000E+00 -0.16849314835E+03  0.16849314835E+03  0.00000000000E+00 0. -1.
         25    2    1    2    0    0 -0.15005478490E+03  0.43514635121E+02  0.29298457746E+03  0.35477341217E+03  0.12495699025E+03 0.  0.
          2    1    1    2  501    0  0.14384824959E+03  0.38292847621E+02 -0.95753131347E+02  0.17699526336E+03  0.00000000000E+00 0. -1.
          1    1    1    2  502    0  0.62065353087E+01 -0.81807482741E+02  0.13729690904E+04  0.13754181576E+04  0.00000000000E+00 0. -1.
         22    1    3    3    0    0  0.13461704993E+02 -0.13171478908E+00 -0.30248635842E+01  0.13797994412E+02  0.00000000000E+00 0.  1.
         22    1    3    3    0    0 -0.16351648989E+03  0.43646349910E+02  0.29600944104E+03  0.34097541775E+03  0.00000000000E+00 0.  1.
</event>
<event>
 7    1  0.5977291E-006  0.5679946E+02  0.7818608E-02  0.1553243E+00
          2   -1    0    0  502    0  0.00000000000E+00  0.00000000000E+00  0.43875855080E+02  0.43875855080E+02  0.00000000000E+00 0. -1.
          1   -1    0    0  501    0 -0.00000000000E+00 -0.00000000000E+00 -0.49074649316E+03  0.49074649316E+03  0.00000000000E+00 0. -1.
         25    2    1    2    0    0 -0.38293854694E+02 -0.28681527616E+02 -0.11641781335E+03  0.17738623714E+03  0.12499488201E+03 0.  0.
          2    1    1    2  501    0  0.55342916400E+02  0.16533494289E+02 -0.33128766476E+03  0.33628516418E+03  0.00000000000E+00 0. -1.
          1    1    1    2  502    0 -0.17049061705E+02  0.12148033327E+02  0.83484003008E+00  0.20950946915E+02  0.00000000000E+00 0. -1.
         22    1    3    3    0    0 -0.50216794290E+02 -0.15474005709E+02  0.67152808685E+01  0.52974203898E+02  0.00000000000E+00 0.  1.
         22    1    3    3    0    0  0.11922939596E+02 -0.13207521907E+02 -0.12313309422E+03  0.12441203324E+03  0.00000000000E+00 0.  1.
</event>
<event>
 7    1  0.5977291E-006  0.8712606E+02  0.7818608E-02  0.1385744E+00
          2   -1    0    0  502    0  0.00000000000E+00  0.00000000000E+00  0.21334396586E+04  0.21334396586E+04  0.00000000000E+00 0. -1.
          1   -1    0    0  501    0 -0.00000000000E+00 -0.00000000000E+00 -0.15921730406E+04  0.15921730406E+04  0.00000000000E+00 0. -1.
         25    2    1    2    0    0 -0.99338810930E+01 -0.63117087927E+02  0.20109982667E+03  0.24525218524E+03  0.12500018118E+03 0.  0.
          2    1    1    2  501    0 -0.45084020287E+02 -0.63042983852E+01 -0.15687396414E+04  0.15694000049E+04  0.00000000000E+00 0. -1.
          1    1    1    2  502    0  0.55017901380E+02  0.69421386312E+02  0.19089064327E+04  0.19109605090E+04  0.00000000000E+00 0. -1.
         22    1    3    3    0    0 -0.10351299736E+02 -0.46614640562E+02  0.45012888279E+01  0.47961815249E+02  0.00000000000E+00 0.  1.
         22    1    3    3    0    0  0.41741864252E+00 -0.16502447365E+02  0.19659853785E+03  0.19729036999E+03  0.00000000000E+00 0.  1.
</event>
<event>
 7    1  0.5977291E-006  0.8832622E+02  0.7818608E-02  0.1316433E+00
          2   -1    0    0  502    0  0.00000000000E+00  0.00000000000E+00  0.34463697489E+03  0.34463697489E+03  0.00000000000E+00 0. -1.
          1   -1    0    0  501    0 -0.00000000000E+00 -0.00000000000E+00 -0.59823280908E+03  0.59823280908E+03  0.00000000000E+00 0. -1.
         25    2    1    2    0    0  0.57773116888E+02  0.11423269848E+03 -0.43465222703E+02  0.18412057423E+03  0.12499727129E+03 0.  0.
          2    1    1    2  501    0 -0.75839302910E+02 -0.28638805041E+02 -0.47393516304E+03  0.48081838545E+03  0.00000000000E+00 0. -1.
          1    1    1    2  502    0  0.18066186022E+02 -0.85593893441E+02  0.26380455155E+03  0.27793082429E+03  0.00000000000E+00 0. -1.
         22    1    3    3    0    0  0.85020663611E+02  0.97085584472E+02  0.12069137766E+01  0.12905650156E+03  0.00000000000E+00 0.  1.
         22    1    3    3    0    0 -0.27247546723E+02  0.17147114011E+02 -0.44672136480E+02  0.55064072670E+02  0.00000000000E+00 0.  1.
</event>
<event>
 7    1  0.5977291E-006  0.8079170E+02  0.7818608E-02  0.1332152E+00
          2   -1    0    0  502    0  0.00000000000E+00  0.00000000000E+00  0.55927799006E+03  0.55927799006E+03  0.00000000000E+00 0. -1.
          1   -1    0    0  501    0 -0.00000000000E+00 -0.00000000000E+00 -0.34825285308E+03  0.34825285308E+03  0.00000000000E+00 0. -1.
         25    2    1    2    0    0  0.84637601908E+02  0.18973068435E+02  0.24793812366E+03  0.29089488660E+03  0.12499208335E+03 0.  0.
          2    1    1    2  501    0 -0.31643911475E+02 -0.74955447074E+02 -0.31641008692E+03  0.32670322815E+03  0.00000000000E+00 0. -1.
          1    1    1    2  502    0 -0.52993690433E+02  0.55982378639E+02  0.27949710024E+03  0.28993272838E+03  0.00000000000E+00 0. -1.
         22    1    3    3    0    0  0.82785954517E+01  0.46974360972E+02  0.25569555478E+02  0.54119570386E+02  0.00000000000E+00 0.  1.
         22    1    3    3    0    0  0.76359006456E+02 -0.28001292537E+02  0.22236856819E+03  0.23677531621E+03  0.00000000000E+00 0.  1.
</event>
<event>
 7    1  0.5977291E-006  0.7078878E+02  0.7818608E-02  0.1400282E+00
          2   -1    0    0  502    0  0.00000000000E+00  0.00000000000E+00  0.14868640075E+04  0.14868640075E+04  0.00000000000E+00 0. -1.
          1   -1    0    0  501    0 -0.00000000000E+00 -0.00000000000E+00 -0.11623202879E+03  0.11623202879E+03  0.00000000000E+00 0. -1.
         25    2    1    2    0    0 -0.28978986561E+02 -0.20751969430E+02  0.15278189550E+03  0.20059401467E+03  0.12500090092E+03 0.  0.
          2    1    1    2  501    0  0.23922725239E+02  0.70372072062E+02 -0.76808258868E+02  0.10688327250E+03  0.00000000000E+00 0. -1.
          1    1    1    2  502    0  0.50562613214E+01 -0.49620102632E+02  0.12946583420E+04  0.12956187491E+04  0.00000000000E+00 0. -1.
         22    1    3    3    0    0 -0.75131858108E+02 -0.17107017622E+02  0.12427455268E+03  0.14622452120E+03  0.00000000000E+00 0.  1.
         22    1    3    3    0    0  0.46152871547E+02 -0.36449518077E+01  0.28507342818E+02  0.54369493471E+02  0.00000000000E+00 0.  1.
</event>
<event>
 7    1  0.5977291E-006  0.1696051E+03  0.7818608E-02  0.1209094E+00
          2   -1    0    0  502    0  0.00000000000E+00  0.00000000000E+00  0.16845217337E+04  0.16845217337E+04  0.00000000000E+00 0. -1.
          1   -1    0    0  501    0 -0.00000000000E+00 -0.00000000000E+00 -0.71790172478E+03  0.71790172478E+03  0.00000000000E+00 0. -1.
         25    2    1    2    0    0 -0.10732108635E+03 -0.14234561535E+03 -0.80484777154E+01  0.21787603491E+03  0.12500039523E+03 0.  0.
          2    1    1    2  501    0 -0.96741667192E+01  0.17280984661E+03 -0.59017990322E+03  0.61503589387E+03  0.00000000000E+00 0. -1.
          1    1    1    2  502    0  0.11699525307E+03 -0.30464231259E+02  0.15648483898E+04  0.15695115297E+04  0.00000000000E+00 0. -1.
         22    1    3    3    0    0  0.39540361080E+01 -0.90649142104E+02 -0.24741751484E+02  0.94048155921E+02  0.00000000000E+00 0.  1.
         22    1    3    3    0    0 -0.11127512246E+03 -0.51696473245E+02  0.16693273769E+02  0.12382787899E+03  0.00000000000E+00 0.  1.
</event>
<event>
 7    1  0.5977291E-006  0.8077969E+02  0.7818608E-02  0.1346796E+00
          2   -1    0    0  502    0  0.00000000000E+00  0.00000000000E+00  0.65437560683E+03  0.65437560683E+03  0.00000000000E+00 0. -1.
          1   -1    0    0  501    0 -0.00000000000E+00 -0.00000000000E+00 -0.20986010685E+03  0.20986010685E+03  0.00000000000E+00 0. -1.
         25    2    1    2    0    0 -0.65684581417E+02  0.32266506514E+02  0.77646586868E+02  0.16434282197E+03  0.12499591595E+03 0.  0.
          2    1    1    2  501    0  0.18924221660E+02 -0.81506827626E+02 -0.15365358205E+03  0.17495974506E+03  0.00000000000E+00 0. -1.
          1    1    1    2  502    0  0.46760359757E+02  0.49240321111E+02  0.52052249516E+03  0.52493314664E+03  0.00000000000E+00 0. -1.
         22    1    3    3    0    0 -0.13832946208E+02 -0.33163704681E+02  0.72239821950E+02  0.80683167912E+02  0.00000000000E+00 0. -1.
         22    1    3    3    0    0 -0.51851635209E+02  0.65430211195E+02  0.54067649183E+01  0.83659654062E+02  0.00000000000E+00 0. -1.
</event>
<event>
 7    1  0.5977291E-006  0.9517311E+02  0.7818608E-02  0.1362480E+00
          2   -1    0    0  502    0  0.00000000000E+00  0.00000000000E+00  0.30622756122E+04  0.30622756122E+04  0.00000000000E+00 0. -1.
          1   -1    0    0  501    0 -0.00000000000E+00 -0.00000000000E+00 -0.27768954681E+02  0.27768954681E+02  0.00000000000E+00 0. -1.
         25    2    1    2    0    0  0.40285283450E+01 -0.13099313171E+03  0.17009131334E+04  0.17105284293E+04  0.12500636145E+03 0.  0.
          2    1    1    2  501    0  0.15893126826E+02  0.47896750321E+02  0.79093324237E+01  0.51080795912E+02  0.00000000000E+00 0. -1.
          1    1    1    2  502    0 -0.19921655171E+02  0.83096381384E+02  0.13256841917E+04  0.13284353417E+04  0.00000000000E+00 0. -1.
         22    1    3    3    0    0  0.29395176142E+02 -0.82884750665E+02  0.14940294185E+04  0.14966154688E+04  0.00000000000E+00 0.  1.
         22    1    3    3    0    0 -0.25366647797E+02 -0.48108381040E+02  0.20688371494E+03  0.21391296047E+03  0.00000000000E+00 0.  1.
</event>
<event>
 7    1  0.5977291E-006  0.5751129E+02  0.7818608E-02  0.1512801E+00
          2   -1    0    0  502    0  0.00000000000E+00  0.00000000000E+00  0.15497422245E+04  0.15497422245E+04  0.00000000000E+00 0. -1.
          1   -1    0    0  501    0 -0.00000000000E+00 -0.00000000000E+00 -0.30059069959E+02  0.30059069959E+02  0.00000000000E+00 0. -1.
         25    2    1    2    0    0  0.41330128702E+02 -0.65693217044E+02  0.89992781759E+03  0.91187596460E+03  0.12499567849E+03 0.  0.
          2    1    1    2  501    0 -0.41804430828E+01  0.26643042058E+02 -0.15017534718E+02  0.30868335613E+02  0.00000000000E+00 0. -1.
          1    1    1    2  502    0 -0.37149685619E+02  0.39050174986E+02  0.63477287169E+03  0.63705699427E+03  0.00000000000E+00 0. -1.
         22    1    3    3    0    0  0.58061453063E+02 -0.15365270683E+02  0.75777916871E+03  0.76015557119E+03  0.00000000000E+00 0.  1.
         22    1    3    3    0    0 -0.16731324361E+02 -0.50327946361E+02  0.14214864888E+03  0.15172039342E+03  0.00000000000E+00 0.  1.
</event>
<event>
 7    1  0.1427805E-005  0.1124170E+03  0.7818608E-02  0.1303750E+00
          2   -1    0    0  502    0  0.00000000000E+00  0.00000000000E+00  0.18091136828E+04  0.18091136828E+04  0.00000000000E+00 0. -1.
          1   -1    0    0  501    0 -0.00000000000E+00 -0.00000000000E+00 -0.12375738471E+04  0.12375738471E+04  0.00000000000E+00 0. -1.
         25    2    1    2    0    0 -0.46683181947E+02 -0.14673257156E+02 -0.43480315301E+03  0.45505428742E+03  0.12500399467E+03 0.  0.
          2    1    1    2  501    0 -0.36317569456E+02 -0.61545533602E+02 -0.78926459338E+03  0.79249316522E+03  0.00000000000E+00 0. -1.
          1    1    1    2  502    0  0.83000751403E+02  0.76218790758E+02  0.17956075820E+04  0.17991400772E+04  0.00000000000E+00 0. -1.
         22    1    3    3    0    0  0.12511455475E+02 -0.57865358888E+02 -0.15837496308E+03  0.16907857702E+03  0.00000000000E+00 0. -1.
         22    1    3    3    0    0 -0.59194637423E+02  0.43192101732E+02 -0.27642818993E+03  0.28597571040E+03  0.00000000000E+00 0. -1.
</event>
<event>
 7    1  0.6519802E-006  0.5719993E+02  0.7818608E-02  0.1455681E+00
          2   -1    0    0  502    0  0.00000000000E+00  0.00000000000E+00  0.32703010942E+04  0.32703010942E+04  0.00000000000E+00 0. -1.
          1   -1    0    0  501    0 -0.00000000000E+00 -0.00000000000E+00 -0.94631267396E+03  0.94631267396E+03  0.00000000000E+00 0. -1.
         25    2    1    2    0    0  0.33820599500E+01  0.93293338776E+02  0.14378362100E+02  0.15667687877E+03  0.12500328658E+03 0.  0.
          2    1    1    2  501    0  0.12595253697E+02 -0.38494941264E+02 -0.87443885485E+03  0.87537638293E+03  0.00000000000E+00 0. -1.
          1    1    1    2  502    0 -0.15977313647E+02 -0.54798397512E+02  0.31840489130E+04  0.31845605065E+04  0.00000000000E+00 0. -1.
         22    1    3    3    0    0  0.57359353176E+02  0.62069944073E+02 -0.18005933921E+02  0.86411729588E+02  0.00000000000E+00 0.  1.
         22    1    3    3    0    0 -0.53977293226E+02  0.31223394703E+02  0.32384296021E+02  0.70265149182E+02  0.00000000000E+00 0.  1.
</event>
<event>
 7    1  0.5977291E-006  0.4414029E+02  0.7818608E-02  0.1536947E+00
          2   -1    0    0  502    0  0.00000000000E+00  0.00000000000E+00  0.42209548836E+03  0.42209548836E+03  0.00000000000E+00 0. -1.
          1   -1    0    0  501    0 -0.00000000000E+00 -0.00000000000E+00 -0.41241363432E+03  0.41241363432E+03  0.00000000000E+00 0. -1.
         25    2    1    2    0    0  0.40696328747E+02  0.12865701342E+02 -0.39744719722E+01  0.13214473704E+03  0.12499887062E+03 0.  0.
          2    1    1    2  501    0 -0.23726572686E+02 -0.37521289054E+02 -0.34229251754E+03  0.34515933269E+03  0.00000000000E+00 0. -1.
          1    1    1    2  502    0 -0.16969756061E+02  0.24655587712E+02  0.35594884354E+03  0.35720505294E+03  0.00000000000E+00 0. -1.
         22    1    3    3    0    0 -0.41684127496E+02  0.24197442863E+02 -0.81557074754E+01  0.48883517576E+02  0.00000000000E+00 0.  1.
         22    1    3    3    0    0  0.82380456243E+02 -0.11331741520E+02  0.41812355032E+01  0.83261219466E+02  0.00000000000E+00 0.  1.
</event>
<event>
 7    1  0.5977291E-006  0.4657936E+02  0.7818608E-02  0.1474394E+00
          2   -1    0    0  502    0  0.00000000000E+00  0.00000000000E+00  0.23582107725E+03  0.23582107725E+03  0.00000000000E+00 0. -1.
          1   -1    0    0  501    0 -0.00000000000E+00 -0.00000000000E+00 -0.16583733839E+04  0.16583733839E+04  0.00000000000E+00 0. -1.
         25    2    1    2    0    0  0.48701660844E+02  0.67587285395E+02 -0.14003778225E+03  0.20536810701E+03  0.12500234400E+03 0.  0.
          2    1    1    2  501    0 -0.38700961162E+02 -0.25295500153E+02 -0.14829819503E+04  0.14837024943E+04  0.00000000000E+00 0. -1.
          1    1    1    2  502    0 -0.10000699682E+02 -0.42291785241E+02  0.20046742581E+03  0.20512385991E+03  0.00000000000E+00 0. -1.
         22    1    3    3    0    0 -0.41591760494E+01  0.91772920200E+02 -0.80307524575E+02  0.12201994153E+03  0.00000000000E+00 0. -1.
         22    1    3    3    0    0  0.52860836894E+02 -0.24185634805E+02 -0.59730257671E+02  0.83348165483E+02  0.00000000000E+00 0. -1.
</event>
<event>
 7    1  0.5977291E-006  0.1035732E+03  0.7818608E-02  0.1277663E+00
          2   -1    0    0  502    0  0.00000000000E+00  0.00000000000E+00  0.12247828524E+04  0.12247828524E+04  0.00000000000E+00 0. -1.
          1   -1    0    0  501    0 -0.00000000000E+00 -0.00000000000E+00 -0.14381307863E+03  0.14381307863E+03  0.00000000000E+00 0. -1.
         25    2    1    2    0    0 -0.19354698077E+01  0.52324783122E+02  0.65527947176E+02  0.15053457032E+03  0.12500046411E+03 0.  0.
          2    1    1    2  501    0 -0.87903619158E+02 -0.93925908663E+02 -0.57252291136E+02  0.14080819372E+03  0.00000000000E+00 0. -1.
          1    1    1    2  502    0  0.89839088966E+02  0.41601125541E+02  0.10726941177E+04  0.10772531670E+04  0.00000000000E+00 0. -1.
         22    1    3    3    0    0  0.25819454292E+02  0.32641435462E+02 -0.28564962551E+02  0.50478357882E+02  0.00000000000E+00 0.  1.
         22    1    3    3    0    0 -0.27754924100E+02  0.19683347660E+02  0.94092909727E+02  0.10005621244E+03  0.00000000000E+00 0.  1.
</event>
<event>
 7    1  0.5977291E-006  0.7603938E+02  0.7818608E-02  0.1365154E+00
          2   -1    0    0  502    0  0.00000000000E+00  0.00000000000E+00  0.10569478888E+04  0.10569478888E+04  0.00000000000E+00 0. -1.
          1   -1    0    0  501    0 -0.00000000000E+00 -0.00000000000E+00 -0.20539259881E+03  0.20539259881E+03  0.00000000000E+00 0. -1.
         25    2    1    2    0    0  0.23667353171E+02 -0.55996683884E+02 -0.32161508572E+02  0.14267331184E+03  0.12500215624E+03 0.  0.
          2    1    1    2  501    0 -0.79490296917E+02  0.29557586973E+02 -0.10164094209E+03  0.13237537294E+03  0.00000000000E+00 0. -1.
          1    1    1    2  502    0  0.55822943746E+02  0.26439096911E+02  0.98535774063E+03  0.98729180282E+03  0.00000000000E+00 0. -1.
         22    1    3    3    0    0 -0.12639294052E+02  0.23320950484E+02  0.26544585370E+02  0.37526437322E+02  0.00000000000E+00 0. -1.
         22    1    3    3    0    0  0.36306647224E+02 -0.79317634369E+02 -0.58706093942E+02  0.10514687452E+03  0.00000000000E+00 0. -1.
</event>
<event>
 7    1  0.5977291E-006  0.5504146E+02  0.7818608E-02  0.1492712E+00
          2   -1    0    0  502    0  0.00000000000E+00  0.00000000000E+00  0.94237383962E+03  0.94237383962E+03  0.00000000000E+00 0. -1.
          1   -1    0    0  501    0 -0.00000000000E+00 -0.00000000000E+00 -0.76522990662E+03  0.76522990662E+03  0.00000000000E+00 0. -1.
         25    2    1    2    0    0  0.36864057546E+02 -0.17555142567E+00  0.45380464128E+03  0.47214787673E+03  0.12500390192E+03 0.  0.
          2    1    1    2  501    0  0.15287064577E+02 -0.28491660415E+02 -0.75386353404E+03  0.75455662280E+03  0.00000000000E+00 0. -1.
          1    1    1    2  502    0 -0.52151122123E+02  0.28667211841E+02  0.47720282576E+03  0.48089924671E+03  0.00000000000E+00 0. -1.
         22    1    3    3    0    0  0.79837931241E+02 -0.13156779800E+02  0.22821254657E+03  0.24213253092E+03  0.00000000000E+00 0.  1.
         22    1    3    3    0    0 -0.42973873695E+02  0.12981228374E+02  0.22559209471E+03  0.23001534580E+03  0.00000000000E+00 0.  1.
</event>
<event>
 7    1  0.5977291E-006  0.1494767E+03  0.7818608E-02  0.1334393E+00
          2   -1    0    0  502    0  0.00000000000E+00  0.00000000000E+00  0.10012320627E+04  0.10012320627E+04  0.00000000000E+00 0. -1.
          1   -1    0    0  501    0 -0.00000000000E+00 -0.00000000000E+00 -0.29958105634E+04  0.29958105634E+04  0.00000000000E+00 0. -1.
         25    2    1    2    0    0  0.95689389112E+02  0.56370141597E+02  0.36387073746E+03  0.40045528683E+03  0.12501388370E+03 0.  0.
          2    1    1    2  501    0 -0.12040322893E+03 -0.88903355655E+02 -0.29749609133E+04  0.29787234145E+04  0.00000000000E+00 0. -1.
          1    1    1    2  502    0  0.24713839818E+02  0.32533214057E+02  0.61651167519E+03  0.61786392477E+03  0.00000000000E+00 0. -1.
         22    1    3    3    0    0  0.12489050202E+03  0.55712922310E+02  0.27929409916E+03  0.31097710692E+03  0.00000000000E+00 0. -1.
         22    1    3    3    0    0 -0.29201112908E+02  0.65721928707E+00  0.84576638305E+02  0.89478179906E+02  0.00000000000E+00 0. -1.
</event>
<event>
 7    1  0.5977291E-006  0.4720068E+02  0.7818608E-02  0.1537296E+00
          2   -1    0    0  502    0  0.00000000000E+00  0.00000000000E+00  0.28860996016E+03  0.28860996016E+03  0.00000000000E+00 0. -1.
          1   -1    0    0  501    0 -0.00000000000E+00 -0.00000000000E+00 -0.24899429856E+03  0.24899429856E+03  0.00000000000E+00 0. -1.
         25    2    1    2    0    0 -0.20764345878E+02 -0.51368755781E+02 -0.26464062240E+01  0.13675853083E+03  0.12500394057E+03 0.  0.
          2    1    1    2  501    0 -0.16537824886E+02  0.22503236732E+02 -0.17566597989E+03  0.17787195339E+03  0.00000000000E+00 0. -1.
          1    1    1    2  502    0  0.37302170763E+02  0.28865519049E+02  0.21792804771E+03  0.22297377449E+03  0.00000000000E+00 0. -1.
         22    1    3    3    0    0  0.19130261522E+02  0.31138591687E+02 -0.22594801512E+02  0.42966310681E+02  0.00000000000E+00 0.  1.
         22    1    3    3    0    0 -0.39894607400E+02 -0.82507347468E+02  0.19948395288E+02  0.93792220148E+02  0.00000000000E+00 0.  1.
</event>
<event>
 7    1  0.5977291E-006  0.6771583E+02  0.7818608E-02  0.1395044E+00
          2   -1    0    0  502    0  0.00000000000E+00  0.00000000000E+00  0.57877098058E+03  0.57877098058E+03  0.00000000000E+00 0. -1.
          1   -1    0    0  501    0 -0.00000000000E+00 -0.00000000000E+00 -0.71831104924E+03  0.71831104924E+03  0.00000000000E+00 0. -1.
         25    2    1    2    0    0  0.10896008785E+03 -0.51814543223E+02 -0.24980040714E+02  0.17552232716E+03  0.12500814880E+03 0.  0.
          2    1    1    2  501    0 -0.47267991430E+02  0.26838516000E+02 -0.61465577410E+03  0.61705452724E+03  0.00000000000E+00 0. -1.
          1    1    1    2  502    0 -0.61692096417E+02  0.24976027223E+02  0.50009574616E+03  0.50450517542E+03  0.00000000000E+00 0. -1.
         22    1    3    3    0    0 -0.13028545135E+02  0.37917207650E+00 -0.39924265823E+02  0.41998020921E+02  0.00000000000E+00 0. -1.
         22    1    3    3    0    0  0.12198863298E+03 -0.52193715299E+02  0.14944225109E+02  0.13352430624E+03  0.00000000000E+00 0. -1.
</event>
<event>
 7    1  0.5977291E-006  0.1035677E+03  0.7818608E-02  0.1304340E+00
          2   -1    0    0  502    0  0.00000000000E+00  0.00000000000E+00  0.74515729929E+03  0.74515729929E+03  0.00000000000E+00 0. -1.
          1   -1    0    0  501    0 -0.00000000000E+00 -0.00000000000E+00 -0.98902214045E+03  0.98902214045E+03  0.00000000000E+00 0. -1.
         25    2    1    2    0    0 -0.71066010026E+01 -0.65096891880E+02 -0.14158221249E+03  0.19989575958E+03  0.12499873077E+03 0.  0.
          2    1    1    2  501    0  0.83946883723E+02  0.72001101732E+02 -0.81244755330E+03  0.81994040320E+03  0.00000000000E+00 0. -1.
          1    1    1    2  502    0 -0.76840282720E+02 -0.69042098521E+01  0.71016492463E+03  0.71434327695E+03  0.00000000000E+00 0. -1.
         22    1    3    3    0    0 -0.34112529067E+02  0.79124781103E+01  0.35574815063E+01  0.35198403712E+02  0.00000000000E+00 0. -1.
         22    1    3    3    0    0  0.27005928064E+02 -0.73009369990E+02 -0.14513969400E+03  0.16469735587E+03  0.00000000000E+00 0. -1.
</event>
<event>
 7    1  0.5977291E-006  0.2648913E+03  0.7818608E-02  0.1333029E+00
          2   -1    0    0  502    0  0.00000000000E+00  0.00000000000E+00  0.18095029865E+04  0.18095029865E+04  0.00000000000E+00 0. -1.
          1   -1    0    0  501    0 -0.00000000000E+00 -0.00000000000E+00 -0.13360972157E+04  0.13360972157E+04  0.00000000000E+00 0. -1.
         25    2    1    2    0    0 -0.17455520392E+03  0.20160355120E+03 -0.91793974381E+03  0.96402886358E+03  0.12499906190E+03 0.  0.
          2    1    1    2  501    0 -0.15676396045E+02 -0.17280158793E+02 -0.38493900949E+03  0.38564542563E+03  0.00000000000E+00 0. -1.
          1    1    1    2  502    0  0.19023159997E+03 -0.18432339240E+03  0.17762845240E+04  0.17959259130E+04  0.00000000000E+00 0. -1.
         22    1    3    3    0    0  0.19066731981E+02  0.26996266050E+02 -0.12669710772E+03  0.13093699154E+03  0.00000000000E+00 0. -1.
         22    1    3    3    0    0 -0.19362193590E+03  0.17460728515E+03 -0.79124263609E+03  0.83309187204E+03  0.00000000000E+00 0. -1.
</event>
<event>
 7    1  0.5977291E-006  0.4804052E+02  0.7818608E-02  0.1520851E+00
          2   -1    0    0  502    0  0.00000000000E+00  0.00000000000E+00  0.77222373950E+03  0.77222373950E+03  0.00000000000E+00 0. -1.
          1   -1    0    0  501    0 -0.00000000000E+00 -0.00000000000E+00 -0.70822171250E+02  0.70822171250E+02  0.00000000000E+00 0. -1.
         25    2    1    2    0    0  0.32598983859E+02 -0.40547667024E+02  0.12114774304E+03  0.18168191481E+03  0.12499894189E+03 0.  0.
          2    1    1    2  501    0 -0.46617980241E+02  0.13362602675E+02 -0.25532445156E+02  0.54806030577E+02  0.00000000000E+00 0. -1.
          1    1    1    2  502    0  0.14018996381E+02  0.27185064349E+02  0.60578627037E+03  0.60655796537E+03  0.00000000000E+00 0. -1.
         22    1    3    3    0    0 -0.64131870386E+01 -0.63252373579E+02  0.13556754674E+02  0.65005979177E+02  0.00000000000E+00 0.  1.
         22    1    3    3    0    0  0.39012170898E+02  0.22704706555E+02  0.10759098836E+03  0.11667593563E+03  0.00000000000E+00 0.  1.
</event>
<event>
 7    1  0.5977291E-006  0.8611332E+02  0.7818608E-02  0.1384311E+00
          2   -1    0    0  502    0  0.00000000000E+00  0.00000000000E+00  0.33165788309E+03  0.33165788309E+03  0.00000000000E+00 0. -1.
          1   -1    0    0  501    0 -0.00000000000E+00 -0.00000000000E+00 -0.28861582289E+04  0.28861582289E+04  0.00000000000E+00 0. -1.
         25    2    1    2    0    0  0.81754289097E+02 -0.10883551001E+02 -0.12887810212E+03  0.19757805037E+03  0.12500122125E+03 0.  0.
          2    1    1    2  501    0 -0.14769539260E+02 -0.44192298354E+02 -0.27164024332E+04  0.27168020314E+04  0.00000000000E+00 0. -1.
          1    1    1    2  502    0 -0.66984749837E+02  0.55075849355E+02  0.29078018947E+03  0.30343603030E+03  0.00000000000E+00 0. -1.
         22    1    3    3    0    0  0.22541194105E+02 -0.72917483216E+01  0.23921122958E+02  0.33667419694E+02  0.00000000000E+00 0. -1.
         22    1    3    3    0    0  0.59213094992E+02 -0.35918026796E+01 -0.15279922507E+03  0.16391063068E+03  0.00000000000E+00 0. -1.
</event>
<event>
 7    1  0.5977291E-006  0.8942442E+02  0.7818608E-02  0.1388585E+00
          2   -1    0    0  502    0  0.00000000000E+00  0.00000000000E+00  0.23775875522E+04  0.23775875522E+04  0.00000000000E+00 0. -1.
          1   -1    0    0  501    0 -0.00000000000E+00 -0.00000000000E+00 -0.12497761678E+03  0.12497761678E+03  0.00000000000E+00 0. -1.
         25    2    1    2    0    0 -0.10180986627E+03 -0.50281551167E+02  0.23078714676E+03  0.28597582090E+03  0.12500391902E+03 0.  0.
          2    1    1    2  501    0  0.87555688134E+02  0.93447524925E+01 -0.77209524890E+02  0.11710949431E+03  0.00000000000E+00 0. -1.
          1    1    1    2  502    0  0.14254178140E+02  0.40936798675E+02  0.20990323135E+04  0.20994798538E+04  0.00000000000E+00 0. -1.
         22    1    3    3    0    0 -0.25544337349E+02 -0.23140525517E+02  0.19403510204E+03  0.19707262092E+03  0.00000000000E+00 0. -1.
         22    1    3    3    0    0 -0.76265528926E+02 -0.27141025650E+02  0.36752044723E+02  0.88903199982E+02  0.00000000000E+00 0. -1.
</event>
<event>
 7    1  0.5977291E-006  0.1968974E+03  0.7818608E-02  0.1229051E+00
          2   -1    0    0  502    0  0.00000000000E+00  0.00000000000E+00  0.22416763033E+04  0.22416763033E+04  0.00000000000E+00 0. -1.
          1   -1    0    0  501    0 -0.00000000000E+00 -0.00000000000E+00 -0.29354188501E+04  0.29354188501E+04  0.00000000000E+00 0. -1.
         25    2    1    2    0    0  0.13202901286E+03  0.25919131224E+01 -0.10775952534E+04  0.10928288236E+04  0.12499971762E+03 0.  0.
          2    1    1    2  501    0  0.52926292440E+02  0.65775851632E+02 -0.18448884536E+04  0.18468191740E+04  0.00000000000E+00 0. -1.
          1    1    1    2  502    0 -0.18495530530E+03 -0.68367764754E+02  0.22287411602E+04  0.22374471559E+04  0.00000000000E+00 0. -1.
         22    1    3    3    0    0  0.12607982519E+03  0.29788020696E+02 -0.10264901051E+04  0.10346329708E+04  0.00000000000E+00 0. -1.
         22    1    3    3    0    0  0.59491876698E+01 -0.27196107573E+02 -0.51105148313E+02  0.58195852817E+02  0.00000000000E+00 0. -1.
</event>
<event>
 7    1  0.5977291E-006  0.7669542E+02  0.7818608E-02  0.1385261E+00
          2   -1    0    0  502    0  0.00000000000E+00  0.00000000000E+00  0.29616170784E+03  0.29616170784E+03  0.00000000000E+00 0. -1.
          1   -1    0    0  501    0 -0.00000000000E+00 -0.00000000000E+00 -0.17982473951E+04  0.17982473951E+04  0.00000000000E+00 0. -1.
         25    2    1    2    0    0 -0.98412928088E+02  0.54334549125E+02 -0.31777511212E+03  0.35950389291E+03  0.12499871796E+03 0.  0.
          2    1    1    2  501    0  0.51582874290E+02  0.58737318275E+01 -0.14538521972E+04  0.14547788509E+04  0.00000000000E+00 0. -1.
          1    1    1    2  502    0  0.46830053799E+02 -0.60208280953E+02  0.26954162210E+03  0.28012635913E+03  0.00000000000E+00 0. -1.
         22    1    3    3    0    0 -0.37259190260E+02 -0.86154350997E+01 -0.10096084227E+02  0.39552546031E+02  0.00000000000E+00 0. -1.
         22    1    3    3    0    0 -0.61153737828E+02  0.62949984225E+02 -0.30767902789E+03  0.31995134688E+03  0.00000000000E+00 0. -1.
</event>
<event>
 7    1  0.5977291E-006  0.7507199E+02  0.7818608E-02  0.1510296E+00
          2   -1    0    0  502    0  0.00000000000E+00  0.00000000000E+00  0.36350570101E+03  0.36350570101E+03  0.00000000000E+00 0. -1.
          1   -1    0    0  501    0 -0.00000000000E+00 -0.00000000000E+00 -0.14509243769E+04  0.14509243769E+04  0.00000000000E+00 0. -1.
         25    2    1    2    0    0  0.42982843163E+02 -0.40642572350E+02 -0.10374669667E+04  0.10466431114E+04  0.12499900837E+03 0.  0.
          2    1    1    2  501    0  0.20978360553E+02  0.12154537210E+01 -0.40466139886E+03  0.40520663452E+03  0.00000000000E+00 0. -1.
          1    1    1    2  502    0 -0.63961203716E+02  0.39427118629E+02  0.35470968964E+03  0.36258033205E+03  0.00000000000E+00 0. -1.
         22    1    3    3    0    0  0.33475243799E+02 -0.64301100104E+02 -0.99093651699E+03  0.99358462354E+03  0.00000000000E+00 0. -1.
         22    1    3    3    0    0  0.95075993642E+01  0.23658527754E+02 -0.46530449709E+02  0.53058487834E+02  0.00000000000E+00 0. -1.
</event>
<event>
 7    1  0.5977291E-006  0.8379231E+02  0.7818608E-02  0.1495511E+00
          2   -1    0    0  502    0  0.00000000000E+00  0.00000000000E+00  0.26256306629E+03  0.26256306629E+03  0.00000000000E+00 0. -1.
          1   -1    0    0  501    0 -0.00000000000E+00 -0.00000000000E+00 -0.97384476592E+03  0.97384476592E+03  0.00000000000E+00 0. -1.
         25    2    1    2    0    0  0.91606509741E+01 -0.91479308219E+02 -0.44028604543E+02  0.16129293099E+03  0.12499804083E+03 0.  0.
          2    1    1    2  501    0  0.16781872878E+02  0.12341851864E+02 -0.86255041856E+03  0.86280193389E+03  0.00000000000E+00 0. -1.
          1    1    1    2  502    0 -0.25942523852E+02  0.79137456354E+02  0.19529732347E+03  0.21231296733E+03  0.00000000000E+00 0. -1.
         22    1    3    3    0    0  0.98263352109E+00 -0.12262118512E+03 -0.30451105228E+02  0.12634947732E+03  0.00000000000E+00 0. -1.
         22    1    3    3    0    0  0.81780174530E+01  0.31141876906E+02 -0.13577499315E+02  0.34943453669E+02  0.00000000000E+00 0. -1.
</event>
<event>
 7    1  0.5977291E-006  0.1122093E+03  0.7818608E-02  0.1333563E+00
          2   -1    0    0  502    0  0.00000000000E+00  0.00000000000E+00  0.45065752404E+03  0.45065752404E+03  0.00000000000E+00 0. -1.
          1   -1    0    0  501    0 -0.00000000000E+00 -0.00000000000E+00 -0.16366823348E+04  0.16366823348E+04  0.00000000000E+00 0. -1.
         25    2    1    2    0    0  0.82783252438E+02  0.32269127611E+02 -0.47380758030E+03  0.49800830000E+03  0.12499712092E+03 0.  0.
          2    1    1    2  501    0  0.29031886234E+02 -0.46503020251E+02 -0.11428638520E+04  0.11441779431E+04  0.00000000000E+00 0. -1.
          1    1    1    2  502    0 -0.11181513867E+03  0.14233892640E+02  0.43064662154E+03  0.44515361571E+03  0.00000000000E+00 0. -1.
         22    1    3    3    0    0  0.10496603959E+03  0.57239434624E+02 -0.38450143123E+03  0.40266061760E+03  0.00000000000E+00 0. -1.
         22    1    3    3    0    0 -0.22182787157E+02 -0.24970307013E+02 -0.89306149069E+02  0.95347682405E+02  0.00000000000E+00 0. -1.
</event>
<event>
 7    1  0.5977291E-006  0.2471382E+02  0.7818608E-02  0.1666587E+00
          2   -1    0    0  502    0  0.00000000000E+00  0.00000000000E+00  0.66495436003E+02  0.66495436003E+02  0.00000000000E+00 0. -1.
          1   -1    0    0  501    0 -0.00000000000E+00 -0.00000000000E+00 -0.12700578232E+04  0.12700578232E+04  0.00000000000E+00 0. -1.
         25    2    1    2    0    0 -0.44023517578E+01  0.15534765490E+02 -0.13502094275E+03  0.18470044001E+03  0.12499155139E+03 0.  0.
          2    1    1    2  501    0 -0.20652258791E+02 -0.13213512830E+02 -0.11062491417E+04  0.11065207979E+04  0.00000000000E+00 0. -1.
          1    1    1    2  502    0  0.25054610549E+02 -0.23212526602E+01  0.37707697233E+02  0.45332021291E+02  0.00000000000E+00 0. -1.
         22    1    3    3    0    0  0.43244033178E+02 -0.31838825111E+02 -0.34624588525E+02  0.63895377927E+02  0.00000000000E+00 0.  1.
         22    1    3    3    0    0 -0.47646384936E+02  0.47373590601E+02 -0.10039635423E+03  0.12080506209E+03  0.00000000000E+00 0.  1.
</event>
<event>
 7    1  0.5977291E-006  0.1458160E+03  0.7818608E-02  0.1322778E+00
          2   -1    0    0  502    0  0.00000000000E+00  0.00000000000E+00  0.31034720072E+03  0.31034720072E+03  0.00000000000E+00 0. -1.
          1   -1    0    0  501    0 -0.00000000000E+00 -0.00000000000E+00 -0.76440157987E+03  0.76440157987E+03  0.00000000000E+00 0. -1.
         25    2    1    2    0    0  0.10706540843E+02 -0.18640954819E+03 -0.98844720382E+02  0.24548827800E+03  0.12502426251E+03 0.  0.
          2    1    1    2  501    0 -0.15588894270E+02  0.14026985287E+03 -0.58143886969E+03  0.59832249200E+03  0.00000000000E+00 0. -1.
          1    1    1    2  502    0  0.48823534266E+01  0.46139695323E+02  0.22622921092E+03  0.23093801059E+03  0.00000000000E+00 0. -1.
         22    1    3    3    0    0 -0.16846253873E+02 -0.18642928443E+03 -0.10841823886E+03  0.21631964516E+03  0.00000000000E+00 0.  1.
         22    1    3    3    0    0  0.27552794716E+02  0.19736244779E-01  0.95735184739E+01  0.29168632846E+02  0.00000000000E+00 0.  1.
</event>
<event>
 7    1  0.5977291E-006  0.6518985E+02  0.7818608E-02  0.1415779E+00
          2   -1    0    0  502    0  0.00000000000E+00  0.00000000000E+00  0.24489338284E+03  0.24489338284E+03  0.00000000000E+00 0. -1.
          1   -1    0    0  501    0 -0.00000000000E+00 -0.00000000000E+00 -0.29820098094E+04  0.29820098094E+04  0.00000000000E+00 0. -1.
         25    2    1    2    0    0 -0.11710862919E+02 -0.60570711691E+02 -0.15579923797E+04  0.15642159020E+04  0.12500070984E+03 0.  0.
          2    1    1    2  501    0 -0.41896763699E+02  0.23372922869E+02 -0.14160898728E+04  0.14169023114E+04  0.00000000000E+00 0. -1.
          1    1    1    2  502    0  0.53607626618E+02  0.37197788822E+02  0.23696582595E+03  0.24578497878E+03  0.00000000000E+00 0. -1.
         22    1    3    3    0    0  0.54810243990E+02 -0.45188900576E+02 -0.82133703632E+03  0.82440325498E+03  0.00000000000E+00 0.  1.
         22    1    3    3    0    0 -0.66521106909E+02 -0.15381811115E+02 -0.73665534339E+03  0.73981264704E+03  0.00000000000E+00 0.  1.
</event>
<event>
 7    1  0.5977291E-006  0.6277836E+02  0.7818608E-02  0.1475946E+00
          2   -1    0    0  502    0  0.00000000000E+00  0.00000000000E+00  0.51572678404E+03  0.51572678404E+03  0.00000000000E+00 0. -1.
          1   -1    0    0  501    0 -0.00000000000E+00 -0.00000000000E+00 -0.20360742593E+03  0.20360742593E+03  0.00000000000E+00 0. -1.
         25    2    1    2    0    0  0.19430207564E+02 -0.52939855593E+02  0.11986831104E+03  0.18213581103E+03  0.12499952157E+03 0.  0.
          2    1    1    2  501    0  0.29611653919E+02  0.11838627791E+02 -0.16815695702E+03  0.17115421511E+03  0.00000000000E+00 0. -1.
          1    1    1    2  502    0 -0.49041861484E+02  0.41101227802E+02  0.36040800409E+03  0.36604418384E+03  0.00000000000E+00 0. -1.
         22    1    3    3    0    0 -0.46429791526E+02 -0.20839031282E+02  0.12934310697E+02  0.52509876776E+02  0.00000000000E+00 0. -1.
         22    1    3    3    0    0  0.65859999090E+02 -0.32100824312E+02  0.10693400034E+03  0.12962593425E+03  0.00000000000E+00 0. -1.
</event>
<event>
 7    1  0.5977291E-006  0.5558841E+02  0.7818608E-02  0.1452669E+00
          2   -1    0    0  502    0  0.00000000000E+00  0.00000000000E+00  0.49869755698E+03  0.49869755698E+03  0.00000000000E+00 0. -1.
          1   -1    0    0  501    0 -0.00000000000E+00 -0.00000000000E+00 -0.94200903821E+03  0.94200903821E+03  0.00000000000E+00 0. -1.
         25    2    1    2    0    0 -0.74749730306E+02 -0.42462522316E+01 -0.24035551240E+03  0.28107141678E+03  0.12499926460E+03 0.  0.
          2    1    1    2  501    0  0.30677791647E+02 -0.29566903357E+02 -0.67901290957E+03  0.68034833727E+03  0.00000000000E+00 0. -1.
          1    1    1    2  502    0  0.44071938659E+02  0.33813155589E+02  0.47605694073E+03  0.47928684114E+03  0.00000000000E+00 0. -1.
         22    1    3    3    0    0 -0.59581681442E+02 -0.31715276757E+02 -0.24039685898E+03  0.24969278194E+03  0.00000000000E+00 0.  1.
         22    1    3    3    0    0 -0.15168048864E+02  0.27469024526E+02  0.41346588860E-01  0.31378634838E+02  0.00000000000E+00 0.  1.
</event>
<event>
 7    1  0.5977291E-006  0.1036306E+03  0.7818608E-02  0.1418400E+00
          2   -1    0    0  502    0  0.00000000000E+00  0.00000000000E+00  0.67429548621E+03  0.67429548621E+03  0.00000000000E+00 0. -1.
          1   -1    0    0  501    0 -0.00000000000E+00 -0.00000000000E+00 -0.16821394624E+03  0.16821394624E+03  0.00000000000E+00 0. -1.
         25    2    1    2    0    0 -0.11302908148E+03 -0.69900679356E+01  0.41307517479E+03  0.44618070714E+03  0.12498675562E+03 0.  0.
          2    1    1    2  501    0  0.18663420232E+02 -0.22941711610E+02 -0.14003876839E+03  0.14312757260E+03  0.00000000000E+00 0. -1.
          1    1    1    2  502    0  0.94365661248E+02  0.29931779546E+02  0.23304513357E+03  0.25320115270E+03  0.00000000000E+00 0. -1.
         22    1    3    3    0    0 -0.74132448254E+02  0.46559262629E+02  0.13933343122E+03  0.16455148093E+03  0.00000000000E+00 0. -1.
         22    1    3    3    0    0 -0.38896633226E+02 -0.53549330564E+02  0.27374174357E+03  0.28162922620E+03  0.00000000000E+00 0. -1.
</event>
<event>
 7    1  0.5977291E-006  0.1026303E+03  0.7818608E-02  0.1356606E+00
          2   -1    0    0  502    0  0.00000000000E+00  0.00000000000E+00  0.57819295982E+03  0.57819295982E+03  0.00000000000E+00 0. -1.
          1   -1    0    0  501    0 -0.00000000000E+00 -0.00000000000E+00 -0.18697458983E+03  0.18697458983E+03  0.00000000000E+00 0. -1.
         25    2    1    2    0    0  0.48431109771E+02 -0.72351351189E+02  0.21985348442E+02  0.15390464449E+03  0.12499197429E+03 0.  0.
          2    1    1    2  501    0 -0.37460700860E+02 -0.31845214213E+02 -0.11011764086E+03  0.12059567407E+03  0.00000000000E+00 0. -1.
          1    1    1    2  502    0 -0.10970408911E+02  0.10419656540E+03  0.47935066241E+03  0.49066723109E+03  0.00000000000E+00 0. -1.
         22    1    3    3    0    0  0.88320384759E+02 -0.67865576581E+02  0.23078564411E+02  0.11374905267E+03  0.00000000000E+00 0.  1.
         22    1    3    3    0    0 -0.39889274988E+02 -0.44857746084E+01 -0.10932159689E+01  0.40155591815E+02  0.00000000000E+00 0.  1.
</event>
<event>
 7    1  0.5977291E-006  0.8971441E+02  0.7818608E-02  0.1317050E+00
          2   -1    0    0  502    0  0.00000000000E+00  0.00000000000E+00  0.20574370102E+03  0.20574370102E+03  0.00000000000E+00 0. -1.
          1   -1    0    0  501    0 -0.00000000000E+00 -0.00000000000E+00 -0.73301188660E+03  0.73301188660E+03  0.00000000000E+00 0. -1.
         25    2    1    2    0    0  0.36530245329E+02  0.39050924780E+01 -0.17962291693E+03  0.22189971342E+03  0.12500152783E+03 0.  0.
          2    1    1    2  501    0 -0.74343095073E+02 -0.73689986953E+02 -0.51823739513E+03  0.52870323213E+03  0.00000000000E+00 0. -1.
          1    1    1    2  502    0  0.37812849744E+02  0.69784894475E+02  0.17059212648E+03  0.18815264207E+03  0.00000000000E+00 0. -1.
         22    1    3    3    0    0  0.11068459624E+01  0.43281408653E+02 -0.15944904507E+03  0.16522258748E+03  0.00000000000E+00 0. -1.
         22    1    3    3    0    0  0.35423399367E+02 -0.39376316175E+02 -0.20173871863E+02  0.56677125935E+02  0.00000000000E+00 0. -1.
</event>
<event>
 7    1  0.5977291E-006  0.9437326E+02  0.7818608E-02  0.1343208E+00
          2   -1    0    0  502    0  0.00000000000E+00  0.00000000000E+00  0.87540804750E+03  0.87540804750E+03  0.00000000000E+00 0. -1.
          1   -1    0    0  501    0 -0.00000000000E+00 -0.00000000000E+00 -0.49314326965E+03  0.49314326965E+03  0.00000000000E+00 0. -1.
         25    2    1    2    0    0  0.41627830448E+02 -0.14791455288E+03  0.52837715426E+03  0.56428683287E+03  0.12500248553E+03 0.  0.
          2    1    1    2  501    0 -0.22198346666E+02  0.91205532272E+02 -0.46775644761E+03  0.47708207889E+03  0.00000000000E+00 0. -1.
          1    1    1    2  502    0 -0.19429483782E+02  0.56709020611E+02  0.32164407120E+03  0.32718240539E+03  0.00000000000E+00 0. -1.
         22    1    3    3    0    0 -0.68986944546E+01 -0.80006882464E+02  0.41940422039E+03  0.42702294237E+03  0.00000000000E+00 0. -1.
         22    1    3    3    0    0  0.48526524902E+02 -0.67907670419E+02  0.10897293386E+03  0.13726389050E+03  0.00000000000E+00 0. -1.
</event>
<event>
 7    1  0.5977291E-006  0.6289966E+02  0.7818608E-02  0.1441693E+00
          2   -1    0    0  502    0  0.00000000000E+00  0.00000000000E+00  0.17830887323E+04  0.17830887323E+04  0.00000000000E+00 0. -1.
          1   -1    0    0  501    0 -0.00000000000E+00 -0.00000000000E+00 -0.15821956384E+02  0.15821956384E+02  0.00000000000E+00 0. -1.
         25    2    1    2    0    0 -0.25699621685E+02 -0.14363706344E+02  0.98255157766E+03  0.99090735633E+03  0.12499199758E+03 0.  0.
          2    1    1    2  501    0  0.41371978997E+02  0.52075581922E+02  0.89077619282E+02  0.11116802209E+03  0.00000000000E+00 0. -1.
          1    1    1    2  502    0 -0.15672357312E+02 -0.37711875577E+02  0.69563757899E+03  0.69683531028E+03  0.00000000000E+00 0. -1.
         22    1    3    3    0    0  0.31851670315E+02 -0.45275079811E+02  0.62420362860E+03  0.62665343829E+03  0.00000000000E+00 0.  1.
         22    1    3    3    0    0 -0.57551292000E+02  0.30911373466E+02  0.35834794905E+03  0.36425391805E+03  0.00000000000E+00 0.  1.
</event>
<event>
 7    1  0.5977291E-006  0.3782302E+02  0.7818608E-02  0.1562288E+00
          2   -1    0    0  502    0  0.00000000000E+00  0.00000000000E+00  0.20908777455E+04  0.20908777455E+04  0.00000000000E+00 0. -1.
          1   -1    0    0  501    0 -0.00000000000E+00 -0.00000000000E+00 -0.71580134591E+03  0.71580134591E+03  0.00000000000E+00 0. -1.
         25    2    1    2    0    0 -0.36395792874E+01 -0.44894223647E+02  0.18222121461E+03  0.22552026162E+03  0.12500431789E+03 0.  0.
          2    1    1    2  501    0  0.25986947550E+02  0.14339531598E+02 -0.69364458015E+03  0.69427930055E+03  0.00000000000E+00 0. -1.
          1    1    1    2  502    0 -0.22347368263E+02  0.30554692048E+02  0.18864997651E+04  0.18868795292E+04  0.00000000000E+00 0. -1.
         22    1    3    3    0    0  0.57244116930E+02 -0.34710975801E+02  0.66481975481E+02  0.94348258214E+02  0.00000000000E+00 0.  1.
         22    1    3    3    0    0 -0.60883696217E+02 -0.10183247846E+02  0.11573923913E+03  0.13117200340E+03  0.00000000000E+00 0.  1.
</event>
<event>
 7    1  0.5977291E-006  0.1062793E+03  0.7818608E-02  0.1341427E+00
          2   -1    0    0  502    0  0.00000000000E+00  0.00000000000E+00  0.82368969477E+03  0.82368969477E+03  0.00000000000E+00 0. -1.
          1   -1    0    0  501    0 -0.00000000000E+00 -0.00000000000E+00 -0.64570550480E+03  0.64570550480E+03  0.00000000000E+00 0. -1.
         25    2    1    2    0    0 -0.52319062879E+02 -0.61254869932E+02 -0.33189110324E+03  0.36368341406E+03  0.12499791126E+03 0.  0.
          2    1    1    2  501    0  0.10303966946E+03  0.79943939971E+02 -0.28268087250E+03  0.31131444344E+03  0.00000000000E+00 0. -1.
          1    1    1    2  502    0 -0.50720606580E+02 -0.18689070039E+02  0.79255616571E+03  0.79439734206E+03  0.00000000000E+00 0. -1.
         22    1    3    3    0    0 -0.52208784162E+02 -0.69871665456E+02 -0.34050505768E+03  0.35149893469E+03  0.00000000000E+00 0. -1.
         22    1    3    3    0    0 -0.11027871692E+00  0.86167955236E+01  0.86139544418E+01  0.12184479374E+02  0.00000000000E+00 0. -1.
</event>
<event>
 7    1  0.5977291E-006  0.2961750E+03  0.7818608E-02  0.1303646E+00
          2   -1    0    0  502    0  0.00000000000E+00  0.00000000000E+00  0.46321704104E+03  0.46321704104E+03  0.00000000000E+00 0. -1.
          1   -1    0    0  501    0 -0.00000000000E+00 -0.00000000000E+00 -0.48420391363E+03  0.48420391363E+03  0.00000000000E+00 0. -1.
         25    2    1    2    0    0 -0.21533522752E+03  0.23378372860E+03 -0.26165563834E+03  0.43024497950E+03  0.12499190910E+03 0.  0.
          2    1    1    2  501    0  0.24307460378E+02 -0.12094485272E+02 -0.79149678843E+02  0.83676764188E+02  0.00000000000E+00 0. -1.
          1    1    1    2  502    0  0.19102776715E+03 -0.22168924332E+03  0.31981844459E+03  0.43349921098E+03  0.00000000000E+00 0. -1.
         22    1    3    3    0    0 -0.18074400627E+03  0.22729159219E+03 -0.26719376765E+03  0.39461674211E+03  0.00000000000E+00 0.  1.
         22    1    3    3    0    0 -0.34591221255E+02  0.64921364019E+01  0.55381293129E+01  0.35628237386E+02  0.00000000000E+00 0.  1.
</event>
<event>
 7    1  0.5977291E-006  0.3200170E+02  0.7818608E-02  0.1581408E+00
          2   -1    0    0  502    0  0.00000000000E+00  0.00000000000E+00  0.17672606186E+04  0.17672606186E+04  0.00000000000E+00 0. -1.
          1   -1    0    0  501    0 -0.00000000000E+00 -0.00000000000E+00 -0.75807413807E+02  0.75807413807E+02  0.00000000000E+00 0. -1.
         25    2    1    2    0    0 -0.34733847417E+02  0.24689927869E+02  0.15436038861E+03  0.20314510434E+03  0.12499908460E+03 0.  0.
          2    1    1    2  501    0  0.30331021130E+02  0.70253443468E+01 -0.46525097194E+02  0.55981344883E+02  0.00000000000E+00 0. -1.
          1    1    1    2  502    0  0.44028262861E+01 -0.31715272216E+02  0.15836179133E+04  0.15839415831E+04  0.00000000000E+00 0. -1.
         22    1    3    3    0    0 -0.34662022040E+01  0.52042094691E+02  0.15292782907E+03  0.16157758223E+03  0.00000000000E+00 0.  1.
         22    1    3    3    0    0 -0.31267645213E+02 -0.27352166822E+02  0.14325595423E+01  0.41567522103E+02  0.00000000000E+00 0.  1.
</event>
<event>
 7    1  0.5977291E-006  0.6016655E+02  0.7818608E-02  0.1530087E+00
          2   -1    0    0  502    0  0.00000000000E+00  0.00000000000E+00  0.59818377642E+03  0.59818377642E+03  0.00000000000E+00 0. -1.
          1   -1    0    0  501    0 -0.00000000000E+00 -0.00000000000E+00 -0.19997414464E+04  0.19997414464E+04  0.00000000000E+00 0. -1.
         25    2    1    2    0    0 -0.49969080943E+02 -0.46809801731E+02  0.42100387441E+03  0.44447507122E+03  0.12500304029E+03 0.  0.
          2    1    1    2  501    0  0.27930596148E+02  0.53285329622E+02 -0.19867510159E+04  0.19876617025E+04  0.00000000000E+00 0. -1.
          1    1    1    2  502    0  0.22038484795E+02 -0.64755278913E+01  0.16418947153E+03  0.16578844904E+03  0.00000000000E+00 0. -1.
         22    1    3    3    0    0 -0.55077320730E+02  0.30228452819E+02  0.14847088474E+03  0.16121685468E+03  0.00000000000E+00 0. -1.
         22    1    3    3    0    0  0.51082397871E+01 -0.77038254551E+02  0.27253298967E+03  0.28325821654E+03  0.00000000000E+00 0. -1.
</event>
<event>
 7    1  0.1180948E-005  0.6070667E+02  0.7818608E-02  0.1487102E+00
          2   -1    0    0  502    0  0.00000000000E+00  0.00000000000E+00  0.19459319254E+04  0.19459319254E+04  0.00000000000E+00 0. -1.
          1   -1    0    0  501    0 -0.00000000000E+00 -0.00000000000E+00 -0.25224278735E+04  0.25224278735E+04  0.00000000000E+00 0. -1.
         25    2    1    2    0    0  0.13742363689E+02  0.86048084810E+02 -0.43385914245E+03  0.45983850979E+03  0.12499829655E+03 0.  0.
          2    1    1    2  501    0 -0.16790261344E+02 -0.25444169596E+02 -0.20749908261E+04  0.20752147472E+04  0.00000000000E+00 0. -1.
          1    1    1    2  502    0  0.30478976557E+01 -0.60603915214E+02  0.19323540205E+04  0.19333065419E+04  0.00000000000E+00 0. -1.
         22    1    3    3    0    0  0.52131822043E+02  0.39491583822E+02 -0.93088020083E+02  0.11376595073E+03  0.00000000000E+00 0. -1.
         22    1    3    3    0    0 -0.38389458354E+02  0.46556500988E+02 -0.34077112237E+03  0.34607255906E+03  0.00000000000E+00 0. -1.
</event>
<event>
 7    1  0.5977291E-006  0.7542328E+02  0.7818608E-02  0.1398498E+00
          2   -1    0    0  502    0  0.00000000000E+00  0.00000000000E+00  0.68661486675E+03  0.68661486675E+03  0.00000000000E+00 0. -1.
          1   -1    0    0  501    0 -0.00000000000E+00 -0.00000000000E+00 -0.65383676567E+03  0.65383676567E+03  0.00000000000E+00 0. -1.
         25    2    1    2    0    0 -0.22434716497E+02  0.18470422186E+02 -0.57250931934E+02  0.14051689940E+03  0.12499142695E+03 0.  0.
          2    1    1    2  501    0 -0.34317711039E+02  0.32810342676E+02 -0.55166186281E+03  0.55370121434E+03  0.00000000000E+00 0. -1.
          1    1    1    2  502    0  0.56752427536E+02 -0.51280764862E+02  0.64169089583E+03  0.64623351868E+03  0.00000000000E+00 0. -1.
         22    1    3    3    0    0  0.18380633558E+00 -0.49546569133E+02 -0.46660571426E+02  0.68059571138E+02  0.00000000000E+00 0. -1.
         22    1    3    3    0    0 -0.22618522833E+02  0.68016991320E+02 -0.10590360508E+02  0.72457328263E+02  0.00000000000E+00 0. -1.
</event>
<event>
 7    1  0.5977291E-006  0.7234140E+02  0.7818608E-02  0.1406710E+00
          2   -1    0    0  502    0  0.00000000000E+00  0.00000000000E+00  0.71361664008E+03  0.71361664008E+03  0.00000000000E+00 0. -1.
          1   -1    0    0  501    0 -0.00000000000E+00 -0.00000000000E+00 -0.39885539940E+02  0.39885539940E+02  0.00000000000E+00 0. -1.
         25    2    1    2    0    0  0.26886313081E+02  0.27201662026E+02  0.22214344542E+03  0.25773224310E+03  0.12496157225E+03 0.  0.
          2    1    1    2  501    0 -0.60405193877E+02 -0.59281700762E+02  0.65804929973E+02  0.10720725862E+03  0.00000000000E+00 0. -1.
          1    1    1    2  502    0  0.33518880796E+02  0.32080038736E+02  0.38578272474E+03  0.38856267830E+03  0.00000000000E+00 0. -1.
         22    1    3    3    0    0 -0.24051849928E+02  0.85552292115E+01  0.19575100464E+03  0.19740855921E+03  0.00000000000E+00 0. -1.
         22    1    3    3    0    0  0.50938163009E+02  0.18646432815E+02  0.26392440783E+02  0.60323683889E+02  0.00000000000E+00 0. -1.
</event>
<event>
 7    1  0.5977291E-006  0.4300726E+02  0.7818608E-02  0.1558943E+00
          2   -1    0    0  502    0  0.00000000000E+00  0.00000000000E+00  0.19815053391E+04  0.19815053391E+04  0.00000000000E+00 0. -1.
          1   -1    0    0  501    0 -0.00000000000E+00 -0.00000000000E+00 -0.14679004199E+03  0.14679004199E+03  0.00000000000E+00 0. -1.
         25    2    1    2    0    0  0.30456035947E+02 -0.58412598918E+02  0.46184389947E+03  0.48297461257E+03  0.12500034828E+03 0.  0.
          2    1    1    2  501    0 -0.28726262124E+02  0.31806969156E+02 -0.13273268624E+03  0.13948063457E+03  0.00000000000E+00 0. -1.
          1    1    1    2  502    0 -0.17297738225E+01  0.26605629762E+02  0.15056040839E+04  0.15058401339E+04  0.00000000000E+00 0. -1.
         22    1    3    3    0    0 -0.46717435647E+02 -0.40511934213E+02  0.18865883660E+03  0.19853436034E+03  0.00000000000E+00 0. -1.
         22    1    3    3    0    0  0.77173471594E+02 -0.17900664705E+02  0.27318506287E+03  0.28444025223E+03  0.00000000000E+00 0. -1.
</event>
<event>
 7    1  0.5977291E-006  0.6660519E+02  0.7818608E-02  0.1431203E+00
          2   -1    0    0  502    0  0.00000000000E+00  0.00000000000E+00  0.18834450063E+04  0.18834450063E+04  0.00000000000E+00 0. -1.
          1   -1    0    0  501    0 -0.00000000000E+00 -0.00000000000E+00 -0.49071372174E+02  0.49071372174E+02  0.00000000000E+00 0. -1.
         25    2    1    2    0    0  0.59781642971E+02 -0.18399436992E+02  0.76689731469E+03  0.77953084635E+03  0.12499786004E+03 0.  0.
          2    1    1    2  501    0  0.54435885261E+01  0.41371748677E+02 -0.31220259985E+02  0.52114862354E+02  0.00000000000E+00 0. -1.
          1    1    1    2  502    0 -0.65225231497E+02 -0.22972311686E+02  0.10986965794E+04  0.11008706697E+04  0.00000000000E+00 0. -1.
         22    1    3    3    0    0  0.63101295034E+02  0.44075584750E+02  0.44565151046E+03  0.45224959854E+03  0.00000000000E+00 0. -1.
         22    1    3    3    0    0 -0.33196520631E+01 -0.62475021741E+02  0.32124580424E+03  0.32728124781E+03  0.00000000000E+00 0. -1.
</event>
<event>
 7    1  0.5977291E-006  0.9481215E+02  0.7818608E-02  0.1306894E+00
          2   -1    0    0  502    0  0.00000000000E+00  0.00000000000E+00  0.41104519509E+03  0.41104519509E+03  0.00000000000E+00 0. -1.
          1   -1    0    0  501    0 -0.00000000000E+00 -0.00000000000E+00 -0.22627102176E+04  0.22627102176E+04  0.00000000000E+00 0. -1.
         25    2    1    2    0    0 -0.16773353658E+02  0.14407750876E+03 -0.61443007523E+00  0.19147993528E+03  0.12499805665E+03 0.  0.
          2    1    1    2  501    0  0.56148112676E+02 -0.60214641761E+02 -0.21590625315E+04  0.21606317198E+04  0.00000000000E+00 0. -1.
          1    1    1    2  502    0 -0.39374759017E+02 -0.83862866998E+02  0.30801193915E+03  0.32164375755E+03  0.00000000000E+00 0. -1.
         22    1    3    3    0    0 -0.18143893790E+02  0.62775543315E+02 -0.61627255249E+02  0.89821424560E+02  0.00000000000E+00 0. -1.
         22    1    3    3    0    0  0.13705401319E+01  0.81301965443E+02  0.61012825174E+02  0.10165851072E+03  0.00000000000E+00 0. -1.
</event>
<event>
 7    1  0.5977291E-006  0.8271934E+02  0.7818608E-02  0.1395050E+00
          2   -1    0    0  502    0  0.00000000000E+00  0.00000000000E+00  0.16321578106E+04  0.16321578106E+04  0.00000000000E+00 0. -1.
          1   -1    0    0  501    0 -0.00000000000E+00 -0.00000000000E+00 -0.14524627528E+03  0.14524627528E+03  0.00000000000E+00 0. -1.
         25    2    1    2    0    0 -0.30345728280E+02  0.32856298987E+02  0.97226077693E+03  0.98128613784E+03  0.12502426305E+03 0.  0.
          2    1    1    2  501    0  0.30751387685E+02 -0.77349599280E+02 -0.12758813610E+03  0.15233955765E+03  0.00000000000E+00 0. -1.
          1    1    1    2  502    0 -0.40565940550E+00  0.44493300293E+02  0.64223889444E+03  0.64377839034E+03  0.00000000000E+00 0. -1.
         22    1    3    3    0    0 -0.22881170449E+02 -0.38664762447E+02  0.62747307842E+03  0.62907946713E+03  0.00000000000E+00 0. -1.
         22    1    3    3    0    0 -0.74645578309E+01  0.71521061434E+02  0.34478769851E+03  0.35220667071E+03  0.00000000000E+00 0. -1.
</event>
<event>
 7    1  0.5977291E-006  0.1493204E+03  0.7818608E-02  0.1395853E+00
          2   -1    0    0  502    0  0.00000000000E+00  0.00000000000E+00  0.35383498682E+03  0.35383498682E+03  0.00000000000E+00 0. -1.
          1   -1    0    0  501    0 -0.00000000000E+00 -0.00000000000E+00 -0.23122705103E+03  0.23122705103E+03  0.00000000000E+00 0. -1.
         25    2    1    2    0    0 -0.37759080193E+02 -0.16403725680E+03  0.38115295147E+02  0.21310139402E+03  0.12500183461E+03 0.  0.
          2    1    1    2  501    0  0.31637564652E+02  0.14032296645E+03 -0.10676736473E+03  0.17913888630E+03  0.00000000000E+00 0. -1.
          1    1    1    2  502    0  0.61215155404E+01  0.23714290343E+02  0.19126000538E+03  0.19282175753E+03  0.00000000000E+00 0. -1.
         22    1    3    3    0    0 -0.39738759234E+01 -0.93226809622E+01 -0.36616601811E+02  0.37993151993E+02  0.00000000000E+00 0. -1.
         22    1    3    3    0    0 -0.33785204270E+02 -0.15471457584E+03  0.74731896957E+02  0.17510824203E+03  0.00000000000E+00 0. -1.
</event>
<event>
 7    1  0.5977291E-006  0.4846302E+02  0.7818608E-02  0.1556341E+00
          2   -1    0    0  502    0  0.00000000000E+00  0.00000000000E+00  0.66721661895E+03  0.66721661895E+03  0.00000000000E+00 0. -1.
          1   -1    0    0  501    0 -0.00000000000E+00 -0.00000000000E+00 -0.62165666388E+02  0.62165666388E+02  0.00000000000E+00 0. -1.
         25    2    1    2    0    0  0.10586678958E+02  0.61673943108E+02  0.12497513019E+03  0.18750622406E+03  0.12499619141E+03 0.  0.
          2    1    1    2  501    0 -0.23113546565E+02 -0.41138125348E+02 -0.12419441806E+02  0.48793687365E+02  0.00000000000E+00 0. -1.
          1    1    1    2  502    0  0.12526867607E+02 -0.20535817760E+02  0.49249526418E+03  0.49308237391E+03  0.00000000000E+00 0. -1.
         22    1    3    3    0    0 -0.53478613802E+01  0.92016458084E+02  0.49518895334E+02  0.10463149227E+03  0.00000000000E+00 0. -1.
         22    1    3    3    0    0  0.15934540338E+02 -0.30342514977E+02  0.75456234852E+02  0.82874731788E+02  0.00000000000E+00 0. -1.
</event>
<event>
 7    1  0.5977291E-006  0.1465875E+03  0.7818608E-02  0.1319821E+00
          2   -1    0    0  502    0  0.00000000000E+00  0.00000000000E+00  0.12846755123E+04  0.12846755123E+04  0.00000000000E+00 0. -1.
          1   -1    0    0  501    0 -0.00000000000E+00 -0.00000000000E+00 -0.39493889796E+03  0.39493889796E+03  0.00000000000E+00 0. -1.
         25    2    1    2    0    0 -0.55730873565E+02  0.11797331066E+03  0.80788517548E+03  0.82784466428E+03  0.12499879646E+03 0.  0.
          2    1    1    2  501    0  0.28246723403E+01  0.47302024116E+02 -0.36725609737E+03  0.37030055538E+03  0.00000000000E+00 0. -1.
          1    1    1    2  502    0  0.52906201225E+02 -0.16527533478E+03  0.44910753623E+03  0.48146919062E+03  0.00000000000E+00 0. -1.
         22    1    3    3    0    0 -0.80330751363E+02  0.57802183334E+02  0.64362787732E+03  0.65119195824E+03  0.00000000000E+00 0.  1.
         22    1    3    3    0    0  0.24599877799E+02  0.60171127328E+02  0.16425729816E+03  0.17665270604E+03  0.00000000000E+00 0.  1.
</event>
<event>
 7    1  0.5977291E-006  0.1924298E+03  0.7818608E-02  0.1316217E+00
          2   -1    0    0  502    0  0.00000000000E+00  0.00000000000E+00  0.21578485188E+04  0.21578485188E+04  0.00000000000E+00 0. -1.
          1   -1    0    0  501    0 -0.00000000000E+00 -0.00000000000E+00 -0.92869579919E+03  0.92869579919E+03  0.00000000000E+00 0. -1.
         25    2    1    2    0    0  0.49997131646E+02 -0.20617243355E+03 -0.11738084865E+00  0.24623450839E+03  0.12499853527E+03 0.  0.
          2    1    1    2  501    0  0.23439491483E+02  0.28992501086E+02 -0.80056547543E+03  0.80143312592E+03  0.00000000000E+00 0. -1.
          1    1    1    2  502    0 -0.73436623129E+02  0.17717993246E+03  0.20298355759E+04  0.20388766837E+04  0.00000000000E+00 0. -1.
         22    1    3    3    0    0 -0.17567422433E+01 -0.95902743383E+02 -0.57234973046E+02  0.11169719993E+03  0.00000000000E+00 0. -1.
         22    1    3    3    0    0  0.51753873890E+02 -0.11026969016E+03  0.57117592198E+02  0.13453730847E+03  0.00000000000E+00 0. -1.
</event>
<event>
 7    1  0.5977291E-006  0.1765299E+03  0.7818608E-02  0.1286725E+00
          2   -1    0    0  502    0  0.00000000000E+00  0.00000000000E+00  0.11060818422E+04  0.11060818422E+04  0.00000000000E+00 0. -1.
          1   -1    0    0  501    0 -0.00000000000E+00 -0.00000000000E+00 -0.32384252776E+04  0.32384252776E+04  0.00000000000E+00 0. -1.
         25    2    1    2    0    0  0.21610954901E+03 -0.60760321199E+02  0.13479945282E+03  0.29015742347E+03  0.12500113644E+03 0.  0.
          2    1    1    2  501    0 -0.49836261722E+02  0.18912169241E+02 -0.31522943098E+04  0.31527449530E+04  0.00000000000E+00 0. -1.
          1    1    1    2  502    0 -0.16627328729E+03  0.41848151958E+02  0.88515142159E+03  0.90160474324E+03  0.00000000000E+00 0. -1.
         22    1    3    3    0    0  0.11929991903E+03 -0.90409108717E+02  0.49175452872E+02  0.15755793469E+03  0.00000000000E+00 0.  1.
         22    1    3    3    0    0  0.96809629977E+02  0.29648787519E+02  0.85623999944E+02  0.13259948878E+03  0.00000000000E+00 0.  1.
</event>
<event>
 7    1  0.5977291E-006  0.4363885E+02  0.7818608E-02  0.1525274E+00
          2   -1    0    0  502    0  0.00000000000E+00  0.00000000000E+00  0.22664781255E+04  0.22664781255E+04  0.00000000000E+00 0. -1.
          1   -1    0    0  501    0 -0.00000000000E+00 -0.00000000000E+00 -0.86321845228E+02  0.86321845228E+02  0.00000000000E+00 0. -1.
         25    2    1    2    0    0  0.66211590203E+01  0.15096492277E+02  0.25655795456E+02  0.12866234797E+03  0.12499614442E+03 0.  0.
          2    1    1    2  501    0 -0.18316386286E+02  0.27082505872E+02 -0.26875161705E+02  0.42322883262E+02  0.00000000000E+00 0. -1.
          1    1    1    2  502    0  0.11695227266E+02 -0.42178998149E+02  0.21813756465E+04  0.21818147395E+04  0.00000000000E+00 0. -1.
         22    1    3    3    0    0 -0.29845692961E+02 -0.33457977423E+02  0.46371742495E+02  0.64502249136E+02  0.00000000000E+00 0.  1.
         22    1    3    3    0    0  0.36466851981E+02  0.48554469700E+02 -0.20715947039E+02  0.64160098839E+02  0.00000000000E+00 0.  1.
</event>
<event>
 7    1  0.5977291E-006  0.1684795E+03  0.7818608E-02  0.1327214E+00
          2   -1    0    0  502    0  0.00000000000E+00  0.00000000000E+00  0.73394264968E+03  0.73394264968E+03  0.00000000000E+00 0. -1.
          1   -1    0    0  501    0 -0.00000000000E+00 -0.00000000000E+00 -0.13640982781E+04  0.13640982781E+04  0.00000000000E+00 0. -1.
         25    2    1    2    0    0 -0.11950513574E+03  0.12041000515E+03 -0.21848882522E+03  0.30354892972E+03  0.12499815672E+03 0.  0.
          2    1    1    2  501    0 -0.23300303013E+02 -0.30783643689E+02 -0.10924550036E+04  0.10931369868E+04  0.00000000000E+00 0. -1.
          1    1    1    2  502    0  0.14280543875E+03 -0.89626361462E+02  0.68078820045E+03  0.70135501130E+03  0.00000000000E+00 0. -1.
         22    1    3    3    0    0 -0.87968784743E+02  0.60635090053E+02 -0.42420097444E+02  0.11495471240E+03  0.00000000000E+00 0.  1.
         22    1    3    3    0    0 -0.31536350993E+02  0.59774915098E+02 -0.17606872778E+03  0.18859421733E+03  0.00000000000E+00 0.  1.
</event>
<event>
 7    1  0.5977291E-006  0.5256369E+02  0.7818608E-02  0.1443212E+00
          2   -1    0    0  502    0  0.00000000000E+00  0.00000000000E+00  0.74558546707E+02  0.74558546707E+02  0.00000000000E+00 0. -1.
          1   -1    0    0  501    0 -0.00000000000E+00 -0.00000000000E+00 -0.23956509170E+04  0.23956509170E+04  0.00000000000E+00 0. -1.
         25    2    1    2    0    0 -0.11895682708E+02  0.78983552435E+02 -0.22631461234E+03  0.27059844209E+03  0.12500121712E+03 0.  0.
          2    1    1    2  501    0  0.36610964912E+02 -0.37463285417E+02 -0.21356689246E+04  0.21363112170E+04  0.00000000000E+00 0. -1.
          1    1    1    2  502    0 -0.24715282204E+02 -0.41520267018E+02  0.40891166661E+02  0.63299804570E+02  0.00000000000E+00 0. -1.
         22    1    3    3    0    0  0.51025683498E+01  0.36659985801E+02 -0.22168600215E+03  0.22475469809E+03  0.00000000000E+00 0.  1.
         22    1    3    3    0    0 -0.16998251058E+02  0.42323566633E+02 -0.46286101831E+01  0.45843743999E+02  0.00000000000E+00 0.  1.
</event>
<event>
 7    1  0.5977291E-006  0.6022814E+02  0.7818608E-02  0.1501469E+00
          2   -1    0    0  502    0  0.00000000000E+00  0.00000000000E+00  0.49093728345E+03  0.49093728345E+03  0.00000000000E+00 0. -1.
          1   -1    0    0  501    0 -0.00000000000E+00 -0.00000000000E+00 -0.67710264439E+02  0.67710264439E+02  0.00000000000E+00 0. -1.
         25    2    1    2    0    0 -0.64596092810E+02  0.50689602811E+02  0.79780194388E+02  0.16950034130E+03  0.12499358081E+03 0.  0.
          2    1    1    2  501    0  0.11084255160E+02 -0.25513118819E+02 -0.10917074983E+02  0.29882477650E+02  0.00000000000E+00 0. -1.
          1    1    1    2  502    0  0.53511837650E+02 -0.25176483991E+02  0.35436389961E+03  0.35926472894E+03  0.00000000000E+00 0. -1.
         22    1    3    3    0    0 -0.40450053116E+02  0.17938212238E+02  0.11016355022E+03  0.11871812858E+03  0.00000000000E+00 0. -1.
         22    1    3    3    0    0 -0.24146039695E+02  0.32751390573E+02 -0.30383355833E+02  0.50782212723E+02  0.00000000000E+00 0. -1.
</event>
<event>
 7    1  0.5977291E-006  0.9516354E+02  0.7818608E-02  0.1353046E+00
          2   -1    0    0  502    0  0.00000000000E+00  0.00000000000E+00  0.19073503195E+04  0.19073503195E+04  0.00000000000E+00 0. -1.
          1   -1    0    0  501    0 -0.00000000000E+00 -0.00000000000E+00 -0.44367948625E+02  0.44367948625E+02  0.00000000000E+00 0. -1.
         25    2    1    2    0    0  0.78244447873E+02 -0.67127275036E+02  0.20007410920E+03  0.25745397805E+03  0.12499854785E+03 0.  0.
          2    1    1    2  501    0 -0.94756266854E+02  0.15033044148E+02  0.13631332959E+03  0.16669153052E+03  0.00000000000E+00 0. -1.
          1    1    1    2  502    0  0.16511818981E+02  0.52094230888E+02  0.15265949321E+04  0.15275727596E+04  0.00000000000E+00 0. -1.
         22    1    3    3    0    0  0.61838375891E+01  0.34481934522E+02  0.64087109695E+02  0.73036985732E+02  0.00000000000E+00 0.  1.
         22    1    3    3    0    0  0.72060610284E+02 -0.10160920956E+03  0.13598699951E+03  0.18441699232E+03  0.00000000000E+00 0.  1.
</event>
<event>
 7    1  0.5977291E-006  0.1232967E+03  0.7818608E-02  0.1268245E+00
          2   -1    0    0  502    0  0.00000000000E+00  0.00000000000E+00  0.39907469058E+03  0.39907469058E+03  0.00000000000E+00 0. -1.
          1   -1    0    0  501    0 -0.00000000000E+00 -0.00000000000E+00 -0.10169636014E+04  0.10169636014E+04  0.00000000000E+00 0. -1.
         25    2    1    2    0    0 -0.68602534578E+02  0.85605483227E+02 -0.26373976425E+03  0.31179874587E+03  0.12500075268E+03 0.  0.
          2    1    1    2  501    0  0.13151994231E+03 -0.19783047285E+02 -0.71746438308E+03  0.72968760793E+03  0.00000000000E+00 0. -1.
          1    1    1    2  502    0 -0.62917407731E+02 -0.65822435942E+02  0.36331523654E+03  0.37455193814E+03  0.00000000000E+00 0. -1.
         22    1    3    3    0    0 -0.74729659326E+02  0.34028186343E+02 -0.24189537336E+03  0.25545216989E+03  0.00000000000E+00 0. -1.
         22    1    3    3    0    0  0.61271247486E+01  0.51577296884E+02 -0.21844390896E+02  0.56346575985E+02  0.00000000000E+00 0. -1.
</event>
<event>
 7    1  0.5977291E-006  0.3382085E+02  0.7818608E-02  0.1606684E+00
          2   -1    0    0  502    0  0.00000000000E+00  0.00000000000E+00  0.92585052936E+03  0.92585052936E+03  0.00000000000E+00 0. -1.
          1   -1    0    0  501    0 -0.00000000000E+00 -0.00000000000E+00 -0.27315074337E+02  0.27315074337E+02  0.00000000000E+00 0. -1.
         25    2    1    2    0    0  0.42622742289E+02 -0.35978954003E+02  0.34050822153E+03  0.36699237010E+03  0.12500546985E+03 0.  0.
          2    1    1    2  501    0 -0.12721379208E+02  0.21838601247E+02 -0.18299547110E+01  0.25339824932E+02  0.00000000000E+00 0. -1.
          1    1    1    2  502    0 -0.29901363081E+02  0.14140352757E+02  0.55985718821E+03  0.56083340867E+03  0.00000000000E+00 0. -1.
         22    1    3    3    0    0 -0.44612730144E+02 -0.15255861358E+02  0.11171023230E+03  0.12125268244E+03  0.00000000000E+00 0. -1.
         22    1    3    3    0    0  0.87235472433E+02 -0.20723092645E+02  0.22879798922E+03  0.24573968766E+03  0.00000000000E+00 0. -1.
</event>
<event>
 7    1  0.5977291E-006  0.5754014E+02  0.7818608E-02  0.1546252E+00
          2   -1    0    0  502    0  0.00000000000E+00  0.00000000000E+00  0.15605458894E+04  0.15605458894E+04  0.00000000000E+00 0. -1.
          1   -1    0    0  501    0 -0.00000000000E+00 -0.00000000000E+00 -0.19432862881E+02  0.19432862881E+02  0.00000000000E+00 0. -1.
         25    2    1    2    0    0 -0.38300367000E+02  0.66969290078E+02  0.28905501352E+03  0.32423917892E+03  0.12500576139E+03 0.  0.
          2    1    1    2  501    0  0.15654076622E+02 -0.14903720375E+02  0.10122694541E+03  0.10350877003E+03  0.00000000000E+00 0. -1.
          1    1    1    2  502    0  0.22646290378E+02 -0.52065569703E+02  0.11508310676E+04  0.11522308033E+04  0.00000000000E+00 0. -1.
         22    1    3    3    0    0 -0.24388125289E+02 -0.32135684614E+01  0.23043233138E+03  0.23174159536E+03  0.00000000000E+00 0.  1.
         22    1    3    3    0    0 -0.13912241711E+02  0.70182858540E+02  0.58622682140E+02  0.92497583555E+02  0.00000000000E+00 0.  1.
</event>
<event>
 7    1  0.5977291E-006  0.3358087E+02  0.7818608E-02  0.1577892E+00
          2   -1    0    0  502    0  0.00000000000E+00  0.00000000000E+00  0.16197398782E+04  0.16197398782E+04  0.00000000000E+00 0. -1.
          1   -1    0    0  501    0 -0.00000000000E+00 -0.00000000000E+00 -0.20013595697E+02  0.20013595697E+02  0.00000000000E+00 0. -1.
         25    2    1    2    0    0  0.27742653432E+02  0.17956113111E+02  0.46860127064E+03  0.48611053932E+03  0.12499691508E+03 0.  0.
          2    1    1    2  501    0 -0.32143640016E+02  0.12044236039E+02  0.15597771355E+02  0.37703682665E+02  0.00000000000E+00 0. -1.
          1    1    1    2  502    0  0.44009865836E+01 -0.30000349150E+02  0.11155272405E+04  0.11159392519E+04  0.00000000000E+00 0. -1.
         22    1    3    3    0    0 -0.37369831398E+02  0.12161053407E+01  0.32949905488E+03  0.33161364625E+03  0.00000000000E+00 0. -1.
         22    1    3    3    0    0  0.65112484829E+02  0.16740007771E+02  0.13910221575E+03  0.15449689307E+03  0.00000000000E+00 0. -1.
</event>
<event>
 7    1  0.5977291E-006  0.8463353E+02  0.7818608E-02  0.1339192E+00
          2   -1    0    0  502    0  0.00000000000E+00  0.00000000000E+00  0.48574351783E+03  0.48574351783E+03  0.00000000000E+00 0. -1.
          1   -1    0    0  501    0 -0.00000000000E+00 -0.00000000000E+00 -0.72261999294E+03  0.72261999294E+03  0.00000000000E+00 0. -1.
         25    2    1    2    0    0  0.48746317821E+01  0.25712808175E+02 -0.10501325810E+03  0.16533928132E+03  0.12499753210E+03 0.  0.
          2    1    1    2  501    0  0.23277902903E+02 -0.88933554979E+02 -0.58118169017E+03  0.58840733761E+03  0.00000000000E+00 0. -1.
          1    1    1    2  502    0 -0.28152534686E+02  0.63220746804E+02  0.44931847315E+03  0.45461689184E+03  0.00000000000E+00 0. -1.
         22    1    3    3    0    0  0.23404195923E+01  0.70145566662E+02 -0.26367399031E+02  0.74974114319E+02  0.00000000000E+00 0. -1.
         22    1    3    3    0    0  0.25342121897E+01 -0.44432758487E+02 -0.78645859065E+02  0.90365166996E+02  0.00000000000E+00 0. -1.
</event>
<event>
 7    1  0.5977291E-006  0.1013513E+03  0.7818608E-02  0.1433267E+00
          2   -1    0    0  502    0  0.00000000000E+00  0.00000000000E+00  0.14502177117E+04  0.14502177117E+04  0.00000000000E+00 0. -1.
          1   -1    0    0  501    0 -0.00000000000E+00 -0.00000000000E+00 -0.35490304795E+03  0.35490304795E+03  0.00000000000E+00 0. -1.
         25    2    1    2    0    0  0.11721833743E+02  0.74612623473E+02  0.78898999060E+02  0.16599739637E+03  0.12500255429E+03 0.  0.
          2    1    1    2  501    0  0.39575901593E+01  0.26706712255E+02 -0.30878479365E+03  0.30996283614E+03  0.00000000000E+00 0. -1.
          1    1    1    2  502    0 -0.15679423902E+02 -0.10131933573E+03  0.13252004583E+04  0.13291605271E+04  0.00000000000E+00 0. -1.
         22    1    3    3    0    0 -0.21145261711E+02 -0.22567479806E+02 -0.75589513469E+01  0.31836315476E+02  0.00000000000E+00 0.  1.
         22    1    3    3    0    0  0.32867095454E+02  0.97180103279E+02  0.86457950407E+02  0.13416108089E+03  0.00000000000E+00 0.  1.
</event>
<event>
 7    1  0.5977291E-006  0.1417086E+03  0.7818608E-02  0.1347959E+00
          2   -1    0    0  502    0  0.00000000000E+00  0.00000000000E+00  0.24354918437E+04  0.24354918437E+04  0.00000000000E+00 0. -1.
          1   -1    0    0  501    0 -0.00000000000E+00 -0.00000000000E+00 -0.55167229940E+03  0.55167229940E+03  0.00000000000E+00 0. -1.
         25    2    1    2    0    0  0.15533010867E+03  0.88654869056E+02  0.81703726559E+02  0.23299773653E+03  0.12500127131E+03 0.  0.
          2    1    1    2  501    0 -0.34531805374E+02 -0.16624788507E+02 -0.47307892682E+03  0.47462880251E+03  0.00000000000E+00 0. -1.
          1    1    1    2  502    0 -0.12079830329E+03 -0.72030080549E+02  0.22751947445E+04  0.22795376040E+04  0.00000000000E+00 0. -1.
         22    1    3    3    0    0  0.48841153160E+02  0.20702512850E+02  0.92061148885E+02  0.10625115253E+03  0.00000000000E+00 0. -1.
         22    1    3    3    0    0  0.10648895551E+03  0.67952356206E+02 -0.10357422326E+02  0.12674658400E+03  0.00000000000E+00 0. -1.
</event>
<event>
 7    1  0.5977291E-006  0.4216206E+02  0.7818608E-02  0.1507693E+00
          2   -1    0    0  502    0  0.00000000000E+00  0.00000000000E+00  0.29105131443E+03  0.29105131443E+03  0.00000000000E+00 0. -1.
          1   -1    0    0  501    0 -0.00000000000E+00 -0.00000000000E+00 -0.20984232374E+04  0.20984232374E+04  0.00000000000E+00 0. -1.
         25    2    1    2    0    0 -0.60094689681E+02  0.40989273588E+02 -0.96360071686E+02  0.17378722601E+03  0.12500097692E+03 0.  0.
          2    1    1    2  501    0  0.37658369939E+02 -0.56693930303E+01 -0.19614288209E+04  0.19617984897E+04  0.00000000000E+00 0. -1.
          1    1    1    2  502    0  0.22436319742E+02 -0.35319880558E+02  0.25041696964E+03  0.25388883608E+03  0.00000000000E+00 0. -1.
         22    1    3    3    0    0 -0.76460344705E+02 -0.19104319281E+00 -0.10515794356E+02  0.77180326125E+02  0.00000000000E+00 0.  1.
         22    1    3    3    0    0  0.16365655024E+02  0.41180316781E+02 -0.85844277330E+02  0.96606899882E+02  0.00000000000E+00 0.  1.
</event>
<event>
 7    1  0.5977291E-006  0.8941672E+02  0.7818608E-02  0.1318842E+00
          2   -1    0    0  502    0  0.00000000000E+00  0.00000000000E+00  0.12344255801E+04  0.12344255801E+04  0.00000000000E+00 0. -1.
          1   -1    0    0  501    0 -0.00000000000E+00 -0.00000000000E+00 -0.63287906268E+03  0.63287906268E+03  0.00000000000E+00 0. -1.
         25    2    1    2    0    0 -0.36974702118E+01 -0.34844436549E+02  0.42728578541E+01  0.12988772559E+03  0.12499903160E+03 0.  0.
          2    1    1    2  501    0  0.81280225537E+02  0.45902013201E+02 -0.56492197713E+03  0.57258214269E+03  0.00000000000E+00 0. -1.
          1    1    1    2  502    0 -0.77582755325E+02 -0.11057576652E+02  0.11621956367E+04  0.11648347745E+04  0.00000000000E+00 0. -1.
         22    1    3    3    0    0 -0.18340615085E+02 -0.63536593099E+02  0.43480408906E+02  0.79144316176E+02  0.00000000000E+00 0.  1.
         22    1    3    3    0    0  0.14643144873E+02  0.28692156551E+02 -0.39207551052E+02  0.50743409413E+02  0.00000000000E+00 0.  1.
</event>
<event>
 7    1  0.5977291E-006  0.1142711E+03  0.7818608E-02  0.1415827E+00
          2   -1    0    0  502    0  0.00000000000E+00  0.00000000000E+00  0.38481450438E+03  0.38481450438E+03  0.00000000000E+00 0. -1.
          1   -1    0    0  501    0 -0.00000000000E+00 -0.00000000000E+00 -0.15003046874E+04  0.15003046874E+04  0.00000000000E+00 0. -1.
         25    2    1    2    0    0 -0.12818375069E+03 -0.44690763734E+02 -0.43817708056E+03  0.47544719573E+03  0.12499017437E+03 0.  0.
          2    1    1    2  501    0  0.26537910577E+02 -0.66521738184E+01 -0.10344537453E+04  0.10348154730E+04  0.00000000000E+00 0. -1.
          1    1    1    2  502    0  0.10164584011E+03  0.51342937552E+02  0.35714064285E+03  0.37485652298E+03  0.00000000000E+00 0. -1.
         22    1    3    3    0    0  0.16280198051E+02  0.19202771232E+02 -0.42390703398E+02  0.49302768747E+02  0.00000000000E+00 0. -1.
         22    1    3    3    0    0 -0.14446394874E+03 -0.63893534966E+02 -0.39578637716E+03  0.42614442698E+03  0.00000000000E+00 0. -1.
</event>
<event>
 7    1  0.5977291E-006  0.1156876E+03  0.7818608E-02  0.1357431E+00
          2   -1    0    0  502    0  0.00000000000E+00  0.00000000000E+00  0.48314941647E+03  0.48314941647E+03  0.00000000000E+00 0. -1.
          1   -1    0    0  501    0 -0.00000000000E+00 -0.00000000000E+00 -0.79449930932E+03  0.79449930932E+03  0.00000000000E+00 0. -1.
         25    2    1    2    0    0  0.52566572023E+02 -0.72740866321E+02 -0.25232051558E+03  0.29554053988E+03  0.12499635995E+03 0.  0.
          2    1    1    2  501    0 -0.19113579415E+02 -0.38870097372E+02 -0.51228650227E+03  0.51411445593E+03  0.00000000000E+00 0. -1.
          1    1    1    2  502    0 -0.33452992608E+02  0.11161096369E+03  0.45325712501E+03  0.46799372998E+03  0.00000000000E+00 0. -1.
         22    1    3    3    0    0 -0.35255594128E+02 -0.28596705751E+02 -0.13532172168E+03  0.14273295645E+03  0.00000000000E+00 0. -1.
         22    1    3    3    0    0  0.87822166151E+02 -0.44144160570E+02 -0.11699879389E+03  0.15280758343E+03  0.00000000000E+00 0. -1.
</event>
<event>
 7    1  0.5977291E-006  0.1426977E+03  0.7818608E-02  0.1279204E+00
          2   -1    0    0  502    0  0.00000000000E+00  0.00000000000E+00  0.18322274153E+04  0.18322274153E+04  0.00000000000E+00 0. -1.
          1   -1    0    0  501    0 -0.00000000000E+00 -0.00000000000E+00 -0.14522856967E+03  0.14522856967E+03  0.00000000000E+00 0. -1.
         25    2    1    2    0    0  0.12284292971E+03  0.12295231246E+03  0.22201222529E+03  0.30841637666E+03  0.12499430665E+03 0.  0.
          2    1    1    2  501    0 -0.52284148881E+02 -0.12891891071E+03 -0.53391445308E+02  0.14901128881E+03  0.00000000000E+00 0. -1.
          1    1    1    2  502    0 -0.70558780826E+02  0.59665982418E+01  0.15183780656E+04  0.15200283195E+04  0.00000000000E+00 0. -1.
         22    1    3    3    0    0  0.32692454489E+02 -0.11293757888E+02  0.10506862262E+01  0.34604183118E+02  0.00000000000E+00 0.  1.
         22    1    3    3    0    0  0.90150475218E+02  0.13424607035E+03  0.22096153907E+03  0.27381219354E+03  0.00000000000E+00 0.  1.
</event>
<event>
 7    1  0.5977291E-006  0.3576114E+02  0.7818608E-02  0.1549138E+00
          2   -1    0    0  502    0  0.00000000000E+00  0.00000000000E+00  0.48288412312E+03  0.48288412312E+03  0.00000000000E+00 0. -1.
          1   -1    0    0  501    0 -0.00000000000E+00 -0.00000000000E+00 -0.15890704849E+04  0.15890704849E+04  0.00000000000E+00 0. -1.
         25    2    1    2    0    0  0.62037680238E+02  0.17300848260E+02  0.23118541627E+03  0.27058830179E+03  0.12499335681E+03 0.  0.
          2    1    1    2  501    0 -0.35497816325E+02  0.41689704002E+01 -0.15679085294E+04  0.15683158585E+04  0.00000000000E+00 0. -1.
          1    1    1    2  502    0 -0.26539863913E+02 -0.21469818660E+02  0.23053675135E+03  0.23305044779E+03  0.00000000000E+00 0. -1.
         22    1    3    3    0    0  0.79714837121E+02  0.29550329683E+02  0.23393741709E+03  0.24890639276E+03  0.00000000000E+00 0. -1.
         22    1    3    3    0    0 -0.17677156883E+02 -0.12249481423E+02 -0.27520008163E+01  0.21681909028E+02  0.00000000000E+00 0. -1.
</event>
<event>
 7    1  0.5977291E-006  0.1282341E+03  0.7818608E-02  0.1360180E+00
          2   -1    0    0  502    0  0.00000000000E+00  0.00000000000E+00  0.32774052804E+03  0.32774052804E+03  0.00000000000E+00 0. -1.
          1   -1    0    0  501    0 -0.00000000000E+00 -0.00000000000E+00 -0.99761432023E+03  0.99761432023E+03  0.00000000000E+00 0. -1.
         25    2    1    2    0    0 -0.11333149711E+03 -0.52097137535E+02 -0.24737694988E+03  0.30393999966E+03  0.12500411227E+03 0.  0.
          2    1    1    2  501    0 -0.14261993946E+02  0.35420035390E+02 -0.70759384875E+03  0.70862334013E+03  0.00000000000E+00 0. -1.
          1    1    1    2  502    0  0.12759349105E+03  0.16677102145E+02  0.28509700644E+03  0.31279150848E+03  0.00000000000E+00 0. -1.
         22    1    3    3    0    0 -0.14673434206E+02 -0.73751818746E+02 -0.95710316530E+02  0.12171731648E+03  0.00000000000E+00 0. -1.
         22    1    3    3    0    0 -0.98658062902E+02  0.21654681211E+02 -0.15166663335E+03  0.18222268318E+03  0.00000000000E+00 0. -1.
</event>
<event>
 7    1  0.5977291E-006  0.6968919E+02  0.7818608E-02  0.1395238E+00
          2   -1    0    0  502    0  0.00000000000E+00  0.00000000000E+00  0.59064609048E+03  0.59064609048E+03  0.00000000000E+00 0. -1.
          1   -1    0    0  501    0 -0.00000000000E+00 -0.00000000000E+00 -0.26491726225E+03  0.26491726225E+03  0.00000000000E+00 0. -1.
         25    2    1    2    0    0  0.19027134612E+02  0.49752787812E+02  0.16149780105E+03  0.21104939754E+03  0.12499174657E+03 0.  0.
          2    1    1    2  501    0  0.48742897198E+02 -0.20127968358E+02 -0.23379784952E+03  0.23967152434E+03  0.00000000000E+00 0. -1.
          1    1    1    2  502    0 -0.67770031809E+02 -0.29624819454E+02  0.39802887669E+03  0.40484243085E+03  0.00000000000E+00 0. -1.
         22    1    3    3    0    0 -0.52851165501E+02  0.29290519956E+02  0.82999783676E+02  0.10266520513E+03  0.00000000000E+00 0.  1.
         22    1    3    3    0    0  0.71878300112E+02  0.20462267856E+02  0.78498017378E+02  0.10838419241E+03  0.00000000000E+00 0.  1.
</event>
<event>
 7    1  0.8604210E-006  0.8267590E+02  0.7818608E-02  0.1332614E+00
          2   -1    0    0  502    0  0.00000000000E+00  0.00000000000E+00  0.95221015223E+03  0.95221015223E+03  0.00000000000E+00 0. -1.
          1   -1    0    0  501    0 -0.00000000000E+00 -0.00000000000E+00 -0.29275935908E+04  0.29275935908E+04  0.00000000000E+00 0. -1.
         25    2    1    2    0    0 -0.45954374946E+02 -0.11457412945E+03 -0.77963294488E+03  0.79918190496E+03  0.12500061100E+03 0.  0.
          2    1    1    2  501    0  0.66593445440E+02  0.34555808570E+02 -0.21357147099E+04  0.21370320805E+04  0.00000000000E+00 0. -1.
          1    1    1    2  502    0 -0.20639070494E+02  0.80018320878E+02  0.93996421621E+03  0.94358975761E+03  0.00000000000E+00 0. -1.
         22    1    3    3    0    0 -0.31240782718E+02 -0.96049776957E+02 -0.25878636993E+03  0.27779836468E+03  0.00000000000E+00 0.  1.
         22    1    3    3    0    0 -0.14713592228E+02 -0.18524352490E+02 -0.52084657496E+03  0.52138354028E+03  0.00000000000E+00 0.  1.
</event>
<event>
 7    1  0.5977291E-006  0.4474467E+02  0.7818608E-02  0.1561428E+00
          2   -1    0    0  502    0  0.00000000000E+00  0.00000000000E+00  0.15779068991E+04  0.15779068991E+04  0.00000000000E+00 0. -1.
          1   -1    0    0  501    0 -0.00000000000E+00 -0.00000000000E+00 -0.27588565600E+02  0.27588565600E+02  0.00000000000E+00 0. -1.
         25    2    1    2    0    0 -0.26744039834E+02 -0.37233393906E+02  0.36005919791E+03  0.38388733962E+03  0.12500117694E+03 0.  0.
          2    1    1    2  501    0  0.41882438865E+02  0.17054614515E+02  0.17362460033E+02  0.48440206234E+02  0.00000000000E+00 0. -1.
          1    1    1    2  502    0 -0.15138399031E+02  0.20178779391E+02  0.11728966755E+04  0.11731679188E+04  0.00000000000E+00 0. -1.
         22    1    3    3    0    0  0.12978476858E+02 -0.61909727350E+02  0.91187690563E+02  0.11097950312E+03  0.00000000000E+00 0. -1.
         22    1    3    3    0    0 -0.39722516693E+02  0.24676333445E+02  0.26887150734E+03  0.27290783650E+03  0.00000000000E+00 0. -1.
</event>
<event>
 7    1  0.5977291E-006  0.7488665E+02  0.7818608E-02  0.1345597E+00
          2   -1    0    0  502    0  0.00000000000E+00  0.00000000000E+00  0.79764624267E+03  0.79764624267E+03  0.00000000000E+00 0. -1.
          1   -1    0    0  501    0 -0.00000000000E+00 -0.00000000000E+00 -0.15848759709E+03  0.15848759709E+03  0.00000000000E+00 0. -1.
         25    2    1    2    0    0 -0.15260044025E+01 -0.40767431284E+02  0.50175885860E+03  0.51870148591E+03  0.12499986861E+03 0.  0.
          2    1    1    2  501    0 -0.71380668434E+02  0.23661055397E+02 -0.13521470355E+03  0.15471929882E+03  0.00000000000E+00 0. -1.
          1    1    1    2  502    0  0.72906672837E+02  0.17106375887E+02  0.27261449053E+03  0.28271305503E+03  0.00000000000E+00 0. -1.
         22    1    3    3    0    0 -0.66898564843E+00 -0.51413366871E+02  0.70229702754E+02  0.87040180284E+02  0.00000000000E+00 0.  1.
         22    1    3    3    0    0 -0.85701875408E+00  0.10645935588E+02  0.43152915585E+03  0.43166130562E+03  0.00000000000E+00 0.  1.
</event>
<event>
 7    1  0.5977291E-006  0.1294620E+03  0.7818608E-02  0.1363317E+00
          2   -1    0    0  502    0  0.00000000000E+00  0.00000000000E+00  0.13111628891E+04  0.13111628891E+04  0.00000000000E+00 0. -1.
          1   -1    0    0  501    0 -0.00000000000E+00 -0.00000000000E+00 -0.24313173788E+04  0.24313173788E+04  0.00000000000E+00 0. -1.
         25    2    1    2    0    0  0.97299302790E+02 -0.39981671745E+02 -0.12418109878E+03  0.20521262205E+03  0.12500234620E+03 0.  0.
          2    1    1    2  501    0  0.82669177293E+01 -0.35900188684E+02 -0.22631446890E+04  0.22634445097E+04  0.00000000000E+00 0. -1.
          1    1    1    2  502    0 -0.10556622052E+03  0.75881860429E+02  0.12671712980E+04  0.12738231362E+04  0.00000000000E+00 0. -1.
         22    1    3    3    0    0  0.85350589454E+02 -0.82673305195E+02 -0.85664761427E+02  0.14648566436E+03  0.00000000000E+00 0.  1.
         22    1    3    3    0    0  0.11948713336E+02  0.42691633450E+02 -0.38516337352E+02  0.58726957695E+02  0.00000000000E+00 0.  1.
</event>
<event>
 7    1  0.5977291E-006  0.1500346E+03  0.7818608E-02  0.1368107E+00
          2   -1    0    0  502    0  0.00000000000E+00  0.00000000000E+00  0.23138055631E+03  0.23138055631E+03  0.00000000000E+00 0. -1.
          1   -1    0    0  501    0 -0.00000000000E+00 -0.00000000000E+00 -0.49221348233E+03  0.49221348233E+03  0.00000000000E+00 0. -1.
         25    2    1    2    0    0 -0.38635428888E+01  0.13150403744E+03  0.91716605719E+01  0.18170622924E+03  0.12499918224E+03 0.  0.
          2    1    1    2  501    0  0.10479512231E+02  0.28690768602E+02 -0.35779386376E+03  0.35909529282E+03  0.00000000000E+00 0. -1.
          1    1    1    2  502    0 -0.66159693423E+01 -0.16019480604E+03  0.87789277164E+02  0.18279251658E+03  0.00000000000E+00 0. -1.
         22    1    3    3    0    0 -0.40146229063E+02  0.13848817980E+03  0.11749058630E+02  0.14466767445E+03  0.00000000000E+00 0.  1.
         22    1    3    3    0    0  0.36282686174E+02 -0.69841423590E+01 -0.25773980581E+01  0.37038554795E+02  0.00000000000E+00 0.  1.
</event>
<event>
 7    1  0.5977291E-006  0.6135272E+02  0.7818608E-02  0.1435167E+00
          2   -1    0    0  502    0  0.00000000000E+00  0.00000000000E+00  0.16054417745E+03  0.16054417745E+03  0.00000000000E+00 0. -1.
          1   -1    0    0  501    0 -0.00000000000E+00 -0.00000000000E+00 -0.40860510214E+03  0.40860510214E+03  0.00000000000E+00 0. -1.
         25    2    1    2    0    0  0.64961457939E+02  0.51236594821E+02 -0.74999606777E+02  0.16761850032E+03  0.12500336381E+03 0.  0.
          2    1    1    2  501    0 -0.47796336525E+01 -0.43705231421E+02 -0.27739037239E+03  0.28085300577E+03  0.00000000000E+00 0. -1.
          1    1    1    2  502    0 -0.60181824287E+02 -0.75313634006E+01  0.10432905449E+03  0.12067777351E+03  0.00000000000E+00 0. -1.
         22    1    3    3    0    0  0.34152237918E+02  0.78673926199E+02 -0.89431979000E+02  0.12391142355E+03  0.00000000000E+00 0. -1.
         22    1    3    3    0    0  0.30809220021E+02 -0.27437331377E+02  0.14432372223E+02  0.43707076766E+02  0.00000000000E+00 0. -1.
</event>
<event>
 7    1  0.5977291E-006  0.1214469E+03  0.7818608E-02  0.1293704E+00
          2   -1    0    0  502    0  0.00000000000E+00  0.00000000000E+00  0.38692741427E+04  0.38692741427E+04  0.00000000000E+00 0. -1.
          1   -1    0    0  501    0 -0.00000000000E+00 -0.00000000000E+00 -0.42383285858E+03  0.42383285858E+03  0.00000000000E+00 0. -1.
         25    2    1    2    0    0 -0.16327370090E+02  0.46471784384E+02 -0.25376060823E+03  0.28713151730E+03  0.12499540864E+03 0.  0.
          2    1    1    2  501    0 -0.17443799064E+02  0.70453194473E+02 -0.14378316584E+03  0.16106376847E+03  0.00000000000E+00 0. -1.
          1    1    1    2  502    0  0.33771169155E+02 -0.11692497886E+03  0.38429850581E+04  0.38449117155E+04  0.00000000000E+00 0. -1.
         22    1    3    3    0    0  0.84267963457E+01  0.61847537297E+02 -0.25008849716E+03  0.25776032506E+03  0.00000000000E+00 0. -1.
         22    1    3    3    0    0 -0.24754166436E+02 -0.15375752913E+02 -0.36721110677E+01  0.29371192235E+02  0.00000000000E+00 0. -1.
</event>
<event>
 7    1  0.5977291E-006  0.8767204E+02  0.7818608E-02  0.1367065E+00
          2   -1    0    0  502    0  0.00000000000E+00  0.00000000000E+00  0.24642517251E+04  0.24642517251E+04  0.00000000000E+00 0. -1.
          1   -1    0    0  501    0 -0.00000000000E+00 -0.00000000000E+00 -0.37453275741E+03  0.37453275741E+03  0.00000000000E+00 0. -1.
         25    2    1    2    0    0 -0.24985174334E+02 -0.29199803540E+02  0.22533014995E+03  0.26052877550E+03  0.12499871568E+03 0.  0.
          2    1    1    2  501    0 -0.44111625703E+02 -0.28883354097E+02 -0.35406339394E+03  0.35796783458E+03  0.00000000000E+00 0. -1.
          1    1    1    2  502    0  0.69096800038E+02  0.58083157636E+02  0.22184522117E+04  0.22202878724E+04  0.00000000000E+00 0. -1.
         22    1    3    3    0    0 -0.59187831096E+02 -0.22066002483E+02  0.21501132478E+03  0.22409814278E+03  0.00000000000E+00 0. -1.
         22    1    3    3    0    0  0.34202656762E+02 -0.71338010562E+01  0.10318825176E+02  0.36430632716E+02  0.00000000000E+00 0. -1.
</event>
<event>
 7    1  0.5977291E-006  0.8460014E+02  0.7818608E-02  0.1359680E+00
          2   -1    0    0  502    0  0.00000000000E+00  0.00000000000E+00  0.18033569338E+04  0.18033569338E+04  0.00000000000E+00 0. -1.
          1   -1    0    0  501    0 -0.00000000000E+00 -0.00000000000E+00 -0.42568249551E+02  0.42568249551E+02  0.00000000000E+00 0. -1.
         25    2    1    2    0    0  0.88448682775E+02 -0.30002516387E+02  0.88289719860E+03  0.89658010939E+03  0.12500043515E+03 0.  0.
          2    1    1    2  501    0 -0.47161543141E+02  0.70910246599E+02  0.17434992041E+02  0.86927861883E+02  0.00000000000E+00 0. -1.
          1    1    1    2  502    0 -0.41287139634E+02 -0.40907730212E+02  0.86045649365E+03  0.86241721211E+03  0.00000000000E+00 0. -1.
         22    1    3    3    0    0  0.98957436790E+02 -0.44054899026E+02  0.43308675872E+03  0.44642754060E+03  0.00000000000E+00 0.  1.
         22    1    3    3    0    0 -0.10508754015E+02  0.14052382639E+02  0.44981043987E+03  0.45015256879E+03  0.00000000000E+00 0.  1.
</event>
<event>
 7    1  0.5977291E-006  0.2087627E+03  0.7818608E-02  0.1264684E+00
          2   -1    0    0  502    0  0.00000000000E+00  0.00000000000E+00  0.16328304106E+03  0.16328304106E+03  0.00000000000E+00 0. -1.
          1   -1    0    0  501    0 -0.00000000000E+00 -0.00000000000E+00 -0.10606444577E+04  0.10606444577E+04  0.00000000000E+00 0. -1.
         25    2    1    2    0    0  0.26934549516E+02  0.19001578023E+03 -0.11851340432E+03  0.25788343085E+03  0.12500788059E+03 0.  0.
          2    1    1    2  501    0  0.24408364471E+02 -0.21154332581E+03 -0.84967619466E+03  0.87595432685E+03  0.00000000000E+00 0. -1.
          1    1    1    2  502    0 -0.51342913987E+02  0.21527545585E+02  0.70828182329E+02  0.90089741079E+02  0.00000000000E+00 0. -1.
         22    1    3    3    0    0  0.28253632556E+02 -0.91979015904E+01 -0.18072068552E+02  0.34777418076E+02  0.00000000000E+00 0.  1.
         22    1    3    3    0    0 -0.13190830404E+01  0.19921368182E+03 -0.10044133577E+03  0.22310601277E+03  0.00000000000E+00 0.  1.
</event>
<event>
 7    1  0.5977291E-006  0.7132771E+02  0.7818608E-02  0.1476388E+00
          2   -1    0    0  502    0  0.00000000000E+00  0.00000000000E+00  0.27858036349E+03  0.27858036349E+03  0.00000000000E+00 0. -1.
          1   -1    0    0  501    0 -0.00000000000E+00 -0.00000000000E+00 -0.86618001815E+03  0.86618001815E+03  0.00000000000E+00 0. -1.
         25    2    1    2    0    0  0.89022224801E+02 -0.10736454090E+02 -0.13076666452E+03  0.20190261971E+03  0.12499807735E+03 0.  0.
          2    1    1    2  501    0 -0.23242229382E+02 -0.15578280750E+02 -0.69439383404E+03  0.69495732301E+03  0.00000000000E+00 0. -1.
          1    1    1    2  502    0 -0.65779995419E+02  0.26314734840E+02  0.23756084390E+03  0.24790043893E+03  0.00000000000E+00 0. -1.
         22    1    3    3    0    0  0.31564655108E+00 -0.38845267992E+02 -0.94247760263E+02  0.10193966251E+03  0.00000000000E+00 0.  1.
         22    1    3    3    0    0  0.88706578250E+02  0.28108813902E+02 -0.36518904261E+02  0.99962957200E+02  0.00000000000E+00 0.  1.
</event>
<event>
 7    1  0.5977291E-006  0.5598598E+02  0.7818608E-02  0.1447547E+00
          2   -1    0    0  502    0  0.00000000000E+00  0.00000000000E+00  0.21584533226E+03  0.21584533226E+03  0.00000000000E+00 0. -1.
          1   -1    0    0  501    0 -0.00000000000E+00 -0.00000000000E+00 -0.18732579284E+03  0.18732579284E+03  0.00000000000E+00 0. -1.
         25    2    1    2    0    0  0.11991052560E+00  0.28355284671E+02 -0.22722369144E+02  0.13017495288E+03  0.12500070300E+03 0.  0.
          2    1    1    2  501    0 -0.40012398673E+02 -0.46753750166E+02 -0.98942572988E+02  0.11651840177E+03  0.00000000000E+00 0. -1.
          1    1    1    2  502    0  0.39892488148E+02  0.18398465496E+02  0.15018448155E+03  0.15647777044E+03  0.00000000000E+00 0. -1.
         22    1    3    3    0    0 -0.45704631367E+02  0.46561657293E+02  0.16349861107E+02  0.67262316467E+02  0.00000000000E+00 0.  1.
         22    1    3    3    0    0  0.45824541893E+02 -0.18206372622E+02 -0.39072230251E+02  0.62912636414E+02  0.00000000000E+00 0.  1.
</event>
<event>
 7    1  0.5977291E-006  0.1151830E+03  0.7818608E-02  0.1274306E+00
          2   -1    0    0  502    0  0.00000000000E+00  0.00000000000E+00  0.65154470526E+03  0.65154470526E+03  0.00000000000E+00 0. -1.
          1   -1    0    0  501    0 -0.00000000000E+00 -0.00000000000E+00 -0.17171185101E+04  0.17171185101E+04  0.00000000000E+00 0. -1.
         25    2    1    2    0    0 -0.61657808780E+02  0.46215051140E+02 -0.68334675368E+02  0.16196309780E+03  0.12499960343E+03 0.  0.
          2    1    1    2  501    0  0.44530631920E+01 -0.11818243198E+03 -0.15962753922E+04  0.16006505067E+04  0.00000000000E+00 0. -1.
          1    1    1    2  502    0  0.57204745588E+02  0.71967380839E+02  0.59903626268E+03  0.60604961086E+03  0.00000000000E+00 0. -1.
         22    1    3    3    0    0 -0.98292629618E+02  0.46637644824E+02 -0.60541492072E+02  0.12450615733E+03  0.00000000000E+00 0.  1.
         22    1    3    3    0    0  0.36634820838E+02 -0.42259368482E+00 -0.77931832968E+01  0.37456940467E+02  0.00000000000E+00 0.  1.
</event>
<event>
 7    1  0.5977291E-006  0.6299413E+02  0.7818608E-02  0.1466552E+00
          2   -1    0    0  502    0  0.00000000000E+00  0.00000000000E+00  0.15254635399E+03  0.15254635399E+03  0.00000000000E+00 0. -1.
          1   -1    0    0  501    0 -0.00000000000E+00 -0.00000000000E+00 -0.77942781061E+03  0.77942781061E+03  0.00000000000E+00 0. -1.
         25    2    1    2    0    0 -0.10728407280E+02 -0.34800931818E+02  0.82662664782E+01  0.13046131099E+03  0.12500247568E+03 0.  0.
          2    1    1    2  501    0 -0.20112378732E+02 -0.27400082315E+02 -0.70336150770E+03  0.70418227953E+03  0.00000000000E+00 0. -1.
          1    1    1    2  502    0  0.30840786012E+02  0.62201014133E+02  0.68213784605E+02  0.97330574082E+02  0.00000000000E+00 0. -1.
         22    1    3    3    0    0  0.12158137909E+02  0.42134762703E+02  0.21942266231E+02  0.49036941104E+02  0.00000000000E+00 0. -1.
         22    1    3    3    0    0 -0.22886545189E+02 -0.76935694522E+02 -0.13675999753E+02  0.81424369887E+02  0.00000000000E+00 0. -1.
</event>
<event>
 7    1  0.5977291E-006  0.5239731E+02  0.7818608E-02  0.1500739E+00
          2   -1    0    0  502    0  0.00000000000E+00  0.00000000000E+00  0.17412023381E+03  0.17412023381E+03  0.00000000000E+00 0. -1.
          1   -1    0    0  501    0 -0.00000000000E+00 -0.00000000000E+00 -0.19318286652E+03  0.19318286652E+03  0.00000000000E+00 0. -1.
         25    2    1    2    0    0  0.58994519728E+02 -0.88279320041E+01 -0.64389436028E+02  0.15273929489E+03  0.12500002796E+03 0.  0.
          2    1    1    2  501    0 -0.19401695824E+02 -0.25616618949E+02 -0.75923470042E+02  0.82443982621E+02  0.00000000000E+00 0. -1.
          1    1    1    2  502    0 -0.39592823904E+02  0.34444550953E+02  0.12125027335E+03  0.13211982282E+03  0.00000000000E+00 0. -1.
         22    1    3    3    0    0  0.19641765138E+02 -0.66025008234E+02 -0.28050981582E+02  0.74377135047E+02  0.00000000000E+00 0. -1.
         22    1    3    3    0    0  0.39352754590E+02  0.57197076230E+02 -0.36338454446E+02  0.78362159839E+02  0.00000000000E+00 0. -1.
</event>
<event>
 7    1  0.5977291E-006  0.5542841E+02  0.7818608E-02  0.1463133E+00
          2   -1    0    0  502    0  0.00000000000E+00  0.00000000000E+00  0.65445603198E+03  0.65445603198E+03  0.00000000000E+00 0. -1.
          1   -1    0    0  501    0 -0.00000000000E+00 -0.00000000000E+00 -0.84248974360E+03  0.84248974360E+03  0.00000000000E+00 0. -1.
         25    2    1    2    0    0 -0.91574415280E+02  0.11655074902E+02 -0.42615213747E+02  0.16112873789E+03  0.12499879769E+03 0.  0.
          2    1    1    2  501    0  0.39245467861E+02  0.52361193225E+01 -0.73881655718E+03  0.73987669842E+03  0.00000000000E+00 0. -1.
          1    1    1    2  502    0  0.52328947419E+02 -0.16891194225E+02  0.59339805931E+03  0.59594033928E+03  0.00000000000E+00 0. -1.
         22    1    3    3    0    0 -0.26584295649E+00  0.32274964095E+02  0.28903784190E+02  0.43326351339E+02  0.00000000000E+00 0.  1.
         22    1    3    3    0    0 -0.91308572324E+02 -0.20619889193E+02 -0.71518997938E+02  0.11780238655E+03  0.00000000000E+00 0.  1.
</event>
<event>
 7    1  0.5977291E-006  0.1888762E+03  0.7818608E-02  0.1353102E+00
          2   -1    0    0  502    0  0.00000000000E+00  0.00000000000E+00  0.12118792237E+04  0.12118792237E+04  0.00000000000E+00 0. -1.
          1   -1    0    0  501    0 -0.00000000000E+00 -0.00000000000E+00 -0.22427055975E+03  0.22427055975E+03  0.00000000000E+00 0. -1.
         25    2    1    2    0    0  0.16814649819E+03  0.44583989300E+02  0.81316400785E+03  0.84090616143E+03  0.12500596667E+03 0.  0.
          2    1    1    2  501    0 -0.18799231837E+03 -0.25516889905E+02 -0.16696638469E+03  0.25272514131E+03  0.00000000000E+00 0. -1.
          1    1    1    2  502    0  0.19845820180E+02 -0.19067099395E+02  0.34141104079E+03  0.34251848071E+03  0.00000000000E+00 0. -1.
         22    1    3    3    0    0  0.15548544691E+02 -0.22000305055E+02  0.30345934640E+02  0.40578891233E+02  0.00000000000E+00 0.  1.
         22    1    3    3    0    0  0.15259795350E+03  0.66584294355E+02  0.78281807321E+03  0.80032727019E+03  0.00000000000E+00 0.  1.
</event>
<event>
 7    1  0.5977291E-006  0.9776368E+02  0.7818608E-02  0.1402936E+00
          2   -1    0    0  502    0  0.00000000000E+00  0.00000000000E+00  0.42493143491E+02  0.42493143491E+02  0.00000000000E+00 0. -1.
          1   -1    0    0  501    0 -0.00000000000E+00 -0.00000000000E+00 -0.12557633635E+04  0.12557633635E+04  0.00000000000E+00 0. -1.
         25    2    1    2    0    0  0.69801458599E+02  0.70222949987E+00 -0.44741760430E+03  0.46975985532E+03  0.12497628690E+03 0.  0.
          2    1    1    2  501    0  0.32457924992E+02 -0.14043201263E+02 -0.71064217488E+03  0.71152162941E+03  0.00000000000E+00 0. -1.
          1    1    1    2  502    0 -0.10225938359E+03  0.13340971763E+02 -0.55210440859E+02  0.11697502229E+03  0.00000000000E+00 0. -1.
         22    1    3    3    0    0  0.17066239702E+02 -0.54539004984E+02 -0.27961840667E+03  0.28539834084E+03  0.00000000000E+00 0.  1.
         22    1    3    3    0    0  0.52735218897E+02  0.55241234484E+02 -0.16779919762E+03  0.18436151448E+03  0.00000000000E+00 0.  1.
</event>
<event>
 7    1  0.5977291E-006  0.6107628E+02  0.7818608E-02  0.1412553E+00
          2   -1    0    0  502    0  0.00000000000E+00  0.00000000000E+00  0.37805775692E+03  0.37805775692E+03  0.00000000000E+00 0. -1.
          1   -1    0    0  501    0 -0.00000000000E+00 -0.00000000000E+00 -0.54992964364E+03  0.54992964364E+03  0.00000000000E+00 0. -1.
         25    2    1    2    0    0 -0.31760364666E+02  0.45302362538E+02 -0.34948343969E+02  0.14109237817E+03  0.12499859046E+03 0.  0.
          2    1    1    2  501    0 -0.18868141915E+02 -0.59208953335E+02 -0.45767512625E+03  0.46187468877E+03  0.00000000000E+00 0. -1.
          1    1    1    2  502    0  0.50628506582E+02  0.13906590797E+02  0.32075158351E+03  0.32502033362E+03  0.00000000000E+00 0. -1.
         22    1    3    3    0    0 -0.45027958401E+01 -0.11283499543E+02 -0.68716134369E+02  0.69781800313E+02  0.00000000000E+00 0.  1.
         22    1    3    3    0    0 -0.27257568826E+02  0.56585862081E+02  0.33767790399E+02  0.71310577857E+02  0.00000000000E+00 0.  1.
</event>
<event>
 7    1  0.5977291E-006  0.6867901E+02  0.7818608E-02  0.1398929E+00
          2   -1    0    0  502    0  0.00000000000E+00  0.00000000000E+00  0.10570634257E+04  0.10570634257E+04  0.00000000000E+00 0. -1.
          1   -1    0    0  501    0 -0.00000000000E+00 -0.00000000000E+00 -0.47988873639E+03  0.47988873639E+03  0.00000000000E+00 0. -1.
         25    2    1    2    0    0  0.41552671737E+02 -0.10076382087E+03 -0.26450455674E+03  0.31219583558E+03  0.12499442824E+03 0.  0.
          2    1    1    2  501    0 -0.36108470667E+02  0.49086350785E+02 -0.18601877197E+03  0.19574543420E+03  0.00000000000E+00 0. -1.
          1    1    1    2  502    0 -0.54442010703E+01  0.51677470084E+02  0.10276980180E+04  0.10290108923E+04  0.00000000000E+00 0. -1.
         22    1    3    3    0    0  0.31685859342E+02 -0.10754547295E+03 -0.27455467677E+03  0.29656414647E+03  0.00000000000E+00 0. -1.
         22    1    3    3    0    0  0.98668123955E+01  0.67816520832E+01  0.10050120028E+02  0.15631689109E+02  0.00000000000E+00 0. -1.
</event>
<event>
 7    1  0.5977291E-006  0.1030924E+03  0.7818608E-02  0.1402928E+00
          2   -1    0    0  502    0  0.00000000000E+00  0.00000000000E+00  0.13175836107E+04  0.13175836107E+04  0.00000000000E+00 0. -1.
          1   -1    0    0  501    0 -0.00000000000E+00 -0.00000000000E+00 -0.58127428840E+03  0.58127428840E+03  0.00000000000E+00 0. -1.
         25    2    1    2    0    0  0.57181479567E+02  0.77219274727E+02 -0.26306735186E+03  0.30669677721E+03  0.12500377411E+03 0.  0.
          2    1    1    2  501    0 -0.87485105899E+02 -0.62845025672E+02 -0.28637932375E+03  0.30596774026E+03  0.00000000000E+00 0. -1.
          1    1    1    2  502    0  0.30303626332E+02 -0.14374249055E+02  0.12857559979E+04  0.12861933816E+04  0.00000000000E+00 0. -1.
         22    1    3    3    0    0  0.26421847605E+02 -0.28081094484E+02 -0.29159232180E+02  0.48341728554E+02  0.00000000000E+00 0.  1.
         22    1    3    3    0    0  0.30759631962E+02  0.10530036921E+03 -0.23390811968E+03  0.25835504865E+03  0.00000000000E+00 0.  1.
</event>
<event>
 7    1  0.5977291E-006  0.7678813E+02  0.7818608E-02  0.1451982E+00
          2   -1    0    0  502    0  0.00000000000E+00  0.00000000000E+00  0.12308665368E+03  0.12308665368E+03  0.00000000000E+00 0. -1.
          1   -1    0    0  501    0 -0.00000000000E+00 -0.00000000000E+00 -0.22501569107E+04  0.22501569107E+04  0.00000000000E+00 0. -1.
         25    2    1    2    0    0 -0.82064301182E+02 -0.65981898047E+02 -0.65032610433E+03  0.67055041643E+03  0.12500263436E+03 0.  0.
          2    1    1    2  501    0  0.57146631335E+02  0.47540146456E+02 -0.15867054194E+04  0.15884457469E+04  0.00000000000E+00 0. -1.
          1    1    1    2  502    0  0.24917669847E+02  0.18441751591E+02  0.10996126669E+03  0.11424740104E+03  0.00000000000E+00 0. -1.
         22    1    3    3    0    0 -0.75944292305E+02 -0.32199523610E+02 -0.16956163338E+03  0.18856164076E+03  0.00000000000E+00 0.  1.
         22    1    3    3    0    0 -0.61200088779E+01 -0.33782374437E+02 -0.48076447096E+03  0.48198877567E+03  0.00000000000E+00 0.  1.
</event>
<event>
 7    1  0.5977291E-006  0.2832801E+02  0.7818608E-02  0.1621718E+00
          2   -1    0    0  502    0  0.00000000000E+00  0.00000000000E+00  0.11406449910E+04  0.11406449910E+04  0.00000000000E+00 0. -1.
          1   -1    0    0  501    0 -0.00000000000E+00 -0.00000000000E+00 -0.23336159159E+03  0.23336159159E+03  0.00000000000E+00 0. -1.
         25    2    1    2    0    0  0.45662744468E+02 -0.80909799610E+01  0.27846549190E+03  0.30871783491E+03  0.12495247586E+03 0.  0.
          2    1    1    2  501    0 -0.25206021501E+02 -0.11267301068E+02 -0.21712687856E+03  0.21887525439E+03  0.00000000000E+00 0. -1.
          1    1    1    2  502    0 -0.20456722967E+02  0.19358281029E+02  0.84594478608E+03  0.84641349331E+03  0.00000000000E+00 0. -1.
         22    1    3    3    0    0 -0.11679615037E+02  0.86290213193E+01  0.23350779850E+03  0.23395889677E+03  0.00000000000E+00 0. -1.
         22    1    3    3    0    0  0.57342359505E+02 -0.16720001280E+02  0.44957693401E+02  0.74758938144E+02  0.00000000000E+00 0. -1.
</event>
<event>
 7    1  0.5977291E-006  0.6516963E+02  0.7818608E-02  0.1459485E+00
          2   -1    0    0  502    0  0.00000000000E+00  0.00000000000E+00  0.35593364766E+03  0.35593364766E+03  0.00000000000E+00 0. -1.
          1   -1    0    0  501    0 -0.00000000000E+00 -0.00000000000E+00 -0.64012942753E+03  0.64012942753E+03  0.00000000000E+00 0. -1.
         25    2    1    2    0    0  0.47302021201E+02  0.33890755122E+02 -0.24213848896E+03  0.27864275205E+03  0.12499868377E+03 0.  0.
          2    1    1    2  501    0 -0.22242424377E+02  0.26474472254E+02 -0.37577489144E+03  0.37736241488E+03  0.00000000000E+00 0. -1.
          1    1    1    2  502    0 -0.25059596824E+02 -0.60365227376E+02  0.33371760053E+03  0.34005790826E+03  0.00000000000E+00 0. -1.
         22    1    3    3    0    0  0.56687192558E+02  0.22710789958E+02 -0.33807278167E+02  0.69800786798E+02  0.00000000000E+00 0.  1.
         22    1    3    3    0    0 -0.93851713561E+01  0.11179965164E+02 -0.20833121079E+03  0.20884196526E+03  0.00000000000E+00 0.  1.
</event>
<event>
 7    1  0.5977291E-006  0.7029930E+02  0.7818608E-02  0.1471761E+00
          2   -1    0    0  502    0  0.00000000000E+00  0.00000000000E+00  0.69325349192E+03  0.69325349192E+03  0.00000000000E+00 0. -1.
          1   -1    0    0  501    0 -0.00000000000E+00 -0.00000000000E+00 -0.83704826708E+03  0.83704826708E+03  0.00000000000E+00 0. -1.
         25    2    1    2    0    0 -0.91201170685E+02  0.39132414003E+02 -0.38232786492E+03  0.41430380380E+03  0.12499618468E+03 0.  0.
          2    1    1    2  501    0  0.28097379517E+02 -0.84499944709E+01 -0.43642110844E+03  0.43740627457E+03  0.00000000000E+00 0. -1.
          1    1    1    2  502    0  0.63103791167E+02 -0.30682419532E+02  0.67495419821E+03  0.67859168062E+03  0.00000000000E+00 0. -1.
         22    1    3    3    0    0 -0.57442978935E+02  0.83294738398E+02 -0.28204991855E+03  0.29964957172E+03  0.00000000000E+00 0. -1.
         22    1    3    3    0    0 -0.33758191750E+02 -0.44162324395E+02 -0.10027794637E+03  0.11465423208E+03  0.00000000000E+00 0. -1.
</event>
<event>
 7    1  0.5977291E-006  0.3495571E+03  0.7818608E-02  0.1147727E+00
          2   -1    0    0  502    0  0.00000000000E+00  0.00000000000E+00  0.22463667931E+04  0.22463667931E+04  0.00000000000E+00 0. -1.
          1   -1    0    0  501    0 -0.00000000000E+00 -0.00000000000E+00 -0.40452221574E+03  0.40452221574E+03  0.00000000000E+00 0. -1.
         25    2    1    2    0    0 -0.18310352180E+03  0.36601750730E+03  0.34487080917E+03  0.54959593766E+03  0.12499641725E+03 0.  0.
          2    1    1    2  501    0  0.22259010309E+03 -0.25567331590E+03 -0.20442707474E+03  0.39586061605E+03  0.00000000000E+00 0. -1.
          1    1    1    2  502    0 -0.39486581282E+02 -0.11034419140E+03  0.17014008429E+04  0.17054324551E+04  0.00000000000E+00 0. -1.
         22    1    3    3    0    0 -0.16803135721E+03  0.23937381342E+03  0.28623674299E+03  0.40922589434E+03  0.00000000000E+00 0.  1.
         22    1    3    3    0    0 -0.15072164588E+02  0.12664369388E+03  0.58634066179E+02  0.14037004332E+03  0.00000000000E+00 0.  1.
</event>
<event>
 7    1  0.1027411E-005  0.1113116E+03  0.7818608E-02  0.1346261E+00
          2   -1    0    0  502    0  0.00000000000E+00  0.00000000000E+00  0.18922833837E+04  0.18922833837E+04  0.00000000000E+00 0. -1.
          1   -1    0    0  501    0 -0.00000000000E+00 -0.00000000000E+00 -0.10101867670E+04  0.10101867670E+04  0.00000000000E+00 0. -1.
         25    2    1    2    0    0  0.12452337024E+03  0.99263434905E+02 -0.23830853593E+03  0.31269107967E+03  0.12500181503E+03 0.  0.
          2    1    1    2  501    0 -0.43844234760E+02 -0.22990173581E+02 -0.73218913439E+03  0.73386088159E+03  0.00000000000E+00 0. -1.
          1    1    1    2  502    0 -0.80679135478E+02 -0.76273261324E+02  0.18525942870E+04  0.18559181894E+04  0.00000000000E+00 0. -1.
         22    1    3    3    0    0  0.10406897320E+03  0.56255039675E+02 -0.23718824437E+03  0.26505328509E+03  0.00000000000E+00 0.  1.
         22    1    3    3    0    0  0.20454397040E+02  0.43008395230E+02 -0.11202915575E+01  0.47637794573E+02  0.00000000000E+00 0.  1.
</event>
<event>
 7    1  0.5977291E-006  0.3176611E+02  0.7818608E-02  0.1610278E+00
          2   -1    0    0  502    0  0.00000000000E+00  0.00000000000E+00  0.55989609216E+03  0.55989609216E+03  0.00000000000E+00 0. -1.
          1   -1    0    0  501    0 -0.00000000000E+00 -0.00000000000E+00 -0.40817346798E+03  0.40817346798E+03  0.00000000000E+00 0. -1.
         25    2    1    2    0    0 -0.42518327830E+02 -0.17351152439E+02  0.86216315053E+02  0.15863672056E+03  0.12499394160E+03 0.  0.
          2    1    1    2  501    0  0.11498673975E+02  0.23696588030E+02 -0.37092277106E+03  0.37185675989E+03  0.00000000000E+00 0. -1.
          1    1    1    2  502    0  0.31019653855E+02 -0.63454355909E+01  0.43642908019E+03  0.43757607969E+03  0.00000000000E+00 0. -1.
         22    1    3    3    0    0  0.22694034134E+02 -0.21534680476E+02 -0.17652738278E+02  0.35921871015E+02  0.00000000000E+00 0.  1.
         22    1    3    3    0    0 -0.65212361964E+02  0.41835280372E+01  0.10386905333E+03  0.12271484955E+03  0.00000000000E+00 0.  1.
</event>
<event>
 7    1  0.5977291E-006  0.1038954E+03  0.7818608E-02  0.1276438E+00
          2   -1    0    0  502    0  0.00000000000E+00  0.00000000000E+00  0.55854057622E+03  0.55854057622E+03  0.00000000000E+00 0. -1.
          1   -1    0    0  501    0 -0.00000000000E+00 -0.00000000000E+00 -0.83499862802E+03  0.83499862802E+03  0.00000000000E+00 0. -1.
         25    2    1    2    0    0  0.84366731983E+02 -0.10107302518E+03  0.71848404661E+02  0.19523920221E+03  0.12499060341E+03 0.  0.
          2    1    1    2  501    0  0.15471308863E+02  0.10314622735E+03 -0.76384401140E+03  0.77093201994E+03  0.00000000000E+00 0. -1.
          1    1    1    2  502    0 -0.99838040845E+02 -0.20732021675E+01  0.41553755493E+03  0.42736798210E+03  0.00000000000E+00 0. -1.
         22    1    3    3    0    0  0.33714992655E+02 -0.16765257789E+01  0.76465677280E+02  0.83585353204E+02  0.00000000000E+00 0. -1.
         22    1    3    3    0    0  0.50651739328E+02 -0.99396499404E+02 -0.46172726190E+01  0.11165384900E+03  0.00000000000E+00 0. -1.
</event>
<event>
 7    1  0.5977291E-006  0.4370525E+02  0.7818608E-02  0.1555861E+00
          2   -1    0    0  502    0  0.00000000000E+00  0.00000000000E+00  0.71863614543E+03  0.71863614543E+03  0.00000000000E+00 0. -1.
          1   -1    0    0  501    0 -0.00000000000E+00 -0.00000000000E+00 -0.26335726035E+04  0.26335726035E+04  0.00000000000E+00 0. -1.
         25    2    1    2    0    0 -0.71619752658E+01 -0.63941533438E+02 -0.17656093888E+03  0.22569682510E+03  0.12500191251E+03 0.  0.
          2    1    1    2  501    0  0.18215437262E+02  0.39576262004E+02 -0.24319907044E+04  0.24323809054E+04  0.00000000000E+00 0. -1.
          1    1    1    2  502    0 -0.11053461997E+02  0.24365271434E+02  0.69361518526E+03  0.69413101839E+03  0.00000000000E+00 0. -1.
         22    1    3    3    0    0  0.28234307283E+02 -0.31780958213E+02  0.27074322910E+00  0.42512100802E+02  0.00000000000E+00 0.  1.
         22    1    3    3    0    0 -0.35396282549E+02 -0.32160575225E+02 -0.17683168211E+03  0.18318472430E+03  0.00000000000E+00 0.  1.
</event>
<event>
 7    1  0.5977291E-006  0.9618942E+02  0.7818608E-02  0.1469276E+00
          2   -1    0    0  502    0  0.00000000000E+00  0.00000000000E+00  0.70470548138E+03  0.70470548138E+03  0.00000000000E+00 0. -1.
          1   -1    0    0  501    0 -0.00000000000E+00 -0.00000000000E+00 -0.49176229986E+03  0.49176229986E+03  0.00000000000E+00 0. -1.
         25    2    1    2    0    0 -0.67334454499E+02 -0.78975700027E+02  0.35199906311E+02  0.16622247779E+03  0.12497915330E+03 0.  0.
          2    1    1    2  501    0 -0.83692355096E+01  0.20159964483E+02 -0.42216328260E+03  0.42272722345E+03  0.00000000000E+00 0. -1.
          1    1    1    2  502    0  0.75703690008E+02  0.58815735544E+02  0.59990655781E+03  0.60751808000E+03  0.00000000000E+00 0. -1.
         22    1    3    3    0    0 -0.89839792832E+02 -0.43258911147E+02 -0.14777616406E+02  0.10080128827E+03  0.00000000000E+00 0.  1.
         22    1    3    3    0    0  0.22505338334E+02 -0.35716788880E+02  0.49977522718E+02  0.65421189522E+02  0.00000000000E+00 0.  1.
</event>
<event>
 7    1  0.5977291E-006  0.8063596E+02  0.7818608E-02  0.1450341E+00
          2   -1    0    0  502    0  0.00000000000E+00  0.00000000000E+00  0.78560514657E+03  0.78560514657E+03  0.00000000000E+00 0. -1.
          1   -1    0    0  501    0 -0.00000000000E+00 -0.00000000000E+00 -0.68475555428E+02  0.68475555428E+02  0.00000000000E+00 0. -1.
         25    2    1    2    0    0  0.96257893158E+02 -0.43608982231E+02  0.27429672273E+03  0.31942499633E+03  0.12500524330E+03 0.  0.
          2    1    1    2  501    0 -0.74321490099E+02  0.23322286818E+02 -0.12024947731E+02  0.78817588905E+02  0.00000000000E+00 0. -1.
          1    1    1    2  502    0 -0.21936403059E+02  0.20286695413E+02  0.45485781614E+03  0.45583811677E+03  0.00000000000E+00 0. -1.
         22    1    3    3    0    0 -0.83644512042E+01 -0.50943949941E+02  0.13873289408E+03  0.14802724743E+03  0.00000000000E+00 0.  1.
         22    1    3    3    0    0  0.10462234436E+03  0.73349677105E+01  0.13556382864E+03  0.17139774890E+03  0.00000000000E+00 0.  1.
</event>
<event>
 7    1  0.5977291E-006  0.3892385E+02  0.7818608E-02  0.1588597E+00
          2   -1    0    0  502    0  0.00000000000E+00  0.00000000000E+00  0.17881288800E+03  0.17881288800E+03  0.00000000000E+00 0. -1.
          1   -1    0    0  501    0 -0.00000000000E+00 -0.00000000000E+00 -0.16185998235E+03  0.16185998235E+03  0.00000000000E+00 0. -1.
         25    2    1    2    0    0 -0.51525120959E+01 -0.31056967319E+02 -0.56107894417E+02  0.14058608873E+03  0.12500107571E+03 0.  0.
          2    1    1    2  501    0  0.29508390114E+02  0.28469119027E+02 -0.55617572793E+02  0.69098120298E+02  0.00000000000E+00 0. -1.
          1    1    1    2  502    0 -0.24355878018E+02  0.25878482921E+01  0.12867837286E+03  0.13098866132E+03  0.00000000000E+00 0. -1.
         22    1    3    3    0    0 -0.19179661356E+02 -0.77748948579E+02 -0.32601064445E+02  0.86461481701E+02  0.00000000000E+00 0. -1.
         22    1    3    3    0    0  0.14027149260E+02  0.46691981261E+02 -0.23506829972E+02  0.54124607027E+02  0.00000000000E+00 0. -1.
</event>
<event>
 7    1  0.5977291E-006  0.6595459E+02  0.7818608E-02  0.1528585E+00
          2   -1    0    0  502    0  0.00000000000E+00  0.00000000000E+00  0.14674615945E+04  0.14674615945E+04  0.00000000000E+00 0. -1.
          1   -1    0    0  501    0 -0.00000000000E+00 -0.00000000000E+00 -0.46555724795E+03  0.46555724795E+03  0.00000000000E+00 0. -1.
         25    2    1    2    0    0  0.18859193602E+02 -0.64301780861E+02 -0.16963362531E+03  0.22111239030E+03  0.12499893641E+03 0.  0.
          2    1    1    2  501    0 -0.21100807617E+02 -0.16236632435E+01 -0.26901392808E+03  0.26984509235E+03  0.00000000000E+00 0. -1.
          1    1    1    2  502    0  0.22416140146E+01  0.65925444105E+02  0.14405518999E+04  0.14420613598E+04  0.00000000000E+00 0. -1.
         22    1    3    3    0    0  0.22522804330E+02 -0.99509541788E+02 -0.99295126632E+02  0.14236905491E+03  0.00000000000E+00 0. -1.
         22    1    3    3    0    0 -0.36636107279E+01  0.35207760927E+02 -0.70338498675E+02  0.78743335393E+02  0.00000000000E+00 0. -1.
</event>
<event>
 7    1  0.5977291E-006  0.9858109E+02  0.7818608E-02  0.1286700E+00
          2   -1    0    0  502    0  0.00000000000E+00  0.00000000000E+00  0.18823960743E+04  0.18823960743E+04  0.00000000000E+00 0. -1.
          1   -1    0    0  501    0 -0.00000000000E+00 -0.00000000000E+00 -0.60270527179E+02  0.60270527179E+02  0.00000000000E+00 0. -1.
         25    2    1    2    0    0  0.39076607619E+02 -0.54056979159E+02  0.26321994011E+03  0.29892780820E+03  0.12499583749E+03 0.  0.
          2    1    1    2  501    0 -0.93103401558E+02 -0.32403505601E+02  0.18917767600E+02  0.10037984104E+03  0.00000000000E+00 0. -1.
          1    1    1    2  502    0  0.54026793939E+02  0.86460484760E+02  0.15399878394E+04  0.15433589522E+04  0.00000000000E+00 0. -1.
         22    1    3    3    0    0 -0.28991362747E+02  0.22126652296E+02  0.44584200786E+02  0.57600684158E+02  0.00000000000E+00 0.  1.
         22    1    3    3    0    0  0.68067970366E+02 -0.76183631455E+02  0.21863573932E+03  0.24132712404E+03  0.00000000000E+00 0.  1.
</event>
<event>
 7    1  0.5977291E-006  0.1272851E+03  0.7818608E-02  0.1300265E+00
          2   -1    0    0  502    0  0.00000000000E+00  0.00000000000E+00  0.29183576301E+04  0.29183576301E+04  0.00000000000E+00 0. -1.
          1   -1    0    0  501    0 -0.00000000000E+00 -0.00000000000E+00 -0.21841011025E+03  0.21841011025E+03  0.00000000000E+00 0. -1.
         25    2    1    2    0    0 -0.11540387866E+03 -0.12751625405E+02  0.16179316052E+03  0.23512327080E+03  0.12500106609E+03 0.  0.
          2    1    1    2  501    0  0.12460061254E+02 -0.63966176275E+02 -0.17433563780E+03  0.18611781065E+03  0.00000000000E+00 0. -1.
          1    1    1    2  502    0  0.10294381741E+03  0.76717801680E+02  0.27124899971E+04  0.27155266589E+04  0.00000000000E+00 0. -1.
         22    1    3    3    0    0 -0.11012130069E+03 -0.37979783579E+01  0.46886865644E+02  0.11974766668E+03  0.00000000000E+00 0. -1.
         22    1    3    3    0    0 -0.52825779696E+01 -0.89536470469E+01  0.11490629487E+03  0.11537560412E+03  0.00000000000E+00 0. -1.
</event>
<event>
 7    1  0.5977291E-006  0.1135013E+03  0.7818608E-02  0.1332693E+00
          2   -1    0    0  502    0  0.00000000000E+00  0.00000000000E+00  0.52423337305E+03  0.52423337305E+03  0.00000000000E+00 0. -1.
          1   -1    0    0  501    0 -0.00000000000E+00 -0.00000000000E+00 -0.21524602309E+04  0.21524602309E+04  0.00000000000E+00 0. -1.
         25    2    1    2    0    0 -0.95992293447E+02  0.27443781117E+02 -0.85846615452E+03  0.87324492810E+03  0.12499953787E+03 0.  0.
          2    1    1    2  501    0  0.90417322204E+02 -0.81770249388E+02 -0.12822629228E+04  0.12880449794E+04  0.00000000000E+00 0. -1.
          1    1    1    2  502    0  0.55749712430E+01  0.54326468271E+02  0.51250221940E+03  0.51540369649E+03  0.00000000000E+00 0. -1.
         22    1    3    3    0    0 -0.46951460951E+02  0.60431198367E+01 -0.75749367236E+03  0.75897142413E+03  0.00000000000E+00 0.  1.
         22    1    3    3    0    0 -0.49040832496E+02  0.21400661280E+02 -0.10097248216E+03  0.11427350397E+03  0.00000000000E+00 0.  1.
</event>
<event>
 7    1  0.5977291E-006  0.7168756E+02  0.7818608E-02  0.1414063E+00
          2   -1    0    0  502    0  0.00000000000E+00  0.00000000000E+00  0.20182733511E+04  0.20182733511E+04  0.00000000000E+00 0. -1.
          1   -1    0    0  501    0 -0.00000000000E+00 -0.00000000000E+00 -0.16601870619E+03  0.16601870619E+03  0.00000000000E+00 0. -1.
         25    2    1    2    0    0 -0.12409616657E+01 -0.60697271354E+02 -0.88638370761E+02  0.16482400890E+03  0.12499797759E+03 0.  0.
          2    1    1    2  501    0 -0.36663955351E+02  0.83452641703E+02  0.14179953805E+02  0.92247819048E+02  0.00000000000E+00 0. -1.
          1    1    1    2  502    0  0.37904917017E+02 -0.22755370350E+02  0.19267130618E+04  0.19272202293E+04  0.00000000000E+00 0. -1.
         22    1    3    3    0    0  0.11343476811E+02  0.36143869608E+02 -0.93124166569E+01  0.39009933099E+02  0.00000000000E+00 0. -1.
         22    1    3    3    0    0 -0.12584438477E+02 -0.96841140962E+02 -0.79325954104E+02  0.12581407580E+03  0.00000000000E+00 0. -1.
</event>
<event>
 7    1  0.5977291E-006  0.2408709E+02  0.7818608E-02  0.1690921E+00
          2   -1    0    0  502    0  0.00000000000E+00  0.00000000000E+00  0.28188078849E+02  0.28188078849E+02  0.00000000000E+00 0. -1.
          1   -1    0    0  501    0 -0.00000000000E+00 -0.00000000000E+00 -0.34529288892E+03  0.34529288892E+03  0.00000000000E+00 0. -1.
         25    2    1    2    0    0 -0.33596398553E+02  0.28505428977E+02 -0.20182112868E+03  0.24144944696E+03  0.12499915990E+03 0.  0.
          2    1    1    2  501    0  0.19972268723E+02 -0.11191583096E+02 -0.10544715584E+03  0.10790387261E+03  0.00000000000E+00 0. -1.
          1    1    1    2  502    0  0.13624129830E+02 -0.17313845881E+02 -0.98365255448E+01  0.24127648199E+02  0.00000000000E+00 0. -1.
         22    1    3    3    0    0 -0.16404304350E-01 -0.47221239989E+02 -0.51920019217E+02  0.70182149944E+02  0.00000000000E+00 0. -1.
         22    1    3    3    0    0 -0.33579994248E+02  0.75726668966E+02 -0.14990110947E+03  0.17126729701E+03  0.00000000000E+00 0. -1.
</event>
<event>
 7    1  0.5977291E-006  0.1496657E+03  0.7818608E-02  0.1241418E+00
          2   -1    0    0  502    0  0.00000000000E+00  0.00000000000E+00  0.13052364445E+04  0.13052364445E+04  0.00000000000E+00 0. -1.
          1   -1    0    0  501    0 -0.00000000000E+00 -0.00000000000E+00 -0.28590031146E+03  0.28590031146E+03  0.00000000000E+00 0. -1.
         25    2    1    2    0    0  0.25357358092E+02 -0.17454189646E+03 -0.11454254368E+03  0.24465167376E+03  0.12500631158E+03 0.  0.
          2    1    1    2  501    0 -0.94557307647E+02  0.10534255572E+03 -0.56262376836E+02  0.15232725798E+03  0.00000000000E+00 0. -1.
          1    1    1    2  502    0  0.69199949556E+02  0.69199340737E+02  0.11901410536E+04  0.11941578242E+04  0.00000000000E+00 0. -1.
         22    1    3    3    0    0 -0.28221887682E+02 -0.58699284218E+02 -0.95514948799E+02  0.11560789919E+03  0.00000000000E+00 0.  1.
         22    1    3    3    0    0  0.53579245773E+02 -0.11584261224E+03 -0.19027594876E+02  0.12904377457E+03  0.00000000000E+00 0.  1.
</event>
<event>
 7    1  0.5977291E-006  0.4219789E+02  0.7818608E-02  0.1510090E+00
          2   -1    0    0  502    0  0.00000000000E+00  0.00000000000E+00  0.19501591296E+04  0.19501591296E+04  0.00000000000E+00 0. -1.
          1   -1    0    0  501    0 -0.00000000000E+00 -0.00000000000E+00 -0.59720433190E+02  0.59720433190E+02  0.00000000000E+00 0. -1.
         25    2    1    2    0    0 -0.36312502105E+02 -0.36371658992E+01  0.47332468076E+03  0.49091080913E+03  0.12500136927E+03 0.  0.
          2    1    1    2  501    0  0.15633674369E+02 -0.34015795025E+02 -0.43688876780E+02  0.57534372680E+02  0.00000000000E+00 0. -1.
          1    1    1    2  502    0  0.20678827737E+02  0.37652960924E+02  0.14608028924E+04  0.14614343809E+04  0.00000000000E+00 0. -1.
         22    1    3    3    0    0 -0.60125020335E+02  0.35103867066E+02  0.16263491566E+03  0.17691075531E+03  0.00000000000E+00 0.  1.
         22    1    3    3    0    0  0.23812518229E+02 -0.38741032966E+02  0.31068976510E+03  0.31400005382E+03  0.00000000000E+00 0.  1.
</event>
<event>
 7    1  0.5977291E-006  0.5142824E+02  0.7818608E-02  0.1466460E+00
          2   -1    0    0  502    0  0.00000000000E+00  0.00000000000E+00  0.20769627183E+04  0.20769627183E+04  0.00000000000E+00 0. -1.
          1   -1    0    0  501    0 -0.00000000000E+00 -0.00000000000E+00 -0.24296876897E+03  0.24296876897E+03  0.00000000000E+00 0. -1.
         25    2    1    2    0    0  0.48592372825E+02  0.17836315202E+02 -0.33405639288E+02  0.13935625175E+03  0.12499950131E+03 0.  0.
          2    1    1    2  501    0 -0.20452930435E+02 -0.48557414078E+02 -0.15193463310E+03  0.16081131043E+03  0.00000000000E+00 0. -1.
          1    1    1    2  502    0 -0.28139442389E+02  0.30721098876E+02  0.20193342218E+04  0.20197639251E+04  0.00000000000E+00 0. -1.
         22    1    3    3    0    0 -0.42318096017E+02  0.12543027337E+02 -0.85188557051E+01  0.44952415817E+02  0.00000000000E+00 0. -1.
         22    1    3    3    0    0  0.90910468841E+02  0.52932878655E+01 -0.24886783583E+02  0.94403835931E+02  0.00000000000E+00 0. -1.
</event>
<event>
 7    1  0.5977291E-006  0.5299072E+02  0.7818608E-02  0.1490893E+00
          2   -1    0    0  502    0  0.00000000000E+00  0.00000000000E+00  0.34990665359E+03  0.34990665359E+03  0.00000000000E+00 0. -1.
          1   -1    0    0  501    0 -0.00000000000E+00 -0.00000000000E+00 -0.12759080262E+04  0.12759080262E+04  0.00000000000E+00 0. -1.
         25    2    1    2    0    0 -0.18925412063E+02 -0.82874505483E+02  0.68208209920E+02  0.16584265327E+03  0.12500028345E+03 0.  0.
          2    1    1    2  501    0  0.10012462530E+02  0.32504939842E+02 -0.12240428560E+04  0.12245153057E+04  0.00000000000E+00 0. -1.
          1    1    1    2  502    0  0.89129495330E+01  0.50369565641E+02  0.22983327345E+03  0.23545672086E+03  0.00000000000E+00 0. -1.
         22    1    3    3    0    0 -0.41837285298E+02 -0.12745167324E+02 -0.22285195607E+02  0.49085921347E+02  0.00000000000E+00 0. -1.
         22    1    3    3    0    0  0.22911873235E+02 -0.70129338159E+02  0.90493405526E+02  0.11675673192E+03  0.00000000000E+00 0. -1.
</event>
<event>
 7    1  0.5977291E-006  0.1656356E+03  0.7818608E-02  0.1247294E+00
          2   -1    0    0  502    0  0.00000000000E+00  0.00000000000E+00  0.48708782705E+03  0.48708782705E+03  0.00000000000E+00 0. -1.
          1   -1    0    0  501    0 -0.00000000000E+00 -0.00000000000E+00 -0.76905521470E+03  0.76905521470E+03  0.00000000000E+00 0. -1.
         25    2    1    2    0    0  0.35725271100E+02 -0.15856459012E+03 -0.29661576053E+03  0.36058913840E+03  0.12499837241E+03 0.  0.
          2    1    1    2  501    0 -0.83332013675E+02 -0.12084925934E+01 -0.42096127328E+03  0.42913177295E+03  0.00000000000E+00 0. -1.
          1    1    1    2  502    0  0.47606742575E+02  0.15977308271E+03  0.43560964616E+03  0.46642213040E+03  0.00000000000E+00 0. -1.
         22    1    3    3    0    0 -0.44675055752E+02 -0.77864992242E+02 -0.11037780733E+03  0.14227465682E+03  0.00000000000E+00 0. -1.
         22    1    3    3    0    0  0.80400326851E+02 -0.80699597875E+02 -0.18623795320E+03  0.21831448158E+03  0.00000000000E+00 0. -1.
</event>
<event>
 7    1  0.5977291E-006  0.8574282E+02  0.7818608E-02  0.1328258E+00
          2   -1    0    0  502    0  0.00000000000E+00  0.00000000000E+00  0.19645522100E+04  0.19645522100E+04  0.00000000000E+00 0. -1.
          1   -1    0    0  501    0 -0.00000000000E+00 -0.00000000000E+00 -0.19370517339E+03  0.19370517339E+03  0.00000000000E+00 0. -1.
         25    2    1    2    0    0 -0.12137501328E+03  0.66568138081E+02  0.10977870788E+04  0.11135195316E+04  0.12500426413E+03 0.  0.
          2    1    1    2  501    0  0.46386603598E+02 -0.71724979930E+02 -0.17427139009E+03  0.19407912599E+03  0.00000000000E+00 0. -1.
          1    1    1    2  502    0  0.74988409681E+02  0.51568418487E+01  0.84733134791E+03  0.85065872578E+03  0.00000000000E+00 0. -1.
         22    1    3    3    0    0 -0.14034544991E+03  0.56239508345E+02  0.75144801836E+03  0.76650756807E+03  0.00000000000E+00 0. -1.
         22    1    3    3    0    0  0.18970436628E+02  0.10328629736E+02  0.34633906043E+03  0.34701196354E+03  0.00000000000E+00 0. -1.
</event>
<event>
 7    1  0.5977291E-006  0.6647612E+02  0.7818608E-02  0.1412758E+00
          2   -1    0    0  502    0  0.00000000000E+00  0.00000000000E+00  0.49841488166E+03  0.49841488166E+03  0.00000000000E+00 0. -1.
          1   -1    0    0  501    0 -0.00000000000E+00 -0.00000000000E+00 -0.26500336591E+03  0.26500336591E+03  0.00000000000E+00 0. -1.
         25    2    1    2    0    0  0.11099135260E+02 -0.49795024612E+02 -0.23717830037E+02  0.13707682216E+03  0.12499913772E+03 0.  0.
          2    1    1    2  501    0  0.36006553894E+02  0.59827641592E+02 -0.17662216993E+03  0.18992422050E+03  0.00000000000E+00 0. -1.
          1    1    1    2  502    0 -0.47105689154E+02 -0.10032616980E+02  0.43375151572E+03  0.43641720491E+03  0.00000000000E+00 0. -1.
         22    1    3    3    0    0  0.63689047312E+02 -0.25405615592E+02 -0.36551605633E+02  0.77703023914E+02  0.00000000000E+00 0. -1.
         22    1    3    3    0    0 -0.52589912052E+02 -0.24389409020E+02  0.12833775596E+02  0.59373798245E+02  0.00000000000E+00 0. -1.
</event>
<event>
 7    1  0.5977291E-006  0.2293229E+03  0.7818608E-02  0.1263464E+00
          2   -1    0    0  502    0  0.00000000000E+00  0.00000000000E+00  0.29464885586E+04  0.29464885586E+04  0.00000000000E+00 0. -1.
          1   -1    0    0  501    0 -0.00000000000E+00 -0.00000000000E+00 -0.57967003858E+03  0.57967003858E+03  0.00000000000E+00 0. -1.
         25    2    1    2    0    0 -0.54230944553E+02 -0.17446140189E+03  0.12870546048E+03  0.25606402222E+03  0.12500364722E+03 0.  0.
          2    1    1    2  501    0 -0.37678291460E+01 -0.51150694390E+02 -0.50977582987E+03  0.51234947720E+03  0.00000000000E+00 0. -1.
          1    1    1    2  502    0  0.57998773699E+02  0.22561209628E+03  0.27478888894E+04  0.27577450978E+04  0.00000000000E+00 0. -1.
         22    1    3    3    0    0  0.23194251454E+02 -0.10065856352E+03  0.10337911316E+03  0.14614157775E+03  0.00000000000E+00 0. -1.
         22    1    3    3    0    0 -0.77425196007E+02 -0.73802838373E+02  0.25326347327E+02  0.10992244447E+03  0.00000000000E+00 0. -1.
</event>
<event>
 7    1  0.5977291E-006  0.2493842E+03  0.7818608E-02  0.1207173E+00
          2   -1    0    0  502    0  0.00000000000E+00  0.00000000000E+00  0.22544875162E+04  0.22544875162E+04  0.00000000000E+00 0. -1.
          1   -1    0    0  501    0 -0.00000000000E+00 -0.00000000000E+00 -0.18452579872E+04  0.18452579872E+04  0.00000000000E+00 0. -1.
         25    2    1    2    0    0  0.24813757704E+03 -0.15420981272E+03  0.12867106976E+04  0.13253687454E+04  0.12499987385E+03 0.  0.
          2    1    1    2  501    0 -0.83808150108E+02  0.45280867605E+01 -0.18119206021E+04  0.18138634397E+04  0.00000000000E+00 0. -1.
          1    1    1    2  502    0 -0.16432942693E+03  0.14968172596E+03  0.93443943346E+03  0.96051331821E+03  0.00000000000E+00 0. -1.
         22    1    3    3    0    0  0.18236004611E+03 -0.70414582959E+02  0.61665853552E+03  0.64690118978E+03  0.00000000000E+00 0.  1.
         22    1    3    3    0    0  0.65777530932E+02 -0.83795229764E+02  0.67005216212E+03  0.67846755565E+03  0.00000000000E+00 0.  1.
</event>
<event>
 7    1  0.5977291E-006  0.4146976E+02  0.7818608E-02  0.1571017E+00
          2   -1    0    0  502    0  0.00000000000E+00  0.00000000000E+00  0.14774114168E+02  0.14774114168E+02  0.00000000000E+00 0. -1.
          1   -1    0    0  501    0 -0.00000000000E+00 -0.00000000000E+00 -0.82482573759E+03  0.82482573759E+03  0.00000000000E+00 0. -1.
         25    2    1    2    0    0  0.25867025113E+02 -0.33621442464E+02 -0.47563012597E+03  0.49360923487E+03  0.12500622240E+03 0.  0.
          2    1    1    2  501    0 -0.40512958689E+02  0.12593377162E+02 -0.30048758462E+03  0.30346776020E+03  0.00000000000E+00 0. -1.
          1    1    1    2  502    0  0.14645933576E+02  0.21028065302E+02 -0.33933912834E+02  0.42522856688E+02  0.00000000000E+00 0. -1.
         22    1    3    3    0    0  0.36623194923E+02 -0.47134704275E+02 -0.47225346229E+03  0.47601078916E+03  0.00000000000E+00 0.  1.
         22    1    3    3    0    0 -0.10756169810E+02  0.13513261811E+02 -0.33766636784E+01  0.17598445708E+02  0.00000000000E+00 0.  1.
</event>
<event>
 7    1  0.5977291E-006  0.5310542E+02  0.7818608E-02  0.1448307E+00
          2   -1    0    0  502    0  0.00000000000E+00  0.00000000000E+00  0.62303667740E+03  0.62303667740E+03  0.00000000000E+00 0. -1.
          1   -1    0    0  501    0 -0.00000000000E+00 -0.00000000000E+00 -0.49057868968E+02  0.49057868968E+02  0.00000000000E+00 0. -1.
         25    2    1    2    0    0 -0.89593912014E+01  0.47265235501E+02  0.25621412234E+03  0.28911172991E+03  0.12500257080E+03 0.  0.
          2    1    1    2  501    0  0.45803413882E+02 -0.48006735156E+01 -0.12697358162E+02  0.47772608195E+02  0.00000000000E+00 0. -1.
          1    1    1    2  502    0 -0.36844022681E+02 -0.42464561985E+02  0.33046204425E+03  0.33521020826E+03  0.00000000000E+00 0. -1.
         22    1    3    3    0    0  0.17003372633E+02 -0.39687557262E+02  0.80443121275E+02  0.91297933398E+02  0.00000000000E+00 0.  1.
         22    1    3    3    0    0 -0.25962763835E+02  0.86952792763E+02  0.17577100107E+03  0.19781379652E+03  0.00000000000E+00 0.  1.
</event>
<event>
 7    1  0.5977291E-006  0.4667311E+02  0.7818608E-02  0.1468382E+00
          2   -1    0    0  502    0  0.00000000000E+00  0.00000000000E+00  0.50402688693E+03  0.50402688693E+03  0.00000000000E+00 0. -1.
          1   -1    0    0  501    0 -0.00000000000E+00 -0.00000000000E+00 -0.13516350701E+03  0.13516350701E+03  0.00000000000E+00 0. -1.
         25    2    1    2    0    0  0.51291264444E+02  0.43132733374E+02 -0.40154929057E+02  0.14740525940E+03  0.12499866269E+03 0.  0.
          2    1    1    2  501    0 -0.45169420175E+02  0.30956527264E+01 -0.27374646040E+02  0.52907757754E+02  0.00000000000E+00 0. -1.
          1    1    1    2  502    0 -0.61218442692E+01 -0.46228386101E+02  0.43639295502E+03  0.43887737678E+03  0.00000000000E+00 0. -1.
         22    1    3    3    0    0  0.45350137834E+02  0.85696865238E+02 -0.16506386500E+02  0.98351657375E+02  0.00000000000E+00 0.  1.
         22    1    3    3    0    0  0.59411266101E+01 -0.42564131863E+02 -0.23648542557E+02  0.49053602026E+02  0.00000000000E+00 0.  1.
</event>
<event>
 7    1  0.5977291E-006  0.9694444E+02  0.7818608E-02  0.1397879E+00
          2   -1    0    0  502    0  0.00000000000E+00  0.00000000000E+00  0.21545828017E+04  0.21545828017E+04  0.00000000000E+00 0. -1.
          1   -1    0    0  501    0 -0.00000000000E+00 -0.00000000000E+00 -0.15737579460E+03  0.15737579460E+03  0.00000000000E+00 0. -1.
         25    2    1    2    0    0 -0.85084503043E+02 -0.26487303394E+01  0.84933112413E+01  0.15146956763E+03  0.12499802059E+03 0.  0.
          2    1    1    2  501    0 -0.60172905699E+01  0.36629672188E+02 -0.80681239060E+02  0.88811052277E+02  0.00000000000E+00 0. -1.
          1    1    1    2  502    0  0.91101793613E+02 -0.33980941849E+02  0.20693949349E+04  0.20716779764E+04  0.00000000000E+00 0. -1.
         22    1    3    3    0    0 -0.67917065603E+02 -0.24462904363E+02  0.59400528335E+02  0.93485743600E+02  0.00000000000E+00 0.  1.
         22    1    3    3    0    0 -0.17167437440E+02  0.21814174024E+02 -0.50907217093E+02  0.57983824027E+02  0.00000000000E+00 0.  1.
</event>
<event>
 7    1  0.5977291E-006  0.2461161E+03  0.7818608E-02  0.1280255E+00
          2   -1    0    0  502    0  0.00000000000E+00  0.00000000000E+00  0.10715019846E+04  0.10715019846E+04  0.00000000000E+00 0. -1.
          1   -1    0    0  501    0 -0.00000000000E+00 -0.00000000000E+00 -0.14319714440E+04  0.14319714440E+04  0.00000000000E+00 0. -1.
         25    2    1    2    0    0  0.15306046437E+03  0.15015498714E+03 -0.56493315944E+02  0.25454238466E+03  0.12500521960E+03 0.  0.
          2    1    1    2  501    0 -0.19259814999E+03 -0.15958737168E+03 -0.12637661777E+04  0.12882806870E+04  0.00000000000E+00 0. -1.
          1    1    1    2  502    0  0.39537685622E+02  0.94323845424E+01  0.95979003424E+03  0.96065035694E+03  0.00000000000E+00 0. -1.
         22    1    3    3    0    0  0.67628700731E+02 -0.78302745817E+01 -0.83042651017E+01  0.68585094455E+02  0.00000000000E+00 0.  1.
         22    1    3    3    0    0  0.85431763634E+02  0.15798526172E+03 -0.48189050843E+02  0.18595729020E+03  0.00000000000E+00 0.  1.
</event>
<event>
 7    1  0.5977291E-006  0.7835570E+02  0.7818608E-02  0.1465749E+00
          2   -1    0    0  502    0  0.00000000000E+00  0.00000000000E+00  0.44403950709E+03  0.44403950709E+03  0.00000000000E+00 0. -1.
          1   -1    0    0  501    0 -0.00000000000E+00 -0.00000000000E+00 -0.22925891966E+03  0.22925891966E+03  0.00000000000E+00 0. -1.
         25    2    1    2    0    0  0.16363911401E+02 -0.99090180693E+02  0.57140728798E+02  0.17022815728E+03  0.12500368449E+03 0.  0.
          2    1    1    2  501    0 -0.24389411407E+02  0.72803878230E+02 -0.16356606891E+03  0.18069063886E+03  0.00000000000E+00 0. -1.
          1    1    1    2  502    0  0.80255000065E+01  0.26286302463E+02  0.32120592754E+03  0.32237963061E+03  0.00000000000E+00 0. -1.
         22    1    3    3    0    0  0.19719495322E+02 -0.10553233865E+03 -0.51816900698E+01  0.10748387279E+03  0.00000000000E+00 0. -1.
         22    1    3    3    0    0 -0.33555839213E+01  0.64421579594E+01  0.62322418868E+02  0.62744284490E+02  0.00000000000E+00 0. -1.
</event>
<event>
 7    1  0.5977291E-006  0.1036152E+03  0.7818608E-02  0.1407193E+00
          2   -1    0    0  502    0  0.00000000000E+00  0.00000000000E+00  0.90864565526E+03  0.90864565526E+03  0.00000000000E+00 0. -1.
          1   -1    0    0  501    0 -0.00000000000E+00 -0.00000000000E+00 -0.58618096894E+02  0.58618096894E+02  0.00000000000E+00 0. -1.
         25    2    1    2    0    0  0.11571406642E+03 -0.41161418549E+02  0.26960273697E+03  0.32155027057E+03  0.12499973271E+03 0.  0.
          2    1    1    2  501    0 -0.15671515209E+02  0.28209848128E+02 -0.19274727297E+02  0.37588655638E+02  0.00000000000E+00 0. -1.
          1    1    1    2  502    0 -0.10004255121E+03  0.12951570421E+02  0.59969954869E+03  0.60812482594E+03  0.00000000000E+00 0. -1.
         22    1    3    3    0    0  0.12823083623E+03  0.28509068964E+01  0.18112066738E+03  0.22193686305E+03  0.00000000000E+00 0. -1.
         22    1    3    3    0    0 -0.12516769810E+02 -0.44012325445E+02  0.88482069594E+02  0.99613407517E+02  0.00000000000E+00 0. -1.
</event>
<event>
 7    1  0.5977291E-006  0.5906313E+02  0.7818608E-02  0.1424761E+00
          2   -1    0    0  502    0  0.00000000000E+00  0.00000000000E+00  0.41984506560E+03  0.41984506560E+03  0.00000000000E+00 0. -1.
          1   -1    0    0  501    0 -0.00000000000E+00 -0.00000000000E+00 -0.10370760575E+04  0.10370760575E+04  0.00000000000E+00 0. -1.
         25    2    1    2    0    0 -0.12415696127E+02  0.18693719614E+02  0.43356745411E+02  0.13418807981E+03  0.12499211466E+03 0.  0.
          2    1    1    2  501    0 -0.19871136441E+02 -0.56107501799E+02 -0.98891636609E+03  0.99070605779E+03  0.00000000000E+00 0. -1.
          1    1    1    2  502    0  0.32286832568E+02  0.37413782185E+02  0.32832862876E+03  0.33202698552E+03  0.00000000000E+00 0. -1.
         22    1    3    3    0    0  0.26681017233E+02 -0.37127402006E+01 -0.34777831304E+02  0.43990438399E+02  0.00000000000E+00 0.  1.
         22    1    3    3    0    0 -0.39096713360E+02  0.22406459814E+02  0.78134576715E+02  0.90197641407E+02  0.00000000000E+00 0.  1.
</event>
<event>
 7    1  0.5977291E-006  0.4781137E+02  0.7818608E-02  0.1525533E+00
          2   -1    0    0  502    0  0.00000000000E+00  0.00000000000E+00  0.76270414550E+03  0.76270414550E+03  0.00000000000E+00 0. -1.
          1   -1    0    0  501    0 -0.00000000000E+00 -0.00000000000E+00 -0.27553816334E+03  0.27553816334E+03  0.00000000000E+00 0. -1.
         25    2    1    2    0    0 -0.62851806924E+01 -0.18923364753E+02  0.65900942507E+02  0.14270840924E+03  0.12500063446E+03 0.  0.
          2    1    1    2  501    0  0.22556999447E+01  0.48439822211E+02 -0.23431355392E+03  0.23927880413E+03  0.00000000000E+00 0. -1.
          1    1    1    2  502    0  0.40294807477E+01 -0.29516457458E+02  0.65557859358E+03  0.65625509547E+03  0.00000000000E+00 0. -1.
         22    1    3    3    0    0  0.52168214215E+01 -0.27550996175E+02 -0.32693373173E+02  0.43071211562E+02  0.00000000000E+00 0.  1.
         22    1    3    3    0    0 -0.11502002114E+02  0.86276314221E+01  0.98594315679E+02  0.99637197677E+02  0.00000000000E+00 0.  1.
</event>
<event>
 7    1  0.5977291E-006  0.6287833E+02  0.7818608E-02  0.1437277E+00
          2   -1    0    0  502    0  0.00000000000E+00  0.00000000000E+00  0.21351102022E+03  0.21351102022E+03  0.00000000000E+00 0. -1.
          1   -1    0    0  501    0 -0.00000000000E+00 -0.00000000000E+00 -0.73610397879E+03  0.73610397879E+03  0.00000000000E+00 0. -1.
         25    2    1    2    0    0 -0.78655111142E+02  0.60943861738E+01 -0.80359392682E+01  0.14802960210E+03  0.12499767488E+03 0.  0.
          2    1    1    2  501    0  0.23390974748E+02 -0.35153255214E+02 -0.65056303819E+03  0.65193186432E+03  0.00000000000E+00 0. -1.
          1    1    1    2  502    0  0.55264136394E+02  0.29058869040E+02  0.13600601889E+03  0.14965353259E+03  0.00000000000E+00 0. -1.
         22    1    3    3    0    0 -0.10904407078E+03 -0.16033196575E+02 -0.64272704021E+01  0.11040372534E+03  0.00000000000E+00 0. -1.
         22    1    3    3    0    0  0.30388959637E+02  0.22127582749E+02 -0.16086688661E+01  0.37625876756E+02  0.00000000000E+00 0. -1.
</event>
<event>
 7    1  0.5977291E-006  0.5777803E+02  0.7818608E-02  0.1450186E+00
          2   -1    0    0  502    0  0.00000000000E+00  0.00000000000E+00  0.14785097637E+04  0.14785097637E+04  0.00000000000E+00 0. -1.
          1   -1    0    0  501    0 -0.00000000000E+00 -0.00000000000E+00 -0.40816176614E+02  0.40816176614E+02  0.00000000000E+00 0. -1.
         25    2    1    2    0    0 -0.28422640528E+02 -0.45711889881E+02  0.53680517784E+03  0.55378528028E+03  0.12498365622E+03 0.  0.
          2    1    1    2  501    0  0.39689947234E+02 -0.12943443316E+02 -0.17460543704E+02  0.45251466525E+02  0.00000000000E+00 0. -1.
          1    1    1    2  502    0 -0.11267306706E+02  0.58655333197E+02  0.91834895290E+03  0.92028919346E+03  0.00000000000E+00 0. -1.
         22    1    3    3    0    0 -0.57882386777E+02  0.19276803870E+02  0.18443974882E+03  0.19426782237E+03  0.00000000000E+00 0.  1.
         22    1    3    3    0    0  0.29459746250E+02 -0.64988693751E+02  0.35236542903E+03  0.35951745790E+03  0.00000000000E+00 0.  1.
</event>
<event>
 7    1  0.5977291E-006  0.8042043E+02  0.7818608E-02  0.1372138E+00
          2   -1    0    0  502    0  0.00000000000E+00  0.00000000000E+00  0.40731868450E+04  0.40731868450E+04  0.00000000000E+00 0. -1.
          1   -1    0    0  501    0 -0.00000000000E+00 -0.00000000000E+00 -0.68815843872E+01  0.68815843872E+01  0.00000000000E+00 0. -1.
         25    2    1    2    0    0  0.62691914862E+02  0.43213007758E+02  0.16096740176E+04  0.16163150514E+04  0.12500504890E+03 0.  0.
          2    1    1    2  501    0 -0.24767345832E+02 -0.83206110006E+02  0.59435851205E+03  0.60066523040E+03  0.00000000000E+00 0. -1.
          1    1    1    2  502    0 -0.37924569031E+02  0.39993102248E+02  0.18622727310E+04  0.18630881476E+04  0.00000000000E+00 0. -1.
         22    1    3    3    0    0  0.48378049312E+02  0.35984546512E+02  0.27445595708E+03  0.28100070395E+03  0.00000000000E+00 0.  1.
         22    1    3    3    0    0  0.14313865551E+02  0.72284612468E+01  0.13352180605E+04  0.13353143474E+04  0.00000000000E+00 0.  1.
</event>
<event>
 7    1  0.5977291E-006  0.2410049E+03  0.7818608E-02  0.1326689E+00
          2   -1    0    0  502    0  0.00000000000E+00  0.00000000000E+00  0.95865198222E+03  0.95865198222E+03  0.00000000000E+00 0. -1.
          1   -1    0    0  501    0 -0.00000000000E+00 -0.00000000000E+00 -0.73211397038E+03  0.73211397038E+03  0.00000000000E+00 0. -1.
         25    2    1    2    0    0 -0.12462256176E+03  0.19002168429E+03  0.46153054536E+03  0.52940967246E+03  0.12500053439E+03 0.  0.
          2    1    1    2  501    0  0.11208232021E+03 -0.21406259048E+03 -0.67683995695E+03  0.71867765130E+03  0.00000000000E+00 0. -1.
          1    1    1    2  502    0  0.12540241547E+02  0.24040906193E+02  0.44184742344E+03  0.44267862884E+03  0.00000000000E+00 0. -1.
         22    1    3    3    0    0  0.17259353592E+02  0.29609714536E+02  0.22690282061E+02  0.41103155369E+02  0.00000000000E+00 0. -1.
         22    1    3    3    0    0 -0.14188191535E+03  0.16041196976E+03  0.43884026330E+03  0.48830651709E+03  0.00000000000E+00 0. -1.
</event>
<event>
 7    1  0.5977291E-006  0.7203656E+02  0.7818608E-02  0.1413603E+00
          2   -1    0    0  502    0  0.00000000000E+00  0.00000000000E+00  0.40086722417E+03  0.40086722417E+03  0.00000000000E+00 0. -1.
          1   -1    0    0  501    0 -0.00000000000E+00 -0.00000000000E+00 -0.26705553779E+04  0.26705553779E+04  0.00000000000E+00 0. -1.
         25    2    1    2    0    0  0.31677909414E+01  0.53266645540E+02 -0.35289996727E+02  0.14041500895E+03  0.12499448164E+03 0.  0.
          2    1    1    2  501    0 -0.43422911425E+02  0.80009390286E+01 -0.25786543926E+04  0.25790323846E+04  0.00000000000E+00 0. -1.
          1    1    1    2  502    0  0.40255120484E+02 -0.61267584568E+02  0.34425623563E+03  0.35197520852E+03  0.00000000000E+00 0. -1.
         22    1    3    3    0    0  0.39506007185E+02  0.39562535406E+02 -0.69126052285E+02  0.88906298517E+02  0.00000000000E+00 0. -1.
         22    1    3    3    0    0 -0.36338216243E+02  0.13704110134E+02  0.33836055558E+02  0.51508710428E+02  0.00000000000E+00 0. -1.
</event>
<event>
 7    1  0.5977291E-006  0.8024303E+02  0.7818608E-02  0.1352005E+00
          2   -1    0    0  502    0  0.00000000000E+00  0.00000000000E+00  0.90328557831E+03  0.90328557831E+03  0.00000000000E+00 0. -1.
          1   -1    0    0  501    0 -0.00000000000E+00 -0.00000000000E+00 -0.33916650149E+03  0.33916650149E+03  0.00000000000E+00 0. -1.
         25    2    1    2    0    0 -0.16399796571E+02 -0.56070240503E+02  0.19244103958E+03  0.23680012558E+03  0.12501168170E+03 0.  0.
          2    1    1    2  501    0 -0.61617496114E+02  0.21875748755E+02 -0.31093962778E+03  0.31774001375E+03  0.00000000000E+00 0. -1.
          1    1    1    2  502    0  0.78017292685E+02  0.34194491748E+02  0.68261766503E+03  0.68791194046E+03  0.00000000000E+00 0. -1.
         22    1    3    3    0    0 -0.23860685029E+02 -0.10046902198E+02 -0.10967242091E+02  0.28116773159E+02  0.00000000000E+00 0. -1.
         22    1    3    3    0    0  0.74608884577E+01 -0.46023338305E+02  0.20340828167E+03  0.20868335242E+03  0.00000000000E+00 0. -1.
</event>
<event>
 7    1  0.5977291E-006  0.3429982E+02  0.7818608E-02  0.1557065E+00
          2   -1    0    0  502    0  0.00000000000E+00  0.00000000000E+00  0.25675175210E+04  0.25675175210E+04  0.00000000000E+00 0. -1.
          1   -1    0    0  501    0 -0.00000000000E+00 -0.00000000000E+00 -0.23122427926E+02  0.23122427926E+02  0.00000000000E+00 0. -1.
         25    2    1    2    0    0 -0.90971536799E+01 -0.87603213212E+01  0.19617426576E+03  0.23295750132E+03  0.12500141374E+03 0.  0.
          2    1    1    2  501    0  0.25762518302E+02  0.38202398172E+02  0.11071107124E+03  0.11991693738E+03  0.00000000000E+00 0. -1.
          1    1    1    2  502    0 -0.16665364622E+02 -0.29442076851E+02  0.22375097560E+04  0.22377655102E+04  0.00000000000E+00 0. -1.
         22    1    3    3    0    0 -0.14854808756E+02  0.53916224425E+02  0.55238963536E+02  0.78606409993E+02  0.00000000000E+00 0.  1.
         22    1    3    3    0    0  0.57576550762E+01 -0.62676545746E+02  0.14093530223E+03  0.15435109132E+03  0.00000000000E+00 0.  1.
</event>
<event>
 7    1  0.5977291E-006  0.5985555E+02  0.7818608E-02  0.1425919E+00
          2   -1    0    0  502    0  0.00000000000E+00  0.00000000000E+00  0.26013601083E+04  0.26013601083E+04  0.00000000000E+00 0. -1.
          1   -1    0    0  501    0 -0.00000000000E+00 -0.00000000000E+00 -0.50679272432E+02  0.50679272432E+02  0.00000000000E+00 0. -1.
         25    2    1    2    0    0  0.59527884572E+02  0.78113613993E+02  0.25351956433E+03  0.29923649565E+03  0.12500002039E+03 0.  0.
          2    1    1    2  501    0 -0.43545228579E+02 -0.20979277023E+02 -0.61522460351E+01  0.48725425885E+02  0.00000000000E+00 0. -1.
          1    1    1    2  502    0 -0.15982655993E+02 -0.57134336970E+02  0.23033135176E+04  0.23040774592E+04  0.00000000000E+00 0. -1.
         22    1    3    3    0    0  0.18419006510E+02  0.10087261911E+03  0.12084439747E+03  0.15848631956E+03  0.00000000000E+00 0. -1.
         22    1    3    3    0    0  0.41108878062E+02 -0.22759005114E+02  0.13267516686E+03  0.14075017609E+03  0.00000000000E+00 0. -1.
</event>
<event>
 7    1  0.5977291E-006  0.3472425E+02  0.7818608E-02  0.1581558E+00
          2   -1    0    0  502    0  0.00000000000E+00  0.00000000000E+00  0.29175380747E+03  0.29175380747E+03  0.00000000000E+00 0. -1.
          1   -1    0    0  501    0 -0.00000000000E+00 -0.00000000000E+00 -0.57508558551E+03  0.57508558551E+03  0.00000000000E+00 0. -1.
         25    2    1    2    0    0 -0.93439784771E+01 -0.23563737084E+02  0.49630020521E+02  0.13686060074E+03  0.12500050184E+03 0.  0.
          2    1    1    2  501    0 -0.24848159693E+02  0.14294771590E+02 -0.52949893426E+03  0.53027435627E+03  0.00000000000E+00 0. -1.
          1    1    1    2  502    0  0.34192138170E+02  0.92689654933E+01  0.19653713570E+03  0.19970443596E+03  0.00000000000E+00 0. -1.
         22    1    3    3    0    0 -0.65447059691E+02 -0.28166283407E+02  0.27290081846E+02  0.76298137004E+02  0.00000000000E+00 0.  1.
         22    1    3    3    0    0  0.56103081213E+02  0.46025463232E+01  0.22339938676E+02  0.60562463741E+02  0.00000000000E+00 0.  1.
</event>
<event>
 7    1  0.5977291E-006  0.1133323E+03  0.7818608E-02  0.1255135E+00
          2   -1    0    0  502    0  0.00000000000E+00  0.00000000000E+00  0.54845053517E+03  0.54845053517E+03  0.00000000000E+00 0. -1.
          1   -1    0    0  501    0 -0.00000000000E+00 -0.00000000000E+00 -0.35978447113E+03  0.35978447113E+03  0.00000000000E+00 0. -1.
         25    2    1    2    0    0  0.56841634391E+02 -0.46406499802E+02  0.13518538086E+03  0.19820286722E+03  0.12499901901E+03 0.  0.
          2    1    1    2  501    0  0.79736655155E+02  0.79566098980E+02 -0.30491877891E+03  0.32506024059E+03  0.00000000000E+00 0. -1.
          1    1    1    2  502    0 -0.13657828955E+03 -0.33159599178E+02  0.35839946209E+03  0.38497189848E+03  0.00000000000E+00 0. -1.
         22    1    3    3    0    0  0.78071752022E+02 -0.29141099080E+02  0.14653896264E+03  0.16857659888E+03  0.00000000000E+00 0.  1.
         22    1    3    3    0    0 -0.21230117631E+02 -0.17265400722E+02 -0.11353581779E+02  0.29626268343E+02  0.00000000000E+00 0.  1.
</event>
<event>
 7    1  0.5977291E-006  0.1416150E+03  0.7818608E-02  0.1334250E+00
          2   -1    0    0  502    0  0.00000000000E+00  0.00000000000E+00  0.18274736454E+04  0.18274736454E+04  0.00000000000E+00 0. -1.
          1   -1    0    0  501    0 -0.00000000000E+00 -0.00000000000E+00 -0.50281983046E+03  0.50281983046E+03  0.00000000000E+00 0. -1.
         25    2    1    2    0    0  0.10607824776E+03 -0.11258392555E+03  0.56025594374E+03  0.59450797725E+03  0.12500111032E+03 0.  0.
          2    1    1    2  501    0 -0.41651338095E+02 -0.11379226209E+02 -0.48082014138E+03  0.48275493691E+03  0.00000000000E+00 0. -1.
          1    1    1    2  502    0 -0.64426909666E+02  0.12396315176E+03  0.12452180126E+04  0.12530305617E+04  0.00000000000E+00 0. -1.
         22    1    3    3    0    0  0.11500874164E+03 -0.73882686177E+02  0.52111237547E+03  0.53874276778E+03  0.00000000000E+00 0.  1.
         22    1    3    3    0    0 -0.89304938790E+01 -0.38701239378E+02  0.39143568268E+02  0.55765209468E+02  0.00000000000E+00 0.  1.
</event>
<event>
 7    1  0.5977291E-006  0.8804558E+02  0.7818608E-02  0.1327151E+00
          2   -1    0    0  502    0  0.00000000000E+00  0.00000000000E+00  0.26873416019E+04  0.26873416019E+04  0.00000000000E+00 0. -1.
          1   -1    0    0  501    0 -0.00000000000E+00 -0.00000000000E+00 -0.32576749850E+02  0.32576749850E+02  0.00000000000E+00 0. -1.
         25    2    1    2    0    0 -0.38239186149E+02  0.32387062024E+02  0.25202559773E+03  0.28575233214E+03  0.12500534497E+03 0.  0.
          2    1    1    2  501    0  0.93243660812E+02 -0.81768287387E+02  0.23986483738E+03  0.27002883793E+03  0.00000000000E+00 0. -1.
          1    1    1    2  502    0 -0.55004474663E+02  0.49381225363E+02  0.21628744170E+04  0.21641371817E+04  0.00000000000E+00 0. -1.
         22    1    3    3    0    0 -0.82513357627E+02  0.67842963989E+01  0.16999832502E+03  0.18908704708E+03  0.00000000000E+00 0.  1.
         22    1    3    3    0    0  0.44274171478E+02  0.25602765625E+02  0.82027272712E+02  0.96665285063E+02  0.00000000000E+00 0.  1.
</event>
<event>
 7    1  0.5977291E-006  0.6912021E+02  0.7818608E-02  0.1413282E+00
          2   -1    0    0  502    0  0.00000000000E+00  0.00000000000E+00  0.14875963478E+04  0.14875963478E+04  0.00000000000E+00 0. -1.
          1   -1    0    0  501    0 -0.00000000000E+00 -0.00000000000E+00 -0.19839475241E+03  0.19839475241E+03  0.00000000000E+00 0. -1.
         25    2    1    2    0    0  0.16514979954E+02  0.18109004161E+02 -0.59263193741E+02  0.14049228948E+03  0.12500110670E+03 0.  0.
          2    1    1    2  501    0  0.41472658229E+02  0.20202490379E+02 -0.92232597175E+02  0.10312601020E+03  0.00000000000E+00 0. -1.
          1    1    1    2  502    0 -0.57987638183E+02 -0.38311494540E+02  0.14406973863E+04  0.14423728005E+04  0.00000000000E+00 0. -1.
         22    1    3    3    0    0  0.35124373594E+02  0.62819054687E+02 -0.12267804302E+02  0.73009960105E+02  0.00000000000E+00 0. -1.
         22    1    3    3    0    0 -0.18609393640E+02 -0.44710050525E+02 -0.46995389438E+02  0.67482329376E+02  0.00000000000E+00 0. -1.
</event>
<event>
 7    1  0.5977291E-006  0.5867779E+02  0.7818608E-02  0.1416809E+00
          2   -1    0    0  502    0  0.00000000000E+00  0.00000000000E+00  0.33472453680E+03  0.33472453680E+03  0.00000000000E+00 0. -1.
          1   -1    0    0  501    0 -0.00000000000E+00 -0.00000000000E+00 -0.61727149164E+03  0.61727149164E+03  0.00000000000E+00 0. -1.
         25    2    1    2    0    0 -0.10394867496E+03  0.42130940389E+01 -0.34195006889E+02  0.16618677584E+03  0.12500267509E+03 0.  0.
          2    1    1    2  501    0  0.53776803898E+02 -0.20907660889E+02 -0.51284603962E+03  0.51608151999E+03  0.00000000000E+00 0. -1.
          1    1    1    2  502    0  0.50171871058E+02  0.16694566850E+02  0.26449409167E+03  0.26972773261E+03  0.00000000000E+00 0. -1.
         22    1    3    3    0    0  0.24818866930E+02 -0.22241406044E+01  0.13955996356E+02  0.28560335982E+02  0.00000000000E+00 0.  1.
         22    1    3    3    0    0 -0.12876754189E+03  0.64372346433E+01 -0.48151003244E+02  0.13762643985E+03  0.00000000000E+00 0.  1.
</event>
<event>
 7    1  0.5977291E-006  0.9733695E+02  0.7818608E-02  0.1305934E+00
          2   -1    0    0  502    0  0.00000000000E+00  0.00000000000E+00  0.53684713893E+03  0.53684713893E+03  0.00000000000E+00 0. -1.
          1   -1    0    0  501    0 -0.00000000000E+00 -0.00000000000E+00 -0.13907873726E+04  0.13907873726E+04  0.00000000000E+00 0. -1.
         25    2    1    2    0    0  0.16100986437E+03 -0.58197669019E+02  0.40913918651E+02  0.21589024176E+03  0.12499401044E+03 0.  0.
          2    1    1    2  501    0 -0.80253533412E+02  0.53362881611E+02 -0.12974883896E+04  0.13010627763E+04  0.00000000000E+00 0. -1.
          1    1    1    2  502    0 -0.80756330958E+02  0.48347874080E+01  0.40263423720E+03  0.41068149353E+03  0.00000000000E+00 0. -1.
         22    1    3    3    0    0  0.15883416512E+03 -0.39535043987E+02 -0.76082943755E+01  0.16385724841E+03  0.00000000000E+00 0.  1.
         22    1    3    3    0    0  0.21756992461E+01 -0.18662625033E+02  0.48522213027E+02  0.52032993353E+02  0.00000000000E+00 0.  1.
</event>
<event>
 7    1  0.5977291E-006  0.5229534E+02  0.7818608E-02  0.1520130E+00
          2   -1    0    0  502    0  0.00000000000E+00  0.00000000000E+00  0.70755132418E+03  0.70755132418E+03  0.00000000000E+00 0. -1.
          1   -1    0    0  501    0 -0.00000000000E+00 -0.00000000000E+00 -0.76755718034E+03  0.76755718034E+03  0.00000000000E+00 0. -1.
         25    2    1    2    0    0  0.59113935201E+02  0.41264153263E+02  0.56719829799E+02  0.15504641779E+03  0.12500025958E+03 0.  0.
          2    1    1    2  501    0 -0.50092915455E+02 -0.14510233175E+02 -0.71711519888E+03  0.71900907888E+03  0.00000000000E+00 0. -1.
          1    1    1    2  502    0 -0.90210197459E+01 -0.26753920088E+02  0.60038951292E+03  0.60105300786E+03  0.00000000000E+00 0. -1.
         22    1    3    3    0    0  0.35218189390E+02  0.79867085500E+02  0.67737677943E+01  0.87549735238E+02  0.00000000000E+00 0. -1.
         22    1    3    3    0    0  0.23895745811E+02 -0.38602932237E+02  0.49946062005E+02  0.67496682547E+02  0.00000000000E+00 0. -1.
</event>
<event>
 7    1  0.5977291E-006  0.3754547E+02  0.7818608E-02  0.1624378E+00
          2   -1    0    0  502    0  0.00000000000E+00  0.00000000000E+00  0.27170449628E+04  0.27170449628E+04  0.00000000000E+00 0. -1.
          1   -1    0    0  501    0 -0.00000000000E+00 -0.00000000000E+00 -0.67256266998E+02  0.67256266998E+02  0.00000000000E+00 0. -1.
         25    2    1    2    0    0 -0.52247069470E+02  0.23081530881E+02  0.50188314635E+03  0.52035935086E+03  0.12499859240E+03 0.  0.
          2    1    1    2  501    0  0.20017664190E+02 -0.44683415132E+01 -0.56043450668E+02  0.59678650439E+02  0.00000000000E+00 0. -1.
          1    1    1    2  502    0  0.32229405280E+02 -0.18613189368E+02  0.22039490001E+04  0.22042632285E+04  0.00000000000E+00 0. -1.
         22    1    3    3    0    0 -0.42634288163E+02 -0.10960461527E+02  0.47201373836E+03  0.47406200380E+03  0.00000000000E+00 0.  1.
         22    1    3    3    0    0 -0.96127813074E+01  0.34041992408E+02  0.29869407996E+02  0.46297347068E+02  0.00000000000E+00 0.  1.
</event>
<event>
 7    1  0.5977291E-006  0.8228143E+02  0.7818608E-02  0.1398949E+00
          2   -1    0    0  502    0  0.00000000000E+00  0.00000000000E+00  0.17152384346E+04  0.17152384346E+04  0.00000000000E+00 0. -1.
          1   -1    0    0  501    0 -0.00000000000E+00 -0.00000000000E+00 -0.13746218215E+04  0.13746218215E+04  0.00000000000E+00 0. -1.
         25    2    1    2    0    0 -0.15727336795E+02 -0.92708922105E+02  0.67070580018E+02  0.17019574945E+03  0.12500334823E+03 0.  0.
          2    1    1    2  501    0  0.40904059884E+02  0.14404045955E+02 -0.13216440014E+04  0.13223552795E+04  0.00000000000E+00 0. -1.
          1    1    1    2  502    0 -0.25176723090E+02  0.78304876151E+02  0.15951900345E+04  0.15973092271E+04  0.00000000000E+00 0. -1.
         22    1    3    3    0    0 -0.91825930422E+00 -0.47538497181E+02  0.10110816566E+03  0.11173009030E+03  0.00000000000E+00 0. -1.
         22    1    3    3    0    0 -0.14809077490E+02 -0.45170424924E+02 -0.34037585645E+02  0.58465659156E+02  0.00000000000E+00 0. -1.
</event>
<event>
 7    1  0.5977291E-006  0.1284612E+03  0.7818608E-02  0.1309900E+00
          2   -1    0    0  502    0  0.00000000000E+00  0.00000000000E+00  0.10439640558E+03  0.10439640558E+03  0.00000000000E+00 0. -1.
          1   -1    0    0  501    0 -0.00000000000E+00 -0.00000000000E+00 -0.62568563452E+03  0.62568563452E+03  0.00000000000E+00 0. -1.
         25    2    1    2    0    0  0.13320003160E+03  0.71326962721E+02 -0.31665472175E+03  0.37245894970E+03  0.12500268947E+03 0.  0.
          2    1    1    2  501    0 -0.11988255735E+03 -0.13720412045E+02 -0.25360687067E+03  0.28084964325E+03  0.00000000000E+00 0. -1.
          1    1    1    2  502    0 -0.13317474246E+02 -0.57606550676E+02  0.48972363490E+02  0.76773447147E+02  0.00000000000E+00 0. -1.
         22    1    3    3    0    0  0.62711825944E+02  0.67387258920E+01 -0.29165116037E+02  0.69489477861E+02  0.00000000000E+00 0. -1.
         22    1    3    3    0    0  0.70488205653E+02  0.64588236829E+02 -0.28748960572E+03  0.30296947184E+03  0.00000000000E+00 0. -1.
</event>
<event>
 7    1  0.5977291E-006  0.9189404E+02  0.7818608E-02  0.1441841E+00
          2   -1    0    0  502    0  0.00000000000E+00  0.00000000000E+00  0.19275041447E+04  0.19275041447E+04  0.00000000000E+00 0. -1.
          1   -1    0    0  501    0 -0.00000000000E+00 -0.00000000000E+00 -0.50818866276E+03  0.50818866276E+03  0.00000000000E+00 0. -1.
         25    2    1    2    0    0 -0.70411930025E+02  0.35226683662E+02  0.72982815130E+03  0.74463034176E+03  0.12500582504E+03 0.  0.
          2    1    1    2  501    0  0.67076198703E+02 -0.62949292418E+02 -0.49639757782E+03  0.50484887354E+03  0.00000000000E+00 0. -1.
          1    1    1    2  502    0  0.33357313224E+01  0.27722608755E+02  0.11858849084E+04  0.11862135921E+04  0.00000000000E+00 0. -1.
         22    1    3    3    0    0  0.70161600378E+01  0.57699444496E+02  0.18634519791E+03  0.19519985958E+03  0.00000000000E+00 0. -1.
         22    1    3    3    0    0 -0.77428090063E+02 -0.22472760834E+02  0.54348295340E+03  0.54943048218E+03  0.00000000000E+00 0. -1.
</event>
<event>
 7    1  0.5977291E-006  0.9428032E+02  0.7818608E-02  0.1374066E+00
          2   -1    0    0  502    0  0.00000000000E+00  0.00000000000E+00  0.10694726986E+04  0.10694726986E+04  0.00000000000E+00 0. -1.
          1   -1    0    0  501    0 -0.00000000000E+00 -0.00000000000E+00 -0.22744775889E+03  0.22744775889E+03  0.00000000000E+00 0. -1.
         25    2    1    2    0    0  0.90410538492E+02 -0.93189786363E+02 -0.56525091754E+02  0.18888825384E+03  0.12500113875E+03 0.  0.
          2    1    1    2  501    0 -0.99093106026E+01  0.45198648920E+02 -0.97320802744E+02  0.10776108271E+03  0.00000000000E+00 0. -1.
          1    1    1    2  502    0 -0.80501227889E+02  0.47991137443E+02  0.99587083416E+03  0.10002711209E+04  0.00000000000E+00 0. -1.
         22    1    3    3    0    0  0.10800446741E+02 -0.64842143617E+02 -0.77692793068E+02  0.10177093560E+03  0.00000000000E+00 0.  1.
         22    1    3    3    0    0  0.79610091751E+02 -0.28347642746E+02  0.21167701313E+02  0.87117318237E+02  0.00000000000E+00 0.  1.
</event>
<event>
 7    1  0.1212636E-005  0.7589017E+02  0.7818608E-02  0.1478224E+00
          2   -1    0    0  502    0  0.00000000000E+00  0.00000000000E+00  0.23581034340E+04  0.23581034340E+04  0.00000000000E+00 0. -1.
          1   -1    0    0  501    0 -0.00000000000E+00 -0.00000000000E+00 -0.95092709852E+03  0.95092709852E+03  0.00000000000E+00 0. -1.
         25    2    1    2    0    0  0.90772757863E+02 -0.42518578138E+00 -0.39732368846E+03  0.42629919803E+03  0.12500007391E+03 0.  0.
          2    1    1    2  501    0 -0.17299275143E+02  0.19353194451E+02 -0.53818868078E+03  0.53881431604E+03  0.00000000000E+00 0. -1.
          1    1    1    2  502    0 -0.73473482720E+02 -0.18928008670E+02  0.23426887047E+04  0.23439170185E+04  0.00000000000E+00 0. -1.
         22    1    3    3    0    0  0.12183845921E+03 -0.43774054199E+01 -0.33614420418E+03  0.35757054944E+03  0.00000000000E+00 0.  1.
         22    1    3    3    0    0 -0.31065701351E+02  0.39522196385E+01 -0.61179484274E+02  0.68728648587E+02  0.00000000000E+00 0.  1.
</event>
<event>
 7    1  0.5977291E-006  0.4380728E+02  0.7818608E-02  0.1495290E+00
          2   -1    0    0  502    0  0.00000000000E+00  0.00000000000E+00  0.13323732304E+02  0.13323732304E+02  0.00000000000E+00 0. -1.
          1   -1    0    0  501    0 -0.00000000000E+00 -0.00000000000E+00 -0.12452568092E+04  0.12452568092E+04  0.00000000000E+00 0. -1.
         25    2    1    2    0    0  0.45640427639E+01  0.27952413465E+02 -0.41427409605E+03  0.43364818759E+03  0.12500222414E+03 0.  0.
          2    1    1    2  501    0  0.22991324810E+02  0.32617713984E+02 -0.22099299688E+03  0.22456718583E+03  0.00000000000E+00 0. -1.
          1    1    1    2  502    0 -0.27555367574E+02 -0.60570127450E+02 -0.59666598393E+03  0.60036516804E+03  0.00000000000E+00 0. -1.
         22    1    3    3    0    0  0.64704098291E+02  0.15803663516E+02 -0.20322223083E+03  0.21385895169E+03  0.00000000000E+00 0. -1.
         22    1    3    3    0    0 -0.60140055527E+02  0.12148749949E+02 -0.21105186522E+03  0.21978923590E+03  0.00000000000E+00 0. -1.
</event>
<event>
 7    1  0.5977291E-006  0.6991595E+02  0.7818608E-02  0.1448019E+00
          2   -1    0    0  502    0  0.00000000000E+00  0.00000000000E+00  0.15738954090E+03  0.15738954090E+03  0.00000000000E+00 0. -1.
          1   -1    0    0  501    0 -0.00000000000E+00 -0.00000000000E+00 -0.22256212578E+03  0.22256212578E+03  0.00000000000E+00 0. -1.
         25    2    1    2    0    0 -0.92454855468E+02  0.41115772712E+02 -0.19502852121E+02  0.16199821865E+03  0.12499861815E+03 0.  0.
          2    1    1    2  501    0  0.59953746466E+02 -0.27979367371E+02 -0.11929232755E+03  0.13641098243E+03  0.00000000000E+00 0. -1.
          1    1    1    2  502    0  0.32501109003E+02 -0.13136405342E+02  0.73622594801E+02  0.81542465605E+02  0.00000000000E+00 0. -1.
         22    1    3    3    0    0 -0.78746074650E+01  0.65447213799E+02  0.14763667252E+02  0.67552299055E+02  0.00000000000E+00 0. -1.
         22    1    3    3    0    0 -0.84580248003E+02 -0.24331441087E+02 -0.34266519373E+02  0.94445919592E+02  0.00000000000E+00 0. -1.
</event>
<event>
 7    1  0.5977291E-006  0.8842759E+02  0.7818608E-02  0.1384316E+00
          2   -1    0    0  502    0  0.00000000000E+00  0.00000000000E+00  0.63605641675E+03  0.63605641675E+03  0.00000000000E+00 0. -1.
          1   -1    0    0  501    0 -0.00000000000E+00 -0.00000000000E+00 -0.18153642108E+04  0.18153642108E+04  0.00000000000E+00 0. -1.
         25    2    1    2    0    0  0.11037395075E+03 -0.70615048305E+02 -0.38617337986E+03  0.42652455833E+03  0.12499770194E+03 0.  0.
          2    1    1    2  501    0 -0.71574197867E+02  0.47091250850E+02 -0.14068745774E+04  0.14094809428E+04  0.00000000000E+00 0. -1.
          1    1    1    2  502    0 -0.38799752882E+02  0.23523797456E+02  0.61374016320E+03  0.61541512639E+03  0.00000000000E+00 0. -1.
         22    1    3    3    0    0  0.44453442357E+02 -0.98506148325E+02 -0.25797116886E+03  0.27969392871E+03  0.00000000000E+00 0.  1.
         22    1    3    3    0    0  0.65920508393E+02  0.27891100019E+02 -0.12820221100E+03  0.14683062962E+03  0.00000000000E+00 0.  1.
</event>
<event>
 7    1  0.5977291E-006  0.7407379E+02  0.7818608E-02  0.1458438E+00
          2   -1    0    0  502    0  0.00000000000E+00  0.00000000000E+00  0.51253891905E+03  0.51253891905E+03  0.00000000000E+00 0. -1.
          1   -1    0    0  501    0 -0.00000000000E+00 -0.00000000000E+00 -0.19904178241E+03  0.19904178241E+03  0.00000000000E+00 0. -1.
         25    2    1    2    0    0  0.17209411319E+02  0.44294464992E+02  0.16220911028E+03  0.21022316308E+03  0.12499527740E+03 0.  0.
          2    1    1    2  501    0 -0.41780814910E+02 -0.62622142581E+02 -0.16616784820E+03  0.18242511618E+03  0.00000000000E+00 0. -1.
          1    1    1    2  502    0  0.24571403591E+02  0.18327677590E+02  0.31745587456E+03  0.31893242221E+03  0.00000000000E+00 0. -1.
         22    1    3    3    0    0  0.68986657214E+02  0.28055057936E+02  0.12101336099E+03  0.14209320423E+03  0.00000000000E+00 0. -1.
         22    1    3    3    0    0 -0.51777245895E+02  0.16239407055E+02  0.41195749289E+02  0.68129958854E+02  0.00000000000E+00 0. -1.
</event>
<event>
 7    1  0.5977291E-006  0.6861200E+02  0.7818608E-02  0.1442651E+00
          2   -1    0    0  502    0  0.00000000000E+00  0.00000000000E+00  0.49371882701E+02  0.49371882701E+02  0.00000000000E+00 0. -1.
          1   -1    0    0  501    0 -0.00000000000E+00 -0.00000000000E+00 -0.80779039938E+03  0.80779039938E+03  0.00000000000E+00 0. -1.
         25    2    1    2    0    0  0.32029518323E+02 -0.10280607295E+02 -0.54390717278E+03  0.55909837696E+03  0.12499760632E+03 0.  0.
          2    1    1    2  501    0  0.36760456713E+02 -0.55191397027E+01 -0.22380725665E+03  0.22687326905E+03  0.00000000000E+00 0. -1.
          1    1    1    2  502    0 -0.68789975036E+02  0.15799746997E+02  0.92959127491E+01  0.71190636073E+02  0.00000000000E+00 0. -1.
         22    1    3    3    0    0 -0.92860996582E+01 -0.51176168435E+02 -0.11432064299E+03  0.12559634261E+03  0.00000000000E+00 0. -1.
         22    1    3    3    0    0  0.41315617981E+02  0.40895561140E+02 -0.42958652979E+03  0.43350203435E+03  0.00000000000E+00 0. -1.
</event>
<event>
 7    1  0.5977291E-006  0.1018397E+03  0.7818608E-02  0.1396115E+00
          2   -1    0    0  502    0  0.00000000000E+00  0.00000000000E+00  0.28029385961E+03  0.28029385961E+03  0.00000000000E+00 0. -1.
          1   -1    0    0  501    0 -0.00000000000E+00 -0.00000000000E+00 -0.19425421959E+04  0.19425421959E+04  0.00000000000E+00 0. -1.
         25    2    1    2    0    0  0.68899080502E+02 -0.78902638077E+02 -0.14933836507E+03  0.22113329325E+03  0.12500110605E+03 0.  0.
          2    1    1    2  501    0 -0.36909232333E+02  0.95053133030E+02 -0.17545044495E+04  0.17574650076E+04  0.00000000000E+00 0. -1.
          1    1    1    2  502    0 -0.31989848169E+02 -0.16150494953E+02  0.24159447829E+03  0.24423775468E+03  0.00000000000E+00 0. -1.
         22    1    3    3    0    0  0.95071234520E+01 -0.94959089734E+02 -0.60236099883E+02  0.11285389603E+03  0.00000000000E+00 0. -1.
         22    1    3    3    0    0  0.59391957050E+02  0.16056451657E+02 -0.89102265187E+02  0.10827939723E+03  0.00000000000E+00 0. -1.
</event>
<event>
 7    1  0.5977291E-006  0.1047047E+03  0.7818608E-02  0.1329654E+00
          2   -1    0    0  502    0  0.00000000000E+00  0.00000000000E+00  0.44519586408E+03  0.44519586408E+03  0.00000000000E+00 0. -1.
          1   -1    0    0  501    0 -0.00000000000E+00 -0.00000000000E+00 -0.13057002231E+04  0.13057002231E+04  0.00000000000E+00 0. -1.
         25    2    1    2    0    0  0.11293209982E+03  0.66529288646E+02 -0.94838845190E+02  0.20444582771E+03  0.12499553789E+03 0.  0.
          2    1    1    2  501    0 -0.10395943382E+03 -0.63942330832E+01 -0.11513253818E+04  0.11560270693E+04  0.00000000000E+00 0. -1.
          1    1    1    2  502    0 -0.89726660016E+01 -0.60135055563E+02  0.38565986800E+03  0.39042319018E+03  0.00000000000E+00 0. -1.
         22    1    3    3    0    0  0.85870668303E+01  0.74558199414E+02 -0.52303694023E+02  0.91478627148E+02  0.00000000000E+00 0. -1.
         22    1    3    3    0    0  0.10434503299E+03 -0.80289107678E+01 -0.42535151168E+02  0.11296720056E+03  0.00000000000E+00 0. -1.
</event>
<event>
 7    1  0.5977291E-006  0.8666301E+02  0.7818608E-02  0.1333079E+00
          2   -1    0    0  502    0  0.00000000000E+00  0.00000000000E+00  0.22230820526E+04  0.22230820526E+04  0.00000000000E+00 0. -1.
          1   -1    0    0  501    0 -0.00000000000E+00 -0.00000000000E+00 -0.40216624772E+02  0.40216624772E+02  0.00000000000E+00 0. -1.
         25    2    1    2    0    0  0.14003690815E+03 -0.13243433687E+02  0.14501329600E+04  0.14622910863E+04  0.12499558105E+03 0.  0.
          2    1    1    2  501    0 -0.68788484387E+02  0.18692653397E+02  0.68443558542E+01  0.71610865673E+02  0.00000000000E+00 0. -1.
          1    1    1    2  502    0 -0.71248423762E+02 -0.54492197105E+01  0.72588811200E+03  0.72939672541E+03  0.00000000000E+00 0. -1.
         22    1    3    3    0    0  0.15038789556E+03  0.85143333757E+01  0.13787002511E+04  0.13869042489E+04  0.00000000000E+00 0.  1.
         22    1    3    3    0    0 -0.10350987407E+02 -0.21757767062E+02  0.71432708818E+02  0.75386837425E+02  0.00000000000E+00 0.  1.
</event>
<event>
 7    1  0.5977291E-006  0.9987248E+02  0.7818608E-02  0.1375185E+00
          2   -1    0    0  502    0  0.00000000000E+00  0.00000000000E+00  0.86555696084E+03  0.86555696084E+03  0.00000000000E+00 0. -1.
          1   -1    0    0  501    0 -0.00000000000E+00 -0.00000000000E+00 -0.96362196264E+03  0.96362196264E+03  0.00000000000E+00 0. -1.
         25    2    1    2    0    0  0.56675473271E+02  0.91587439782E+02  0.38682971908E+01  0.16504750570E+03  0.12500138806E+03 0.  0.
          2    1    1    2  501    0 -0.82266866319E+02 -0.56682680455E+02 -0.87960298642E+03  0.88525825457E+03  0.00000000000E+00 0. -1.
          1    1    1    2  502    0  0.25591393049E+02 -0.34904759326E+02  0.77766968743E+03  0.77887316321E+03  0.00000000000E+00 0. -1.
         22    1    3    3    0    0  0.52046416295E+02  0.12085895959E+03  0.16906639887E+02  0.13267084094E+03  0.00000000000E+00 0. -1.
         22    1    3    3    0    0  0.46290569757E+01 -0.29271519811E+02 -0.13038342697E+02  0.32376664758E+02  0.00000000000E+00 0. -1.
</event>
<event>
 7    1  0.5977291E-006  0.8943991E+02  0.7818608E-02  0.1400436E+00
          2   -1    0    0  502    0  0.00000000000E+00  0.00000000000E+00  0.81919058206E+03  0.81919058206E+03  0.00000000000E+00 0. -1.
          1   -1    0    0  501    0 -0.00000000000E+00 -0.00000000000E+00 -0.35187163706E+03  0.35187163706E+03  0.00000000000E+00 0. -1.
         25    2    1    2    0    0 -0.52192121094E+02 -0.34028533189E+02  0.11869978174E+03  0.18329646519E+03  0.12500398951E+03 0.  0.
          2    1    1    2  501    0  0.88719869011E+02  0.19186564062E+02 -0.31252854447E+03  0.32544343673E+03  0.00000000000E+00 0. -1.
          1    1    1    2  502    0 -0.36527747917E+02  0.14841969127E+02  0.66114770774E+03  0.66232231720E+03  0.00000000000E+00 0. -1.
         22    1    3    3    0    0 -0.66809398469E+02  0.18487997541E+02  0.22777849924E+02  0.72966651452E+02  0.00000000000E+00 0. -1.
         22    1    3    3    0    0  0.14617277376E+02 -0.52516530730E+02  0.95921931812E+02  0.11032981374E+03  0.00000000000E+00 0. -1.
</event>
<event>
 7    1  0.5977291E-006  0.8579481E+02  0.7818608E-02  0.1439409E+00
          2   -1    0    0  502    0  0.00000000000E+00  0.00000000000E+00  0.81743123418E+03  0.81743123418E+03  0.00000000000E+00 0. -1.
          1   -1    0    0  501    0 -0.00000000000E+00 -0.00000000000E+00 -0.44329753611E+03  0.44329753611E+03  0.00000000000E+00 0. -1.
         25    2    1    2    0    0  0.44453578534E+02 -0.44823224149E+02  0.14708936753E+03  0.20309486350E+03  0.12500799764E+03 0.  0.
          2    1    1    2  501    0 -0.74865711222E+02  0.43196056864E+02 -0.41043002539E+03  0.41943244961E+03  0.00000000000E+00 0. -1.
          1    1    1    2  502    0  0.30412132689E+02  0.16271672850E+01  0.63747435593E+03  0.63820145718E+03  0.00000000000E+00 0. -1.
         22    1    3    3    0    0 -0.16387831143E+02 -0.99847617200E+00  0.12335996957E+03  0.12444774026E+03  0.00000000000E+00 0. -1.
         22    1    3    3    0    0  0.60841409677E+02 -0.43824747977E+02  0.23729397960E+02  0.78647123242E+02  0.00000000000E+00 0. -1.
</event>
<event>
 7    1  0.5977291E-006  0.6539828E+02  0.7818608E-02  0.1506990E+00
          2   -1    0    0  502    0  0.00000000000E+00  0.00000000000E+00  0.88726420968E+03  0.88726420968E+03  0.00000000000E+00 0. -1.
          1   -1    0    0  501    0 -0.00000000000E+00 -0.00000000000E+00 -0.88172790142E+02  0.88172790142E+02  0.00000000000E+00 0. -1.
         25    2    1    2    0    0 -0.49632446112E+02 -0.26321194614E+02  0.42416042216E+03  0.44575013626E+03  0.12499974103E+03 0.  0.
          2    1    1    2  501    0  0.65407413902E+02  0.73545866645E+01 -0.62970735678E+02  0.91090796956E+02  0.00000000000E+00 0. -1.
          1    1    1    2  502    0 -0.15774967790E+02  0.18966607950E+02  0.43790173306E+03  0.43859606661E+03  0.00000000000E+00 0. -1.
         22    1    3    3    0    0 -0.91672496250E+02 -0.24473563671E+02  0.30079397086E+03  0.31540420858E+03  0.00000000000E+00 0.  1.
         22    1    3    3    0    0  0.42040050138E+02 -0.18476309437E+01  0.12336645130E+03  0.13034592768E+03  0.00000000000E+00 0.  1.
</event>
<event>
 7    1  0.5977291E-006  0.2961314E+02  0.7818608E-02  0.1604398E+00
          2   -1    0    0  502    0  0.00000000000E+00  0.00000000000E+00  0.18939789441E+03  0.18939789441E+03  0.00000000000E+00 0. -1.
          1   -1    0    0  501    0 -0.00000000000E+00 -0.00000000000E+00 -0.15386597910E+03  0.15386597910E+03  0.00000000000E+00 0. -1.
         25    2    1    2    0    0  0.29282045260E+01  0.12848260142E+02  0.12399027840E+03  0.17655766032E+03  0.12500146443E+03 0.  0.
          2    1    1    2  501    0  0.28789613915E+02  0.52343789821E+01 -0.11684861808E+03  0.12045679782E+03  0.00000000000E+00 0. -1.
          1    1    1    2  502    0 -0.31717818441E+02 -0.18082639124E+02  0.28390254980E+02  0.46249415371E+02  0.00000000000E+00 0. -1.
         22    1    3    3    0    0  0.13478238575E+02  0.13979784973E+02  0.14854477353E+03  0.14980870150E+03  0.00000000000E+00 0.  1.
         22    1    3    3    0    0 -0.10550034049E+02 -0.11315248313E+01 -0.24554495127E+02  0.26748958818E+02  0.00000000000E+00 0.  1.
</event>
<event>
 7    1  0.5977291E-006  0.4846115E+02  0.7818608E-02  0.1474164E+00
          2   -1    0    0  502    0  0.00000000000E+00  0.00000000000E+00  0.15233497465E+04  0.15233497465E+04  0.00000000000E+00 0. -1.
          1   -1    0    0  501    0 -0.00000000000E+00 -0.00000000000E+00 -0.18734358779E+02  0.18734358779E+02  0.00000000000E+00 0. -1.
         25    2    1    2    0    0 -0.86789584786E+01  0.10677546100E+02  0.38387184319E+03  0.40394504486E+03  0.12499869184E+03 0.  0.
          2    1    1    2  501    0 -0.41641205312E+02 -0.40635400845E+01  0.45935933566E+02  0.62133825976E+02  0.00000000000E+00 0. -1.
          1    1    1    2  502    0  0.50320163791E+02 -0.66140060156E+01  0.10748076110E+04  0.10760052345E+04  0.00000000000E+00 0. -1.
         22    1    3    3    0    0 -0.38862932643E+02 -0.43568754311E+02  0.12858098140E+03  0.14121484577E+03  0.00000000000E+00 0.  1.
         22    1    3    3    0    0  0.30183974164E+02  0.54246300411E+02  0.25529086178E+03  0.26273019909E+03  0.00000000000E+00 0.  1.
</event>
<event>
 7    1  0.5977291E-006  0.9094405E+02  0.7818608E-02  0.1452531E+00
          2   -1    0    0  502    0  0.00000000000E+00  0.00000000000E+00  0.11764476282E+04  0.11764476282E+04  0.00000000000E+00 0. -1.
          1   -1    0    0  501    0 -0.00000000000E+00 -0.00000000000E+00 -0.11944535519E+03  0.11944535519E+03  0.00000000000E+00 0. -1.
         25    2    1    2    0    0  0.10584592621E+03  0.22467088299E+01  0.10207852439E+04  0.10338457090E+04  0.12500411238E+03 0.  0.
          2    1    1    2  501    0 -0.88988535276E+02  0.17638863059E+02 -0.93181091440E+02  0.13004923953E+03  0.00000000000E+00 0. -1.
          1    1    1    2  502    0 -0.16857390930E+02 -0.19885571889E+02  0.12939812054E+03  0.13199803483E+03  0.00000000000E+00 0. -1.
         22    1    3    3    0    0  0.13844181472E+02 -0.11892539362E+02  0.68924606770E+03  0.68948766174E+03  0.00000000000E+00 0.  1.
         22    1    3    3    0    0  0.92001744734E+02  0.14139248192E+02  0.33153917617E+03  0.34435804725E+03  0.00000000000E+00 0.  1.
</event>
<event>
 7    1  0.5977291E-006  0.1501856E+03  0.7818608E-02  0.1351281E+00
          2   -1    0    0  502    0  0.00000000000E+00  0.00000000000E+00  0.13040301581E+04  0.13040301581E+04  0.00000000000E+00 0. -1.
          1   -1    0    0  501    0 -0.00000000000E+00 -0.00000000000E+00 -0.11495182186E+04  0.11495182186E+04  0.00000000000E+00 0. -1.
         25    2    1    2    0    0 -0.10346162585E+03 -0.67676163738E+02 -0.19108291614E+03  0.25965591789E+03  0.12499657473E+03 0.  0.
          2    1    1    2  501    0  0.13850807206E+03  0.70385720132E+02 -0.91737257433E+03  0.93043596006E+03  0.00000000000E+00 0. -1.
          1    1    1    2  502    0 -0.35046446212E+02 -0.27095563946E+01  0.12629674299E+04  0.12634564987E+04  0.00000000000E+00 0. -1.
         22    1    3    3    0    0 -0.76804990824E+02  0.11607876928E+02 -0.14414133159E+03  0.16373903901E+03  0.00000000000E+00 0. -1.
         22    1    3    3    0    0 -0.26656635026E+02 -0.79284040666E+02 -0.46941584549E+02  0.95916878886E+02  0.00000000000E+00 0. -1.
</event>
<event>
 7    1  0.5977291E-006  0.7769851E+02  0.7818608E-02  0.1434458E+00
          2   -1    0    0  502    0  0.00000000000E+00  0.00000000000E+00  0.13265944266E+04  0.13265944266E+04  0.00000000000E+00 0. -1.
          1   -1    0    0  501    0 -0.00000000000E+00 -0.00000000000E+00 -0.56293919977E+02  0.56293919977E+02  0.00000000000E+00 0. -1.
         25    2    1    2    0    0 -0.60927041801E+02  0.25200337797E+02  0.83265753489E+03  0.84456615347E+03  0.12500502285E+03 0.  0.
          2    1    1    2  501    0 -0.27368874404E+01  0.34794753399E+02 -0.39797384151E+02  0.52933894644E+02  0.00000000000E+00 0. -1.
          1    1    1    2  502    0  0.63663929241E+02 -0.59995091196E+02  0.47744035593E+03  0.48538829851E+03  0.00000000000E+00 0. -1.
         22    1    3    3    0    0 -0.61659251393E+02  0.36702702783E+02  0.82952449239E+03  0.83262226439E+03  0.00000000000E+00 0. -1.
         22    1    3    3    0    0  0.73220959176E+00 -0.11502364986E+02  0.31330424919E+01  0.11943889082E+02  0.00000000000E+00 0. -1.
</event>
<event>
 7    1  0.5977291E-006  0.3891063E+02  0.7818608E-02  0.1590917E+00
          2   -1    0    0  502    0  0.00000000000E+00  0.00000000000E+00  0.21256471298E+04  0.21256471298E+04  0.00000000000E+00 0. -1.
          1   -1    0    0  501    0 -0.00000000000E+00 -0.00000000000E+00 -0.48381473299E+03  0.48381473299E+03  0.00000000000E+00 0. -1.
         25    2    1    2    0    0 -0.18367728464E+02 -0.14140209783E+02  0.41465322011E+03  0.43370370103E+03  0.12499715338E+03 0.  0.
          2    1    1    2  501    0 -0.20958160380E+02  0.12013538344E+02 -0.47375380296E+03  0.47436930277E+03  0.00000000000E+00 0. -1.
          1    1    1    2  502    0  0.39325888843E+02  0.21266714389E+01  0.17009329797E+04  0.17013888590E+04  0.00000000000E+00 0. -1.
         22    1    3    3    0    0 -0.17992113462E+02  0.14877863673E+02  0.61125405586E+01  0.24133589173E+02  0.00000000000E+00 0.  1.
         22    1    3    3    0    0 -0.37561500147E+00 -0.29018073456E+02  0.40854067956E+03  0.40957011186E+03  0.00000000000E+00 0.  1.
</event>
<event>
 7    1  0.5977291E-006  0.2783820E+02  0.7818608E-02  0.1661568E+00
          2   -1    0    0  502    0  0.00000000000E+00  0.00000000000E+00  0.36050413083E+03  0.36050413083E+03  0.00000000000E+00 0. -1.
          1   -1    0    0  501    0 -0.00000000000E+00 -0.00000000000E+00 -0.51722343622E+03  0.51722343622E+03  0.00000000000E+00 0. -1.
         25    2    1    2    0    0 -0.45609163999E+02  0.37128830354E+01  0.11884365227E+03  0.17844303790E+03  0.12499649094E+03 0.  0.
          2    1    1    2  501    0  0.20878719632E+02  0.80602503570E+01 -0.48628003958E+03  0.48679478784E+03  0.00000000000E+00 0. -1.
          1    1    1    2  502    0  0.24730444367E+02 -0.11773133392E+02  0.21071708193E+03  0.21248974131E+03  0.00000000000E+00 0. -1.
         22    1    3    3    0    0 -0.49203657091E+02 -0.47144304938E+02  0.26804336149E+02  0.73226073196E+02  0.00000000000E+00 0. -1.
         22    1    3    3    0    0  0.35944930924E+01  0.50857187974E+02  0.92039316117E+02  0.10521696470E+03  0.00000000000E+00 0. -1.
</event>
<event>
 7    1  0.5977291E-006  0.7825330E+02  0.7818608E-02  0.1342811E+00
          2   -1    0    0  502    0  0.00000000000E+00  0.00000000000E+00  0.31831992039E+04  0.31831992039E+04  0.00000000000E+00 0. -1.
          1   -1    0    0  501    0 -0.00000000000E+00 -0.00000000000E+00 -0.56854201017E+02  0.56854201017E+02  0.00000000000E+00 0. -1.
         25    2    1    2    0    0  0.13375727869E+03  0.46741892577E+02  0.12184916363E+04  0.12330544720E+04  0.12500259602E+03 0.  0.
          2    1    1    2  501    0 -0.61216013653E+02 -0.46464471107E+02 -0.18688023805E+02  0.79092285569E+02  0.00000000000E+00 0. -1.
          1    1    1    2  502    0 -0.72541265034E+02 -0.27742146962E+00  0.19265413904E+04  0.19279066474E+04  0.00000000000E+00 0. -1.
         22    1    3    3    0    0  0.11651492322E+03  0.83397776397E+02  0.10516055905E+04  0.10613223989E+04  0.00000000000E+00 0. -1.
         22    1    3    3    0    0  0.17242355463E+02 -0.36655883820E+02  0.16688604582E+03  0.17173207310E+03  0.00000000000E+00 0. -1.
</event>
<event>
 7    1  0.5977291E-006  0.1227166E+03  0.7818608E-02  0.1322264E+00
          2   -1    0    0  502    0  0.00000000000E+00  0.00000000000E+00  0.10864180364E+04  0.10864180364E+04  0.00000000000E+00 0. -1.
          1   -1    0    0  501    0 -0.00000000000E+00 -0.00000000000E+00 -0.21613824034E+04  0.21613824034E+04  0.00000000000E+00 0. -1.
         25    2    1    2    0    0  0.15215678454E+03  0.37767248703E+02  0.15774684949E+03  0.25512192265E+03  0.12500029894E+03 0.  0.
          2    1    1    2  501    0 -0.10387845751E+03 -0.64906887199E+02 -0.21100455312E+04  0.21135978287E+04  0.00000000000E+00 0. -1.
          1    1    1    2  502    0 -0.48278327038E+02  0.27139638495E+02  0.87733431471E+03  0.87908068833E+03  0.00000000000E+00 0. -1.
         22    1    3    3    0    0  0.16287508856E+03  0.13159166614E+02  0.15933975865E+03  0.22823368907E+03  0.00000000000E+00 0. -1.
         22    1    3    3    0    0 -0.10718304019E+02  0.24608082089E+02 -0.15929091665E+01  0.26888233575E+02  0.00000000000E+00 0. -1.
</event>
<event>
 7    1  0.5977291E-006  0.8256357E+02  0.7818608E-02  0.1405015E+00
          2   -1    0    0  502    0  0.00000000000E+00  0.00000000000E+00  0.21722324589E+03  0.21722324589E+03  0.00000000000E+00 0. -1.
          1   -1    0    0  501    0 -0.00000000000E+00 -0.00000000000E+00 -0.31789700509E+03  0.31789700509E+03  0.00000000000E+00 0. -1.
         25    2    1    2    0    0 -0.15931137375E+02  0.71096288753E+02  0.73113496440E+02  0.16210689236E+03  0.12499831109E+03 0.  0.
          2    1    1    2  501    0  0.56106067030E+02 -0.61976401618E+02 -0.26234443101E+03  0.27534263309E+03  0.00000000000E+00 0. -1.
          1    1    1    2  502    0 -0.40174929656E+02 -0.91198871351E+01  0.88557175370E+02  0.97670725520E+02  0.00000000000E+00 0. -1.
         22    1    3    3    0    0  0.14615005448E+02  0.21273488447E+02  0.95951150501E+02  0.99361878895E+02  0.00000000000E+00 0.  1.
         22    1    3    3    0    0 -0.30546142823E+02  0.49822800306E+02 -0.22837654061E+02  0.62745013465E+02  0.00000000000E+00 0.  1.
</event>
<event>
 7    1  0.5977291E-006  0.3195795E+02  0.7818608E-02  0.1590267E+00
          2   -1    0    0  502    0  0.00000000000E+00  0.00000000000E+00  0.18369553908E+04  0.18369553908E+04  0.00000000000E+00 0. -1.
          1   -1    0    0  501    0 -0.00000000000E+00 -0.00000000000E+00 -0.12075031121E+03  0.12075031121E+03  0.00000000000E+00 0. -1.
         25    2    1    2    0    0 -0.12201259997E+02 -0.59477467487E+02  0.61768359887E+02  0.15208332009E+03  0.12501026391E+03 0.  0.
          2    1    1    2  501    0  0.14044434844E+01  0.29495913010E+02 -0.72556416641E+02  0.78335272652E+02  0.00000000000E+00 0. -1.
          1    1    1    2  502    0  0.10796816513E+02  0.29981554477E+02  0.17269931363E+04  0.17272871092E+04  0.00000000000E+00 0. -1.
         22    1    3    3    0    0 -0.45241375011E+02  0.22397221730E+02  0.26448420020E+02  0.56990670076E+02  0.00000000000E+00 0.  1.
         22    1    3    3    0    0  0.33040115014E+02 -0.81874689217E+02  0.35319939867E+02  0.95092650014E+02  0.00000000000E+00 0.  1.
</event>
<event>
 7    1  0.5977291E-006  0.1030267E+03  0.7818608E-02  0.1377269E+00
          2   -1    0    0  502    0  0.00000000000E+00  0.00000000000E+00  0.12470825567E+04  0.12470825567E+04  0.00000000000E+00 0. -1.
          1   -1    0    0  501    0 -0.00000000000E+00 -0.00000000000E+00 -0.26278937809E+03  0.26278937809E+03  0.00000000000E+00 0. -1.
         25    2    1    2    0    0 -0.84495973933E+02 -0.83386374880E+02  0.79163853521E+02  0.18969849433E+03  0.12500298364E+03 0.  0.
          2    1    1    2  501    0  0.44181491705E+02  0.92099674975E+02 -0.19454180955E+03  0.21972908319E+03  0.00000000000E+00 0. -1.
          1    1    1    2  502    0  0.40314482228E+02 -0.87133000944E+01  0.10996711347E+04  0.11004443573E+04  0.00000000000E+00 0. -1.
         22    1    3    3    0    0 -0.46029989797E+02  0.28359098773E+02  0.28487846008E+02  0.61111012217E+02  0.00000000000E+00 0.  1.
         22    1    3    3    0    0 -0.38465984136E+02 -0.11174547365E+03  0.50676007513E+02  0.12858748211E+03  0.00000000000E+00 0.  1.
</event>
<event>
 7    1  0.5977291E-006  0.1411567E+03  0.7818608E-02  0.1337784E+00
          2   -1    0    0  502    0  0.00000000000E+00  0.00000000000E+00  0.65310062308E+03  0.65310062308E+03  0.00000000000E+00 0. -1.
          1   -1    0    0  501    0 -0.00000000000E+00 -0.00000000000E+00 -0.24060628019E+03  0.24060628019E+03  0.00000000000E+00 0. -1.
         25    2    1    2    0    0  0.86991552137E+02 -0.67890739150E+02  0.33537077478E+03  0.37453289354E+03  0.12499859663E+03 0.  0.
          2    1    1    2  501    0 -0.92447446439E+02  0.10953921750E+03 -0.19601098326E+03  0.24282849108E+03  0.00000000000E+00 0. -1.
          1    1    1    2  502    0  0.54558943018E+01 -0.41648478347E+02  0.27313455136E+03  0.27634551865E+03  0.00000000000E+00 0. -1.
         22    1    3    3    0    0  0.69569020809E+02 -0.40042860677E+02  0.68142729368E+02  0.10529345143E+03  0.00000000000E+00 0.  1.
         22    1    3    3    0    0  0.17422531328E+02 -0.27847878473E+02  0.26722804541E+03  0.26923944211E+03  0.00000000000E+00 0.  1.
</event>
<event>
 7    1  0.5977291E-006  0.8878500E+02  0.7818608E-02  0.1338566E+00
          2   -1    0    0  502    0  0.00000000000E+00  0.00000000000E+00  0.60970662981E+03  0.60970662981E+03  0.00000000000E+00 0. -1.
          1   -1    0    0  501    0 -0.00000000000E+00 -0.00000000000E+00 -0.13531082186E+03  0.13531082186E+03  0.00000000000E+00 0. -1.
         25    2    1    2    0    0  0.50765632273E+02 -0.10090953530E+03  0.35847780511E+02  0.17224850378E+03  0.12499839980E+03 0.  0.
          2    1    1    2  501    0  0.13729379568E+02  0.85419597679E+02 -0.35927830230E+02  0.93679306766E+02  0.00000000000E+00 0. -1.
          1    1    1    2  502    0 -0.64495011840E+02  0.15489937618E+02  0.47447585767E+03  0.47908964112E+03  0.00000000000E+00 0. -1.
         22    1    3    3    0    0  0.44793916974E+02 -0.13027506467E+03  0.23104945586E+02  0.13968509578E+03  0.00000000000E+00 0.  1.
         22    1    3    3    0    0  0.59717152989E+01  0.29365529368E+02  0.12742834925E+02  0.32563408001E+02  0.00000000000E+00 0.  1.
</event>
<event>
 7    1  0.5977291E-006  0.5382662E+02  0.7818608E-02  0.1465719E+00
          2   -1    0    0  502    0  0.00000000000E+00  0.00000000000E+00  0.31526574525E+03  0.31526574525E+03  0.00000000000E+00 0. -1.
          1   -1    0    0  501    0 -0.00000000000E+00 -0.00000000000E+00 -0.16425142274E+03  0.16425142274E+03  0.00000000000E+00 0. -1.
         25    2    1    2    0    0  0.20295211017E+02 -0.83234235676E+02  0.17180617582E+03  0.22908877148E+03  0.12499787834E+03 0.  0.
          2    1    1    2  501    0 -0.29356981548E+02  0.44256330015E+02 -0.12660946024E+03  0.13729679725E+03  0.00000000000E+00 0. -1.
          1    1    1    2  502    0  0.90617705307E+01  0.38977905661E+02  0.10581760693E+03  0.11313159926E+03  0.00000000000E+00 0. -1.
         22    1    3    3    0    0 -0.28984817805E+02 -0.95283586352E+02  0.99686137579E+02  0.14091276563E+03  0.00000000000E+00 0. -1.
         22    1    3    3    0    0  0.49280028823E+02  0.12049350676E+02  0.72120038242E+02  0.88176005855E+02  0.00000000000E+00 0. -1.
</event>
<event>
 7    1  0.5977291E-006  0.1355526E+03  0.7818608E-02  0.1271789E+00
          2   -1    0    0  502    0  0.00000000000E+00  0.00000000000E+00  0.13275700346E+04  0.13275700346E+04  0.00000000000E+00 0. -1.
          1   -1    0    0  501    0 -0.00000000000E+00 -0.00000000000E+00 -0.68651705715E+02  0.68651705715E+02  0.00000000000E+00 0. -1.
         25    2    1    2    0    0  0.12695146866E+03 -0.10920898502E+03  0.63227712240E+03  0.66591544022E+03  0.12500294481E+03 0.  0.
          2    1    1    2  501    0 -0.79410789285E+02 -0.99611110856E+01 -0.10189830159E+02  0.80679178402E+02  0.00000000000E+00 0. -1.
          1    1    1    2  502    0 -0.47540679379E+02  0.11917009611E+03  0.63683103669E+03  0.64962712173E+03  0.00000000000E+00 0. -1.
         22    1    3    3    0    0  0.57126542654E+02 -0.12461722892E+03  0.43421382967E+03  0.45534003283E+03  0.00000000000E+00 0. -1.
         22    1    3    3    0    0  0.69824926011E+02  0.15408243898E+02  0.19806329273E+03  0.21057540740E+03  0.00000000000E+00 0. -1.
</event>
<event>
 7    1  0.5977291E-006  0.7824518E+02  0.7818608E-02  0.1398607E+00
          2   -1    0    0  502    0  0.00000000000E+00  0.00000000000E+00  0.92326317018E+03  0.92326317018E+03  0.00000000000E+00 0. -1.
          1   -1    0    0  501    0 -0.00000000000E+00 -0.00000000000E+00 -0.50451365144E+02  0.50451365144E+02  0.00000000000E+00 0. -1.
         25    2    1    2    0    0  0.78163282717E+02  0.83127975986E+02  0.53500470656E+03  0.56113735981E+03  0.12500136553E+03 0.  0.
          2    1    1    2  501    0 -0.35903673076E+02 -0.28317696431E+02 -0.18708233277E+02  0.49406109580E+02  0.00000000000E+00 0. -1.
          1    1    1    2  502    0 -0.42259609642E+02 -0.54810279556E+02  0.35651533176E+03  0.36317106593E+03  0.00000000000E+00 0. -1.
         22    1    3    3    0    0  0.84136884335E+01  0.97406531722E+02  0.32545765287E+03  0.33982570001E+03  0.00000000000E+00 0.  1.
         22    1    3    3    0    0  0.69749594284E+02 -0.14278555735E+02  0.20954705369E+03  0.22131165980E+03  0.00000000000E+00 0.  1.
</event>
<event>
 7    1  0.5977291E-006  0.7628521E+02  0.7818608E-02  0.1398047E+00
          2   -1    0    0  502    0  0.00000000000E+00  0.00000000000E+00  0.17384039740E+04  0.17384039740E+04  0.00000000000E+00 0. -1.
          1   -1    0    0  501    0 -0.00000000000E+00 -0.00000000000E+00 -0.10892017971E+04  0.10892017971E+04  0.00000000000E+00 0. -1.
         25    2    1    2    0    0 -0.68140845074E+02 -0.85052037130E+02  0.19616100535E+03  0.25686825400E+03  0.12500054442E+03 0.  0.
          2    1    1    2  501    0  0.45246529390E+02  0.13121354810E+02 -0.10573811346E+04  0.10584301026E+04  0.00000000000E+00 0. -1.
          1    1    1    2  502    0  0.22894315684E+02  0.71930682320E+02  0.15104223061E+04  0.15123074144E+04  0.00000000000E+00 0. -1.
         22    1    3    3    0    0 -0.19946006844E+02 -0.90839403772E+01  0.15738133286E+03  0.15890011043E+03  0.00000000000E+00 0. -1.
         22    1    3    3    0    0 -0.48194838231E+02 -0.75968096752E+02  0.38779672493E+02  0.97968143572E+02  0.00000000000E+00 0. -1.
</event>
<event>
 7    1  0.5977291E-006  0.1227165E+03  0.7818608E-02  0.1359634E+00
          2   -1    0    0  502    0  0.00000000000E+00  0.00000000000E+00  0.33609659639E+03  0.33609659639E+03  0.00000000000E+00 0. -1.
          1   -1    0    0  501    0 -0.00000000000E+00 -0.00000000000E+00 -0.78383615167E+03  0.78383615167E+03  0.00000000000E+00 0. -1.
         25    2    1    2    0    0 -0.62455342175E+02  0.63263425069E+02 -0.25440222892E+02  0.15548331126E+03  0.12499969768E+03 0.  0.
          2    1    1    2  501    0  0.10065324200E+03 -0.75413413775E+02 -0.68614484067E+03  0.69757651944E+03  0.00000000000E+00 0. -1.
          1    1    1    2  502    0 -0.38197899827E+02  0.12149988705E+02  0.26384550828E+03  0.26687291736E+03  0.00000000000E+00 0. -1.
         22    1    3    3    0    0  0.32241674288E+02  0.19770762294E+02 -0.34091060012E+02  0.50917668597E+02  0.00000000000E+00 0. -1.
         22    1    3    3    0    0 -0.94697016463E+02  0.43492662775E+02  0.86508371203E+01  0.10456564266E+03  0.00000000000E+00 0. -1.
</event>
<event>
 7    1  0.5977291E-006  0.8777374E+02  0.7818608E-02  0.1389903E+00
          2   -1    0    0  502    0  0.00000000000E+00  0.00000000000E+00  0.99846857334E+03  0.99846857334E+03  0.00000000000E+00 0. -1.
          1   -1    0    0  501    0 -0.00000000000E+00 -0.00000000000E+00 -0.93991848904E+03  0.93991848904E+03  0.00000000000E+00 0. -1.
         25    2    1    2    0    0  0.58418254852E+02  0.74446496409E+02  0.81073793658E+03  0.82575789202E+03  0.12500048435E+03 0.  0.
          2    1    1    2  501    0  0.18532577081E+02 -0.39572132373E+02 -0.92196126525E+03  0.92299619972E+03  0.00000000000E+00 0. -1.
          1    1    1    2  502    0 -0.76950831933E+02 -0.34874364037E+02  0.16977341297E+03  0.18963297064E+03  0.00000000000E+00 0. -1.
         22    1    3    3    0    0  0.96513751591E+02  0.39977661566E+02  0.58428941502E+03  0.59355474741E+03  0.00000000000E+00 0. -1.
         22    1    3    3    0    0 -0.38095496739E+02  0.34468834844E+02  0.22644852156E+03  0.23220314461E+03  0.00000000000E+00 0. -1.
</event>
<event>
 7    1  0.5977291E-006  0.6606513E+02  0.7818608E-02  0.1376720E+00
          2   -1    0    0  502    0  0.00000000000E+00  0.00000000000E+00  0.10529525297E+04  0.10529525297E+04  0.00000000000E+00 0. -1.
          1   -1    0    0  501    0 -0.00000000000E+00 -0.00000000000E+00 -0.73957559676E+03  0.73957559676E+03  0.00000000000E+00 0. -1.
         25    2    1    2    0    0  0.23907562557E+01  0.27811715687E+02  0.26130071102E+03  0.29100404786E+03  0.12500434810E+03 0.  0.
          2    1    1    2  501    0  0.64597950612E+02 -0.12773528438E+01 -0.72160662822E+03  0.72449337661E+03  0.00000000000E+00 0. -1.
          1    1    1    2  502    0 -0.66988706867E+02 -0.26534362843E+02  0.77368285016E+03  0.77703070202E+03  0.00000000000E+00 0. -1.
         22    1    3    3    0    0  0.57960501051E+01 -0.36318963210E+02  0.19597907323E+03  0.19940024682E+03  0.00000000000E+00 0.  1.
         22    1    3    3    0    0 -0.34052938494E+01  0.64130678897E+02  0.65321637788E+02  0.91603801042E+02  0.00000000000E+00 0.  1.
</event>
<event>
 7    1  0.5977291E-006  0.4862880E+02  0.7818608E-02  0.1464839E+00
          2   -1    0    0  502    0  0.00000000000E+00  0.00000000000E+00  0.22964312406E+03  0.22964312406E+03  0.00000000000E+00 0. -1.
          1   -1    0    0  501    0 -0.00000000000E+00 -0.00000000000E+00 -0.13950766816E+04  0.13950766816E+04  0.00000000000E+00 0. -1.
         25    2    1    2    0    0  0.21270243639E+02  0.47976585681E+01 -0.48523686155E+03  0.50155297299E+03  0.12500052848E+03 0.  0.
          2    1    1    2  501    0 -0.17003633126E+02 -0.49169660338E+02 -0.89867885750E+03  0.90018357459E+03  0.00000000000E+00 0. -1.
          1    1    1    2  502    0 -0.42666105135E+01  0.44372001770E+02  0.21848216148E+03  0.22298325810E+03  0.00000000000E+00 0. -1.
         22    1    3    3    0    0  0.24851237164E+02  0.63364427217E+02 -0.24845369083E+03  0.25760797952E+03  0.00000000000E+00 0.  1.
         22    1    3    3    0    0 -0.35809935244E+01 -0.58566768649E+02 -0.23678317072E+03  0.24394499347E+03  0.00000000000E+00 0.  1.
</event>
<event>
 7    1  0.5977291E-006  0.1414289E+03  0.7818608E-02  0.1245012E+00
          2   -1    0    0  502    0  0.00000000000E+00  0.00000000000E+00  0.60950531098E+03  0.60950531098E+03  0.00000000000E+00 0. -1.
          1   -1    0    0  501    0 -0.00000000000E+00 -0.00000000000E+00 -0.72552176652E+03  0.72552176652E+03  0.00000000000E+00 0. -1.
         25    2    1    2    0    0  0.21857009382E+03  0.24294165422E+02  0.20248047384E+03  0.32401650721E+03  0.12500104909E+03 0.  0.
          2    1    1    2  501    0 -0.92330132794E+02 -0.38068653641E+02 -0.64916195573E+03  0.65679930008E+03  0.00000000000E+00 0. -1.
          1    1    1    2  502    0 -0.12623996103E+03  0.13774488219E+02  0.33066502635E+03  0.35421127020E+03  0.00000000000E+00 0. -1.
         22    1    3    3    0    0  0.10356551491E+03  0.19316154835E+02  0.18457744680E+02  0.10695615015E+03  0.00000000000E+00 0. -1.
         22    1    3    3    0    0  0.11500457891E+03  0.49780105870E+01  0.18402272916E+03  0.21706035706E+03  0.00000000000E+00 0. -1.
</event>
<event>
 7    1  0.5977291E-006  0.3028576E+03  0.7818608E-02  0.1201679E+00
          2   -1    0    0  502    0  0.00000000000E+00  0.00000000000E+00  0.30015385749E+04  0.30015385749E+04  0.00000000000E+00 0. -1.
          1   -1    0    0  501    0 -0.00000000000E+00 -0.00000000000E+00 -0.19848383375E+03  0.19848383375E+03  0.00000000000E+00 0. -1.
         25    2    1    2    0    0 -0.28066965579E+03 -0.19787656698E+03  0.28113386255E+03  0.46107573778E+03  0.12499598336E+03 0.  0.
          2    1    1    2  501    0  0.25166915256E+03  0.13052776122E+03  0.78153790001E+02  0.29407970636E+03  0.00000000000E+00 0. -1.
          1    1    1    2  502    0  0.29000503232E+02  0.67348805759E+02  0.24437670886E+04  0.24448669645E+04  0.00000000000E+00 0. -1.
         22    1    3    3    0    0 -0.27701888962E+03 -0.15389883407E+03  0.26801560707E+03  0.41503816929E+03  0.00000000000E+00 0.  1.
         22    1    3    3    0    0 -0.36507661679E+01 -0.43977732911E+02  0.13118255480E+02  0.46037568489E+02  0.00000000000E+00 0.  1.
</event>
<event>
 7    1  0.5977291E-006  0.5925430E+02  0.7818608E-02  0.1453632E+00
          2   -1    0    0  502    0  0.00000000000E+00  0.00000000000E+00  0.11249595476E+04  0.11249595476E+04  0.00000000000E+00 0. -1.
          1   -1    0    0  501    0 -0.00000000000E+00 -0.00000000000E+00 -0.11175146464E+03  0.11175146464E+03  0.00000000000E+00 0. -1.
         25    2    1    2    0    0 -0.84701083172E+02  0.42809027472E+02  0.11918977342E+03  0.19706792039E+03  0.12499070699E+03 0.  0.
          2    1    1    2  501    0  0.28116983926E+02 -0.28012288185E+02 -0.66447341893E+02  0.77398335377E+02  0.00000000000E+00 0. -1.
          1    1    1    2  502    0  0.56584099247E+02 -0.14796739287E+02  0.96046565148E+03  0.96224475653E+03  0.00000000000E+00 0. -1.
         22    1    3    3    0    0 -0.74286921935E+02 -0.18740877367E+02  0.10987985073E+03  0.13395278591E+03  0.00000000000E+00 0.  1.
         22    1    3    3    0    0 -0.10414161238E+02  0.61549904839E+02  0.93099226868E+01  0.63115134480E+02  0.00000000000E+00 0.  1.
</event>
<event>
 7    1  0.5977291E-006  0.1575392E+03  0.7818608E-02  0.1307130E+00
          2   -1    0    0  502    0  0.00000000000E+00  0.00000000000E+00  0.18560374108E+04  0.18560374108E+04  0.00000000000E+00 0. -1.
          1   -1    0    0  501    0 -0.00000000000E+00 -0.00000000000E+00 -0.26474767038E+03  0.26474767038E+03  0.00000000000E+00 0. -1.
         25    2    1    2    0    0  0.15553517770E+03 -0.11723518694E+03  0.82395898422E+03  0.85584380249E+03  0.12499970410E+03 0.  0.
          2    1    1    2  501    0 -0.38376388100E+02  0.31174606724E+02 -0.24108423614E+03  0.24610203612E+03  0.00000000000E+00 0. -1.
          1    1    1    2  502    0 -0.11715878960E+03  0.86060580212E+02  0.10084149923E+04  0.10188392426E+04  0.00000000000E+00 0. -1.
         22    1    3    3    0    0  0.12410703121E+03 -0.15891268806E+02  0.46375711225E+03  0.48033919971E+03  0.00000000000E+00 0. -1.
         22    1    3    3    0    0  0.31428146484E+02 -0.10134391813E+03  0.36020187197E+03  0.37550460278E+03  0.00000000000E+00 0. -1.
</event>
<event>
 7    1  0.5977291E-006  0.3258798E+02  0.7818608E-02  0.1629993E+00
          2   -1    0    0  502    0  0.00000000000E+00  0.00000000000E+00  0.43060907673E+03  0.43060907673E+03  0.00000000000E+00 0. -1.
          1   -1    0    0  501    0 -0.00000000000E+00 -0.00000000000E+00 -0.56727420685E+02  0.56727420685E+02  0.00000000000E+00 0. -1.
         25    2    1    2    0    0 -0.23622666818E+02 -0.42153778588E+01  0.37129585465E+02  0.13258414747E+03  0.12499660094E+03 0.  0.
          2    1    1    2  501    0 -0.36111604720E+01  0.22585033245E+02  0.78018599733E+01  0.24165951785E+02  0.00000000000E+00 0. -1.
          1    1    1    2  502    0  0.27233827290E+02 -0.18369655386E+02  0.32895021061E+03  0.33058639816E+03  0.00000000000E+00 0. -1.
         22    1    3    3    0    0  0.10165420653E+02  0.40071264958E+02 -0.25652233438E+02  0.48652637469E+02  0.00000000000E+00 0. -1.
         22    1    3    3    0    0 -0.33788087471E+02 -0.44286642817E+02  0.62781818903E+02  0.83931510005E+02  0.00000000000E+00 0. -1.
</event>
<event>
 7    1  0.5977291E-006  0.3215735E+03  0.7818608E-02  0.1155908E+00
          2   -1    0    0  502    0  0.00000000000E+00  0.00000000000E+00  0.78491706058E+03  0.78491706058E+03  0.00000000000E+00 0. -1.
          1   -1    0    0  501    0 -0.00000000000E+00 -0.00000000000E+00 -0.34109671673E+03  0.34109671673E+03  0.00000000000E+00 0. -1.
         25    2    1    2    0    0  0.35226850535E+03 -0.26226989631E+02  0.50290191678E+03  0.62714966298E+03  0.12500162810E+03 0.  0.
          2    1    1    2  501    0 -0.90478886201E+02 -0.72053109261E+02 -0.16358484787E+03  0.20034490723E+03  0.00000000000E+00 0. -1.
          1    1    1    2  502    0 -0.26178961915E+03  0.98280098892E+02  0.10450327494E+03  0.29851920710E+03  0.00000000000E+00 0. -1.
         22    1    3    3    0    0  0.20187035731E+03 -0.68987339127E+02  0.33971790509E+03  0.40114729111E+03  0.00000000000E+00 0. -1.
         22    1    3    3    0    0  0.15039814804E+03  0.42760349495E+02  0.16318401169E+03  0.22600237188E+03  0.00000000000E+00 0. -1.
</event>
<event>
 7    1  0.5977291E-006  0.6708937E+02  0.7818608E-02  0.1427356E+00
          2   -1    0    0  502    0  0.00000000000E+00  0.00000000000E+00  0.21646311407E+04  0.21646311407E+04  0.00000000000E+00 0. -1.
          1   -1    0    0  501    0 -0.00000000000E+00 -0.00000000000E+00 -0.13780334746E+04  0.13780334746E+04  0.00000000000E+00 0. -1.
         25    2    1    2    0    0  0.31635574411E+02 -0.11794781097E+02  0.11318789051E+03  0.17197993977E+03  0.12500269874E+03 0.  0.
          2    1    1    2  501    0  0.10529023229E+02 -0.41334480352E+02 -0.13477311453E+04  0.13484059624E+04  0.00000000000E+00 0. -1.
          1    1    1    2  502    0 -0.42164597639E+02  0.53129261449E+02  0.20211409208E+04  0.20222787131E+04  0.00000000000E+00 0. -1.
         22    1    3    3    0    0  0.72921851825E+02 -0.32125509581E+02  0.90786825429E+02  0.12079690605E+03  0.00000000000E+00 0.  1.
         22    1    3    3    0    0 -0.41286277415E+02  0.20330728484E+02  0.22401065084E+02  0.51183033716E+02  0.00000000000E+00 0.  1.
</event>
<event>
 7    1  0.5977291E-006  0.4059226E+02  0.7818608E-02  0.1544060E+00
          2   -1    0    0  502    0  0.00000000000E+00  0.00000000000E+00  0.44785530505E+03  0.44785530505E+03  0.00000000000E+00 0. -1.
          1   -1    0    0  501    0 -0.00000000000E+00 -0.00000000000E+00 -0.97005121688E+03  0.97005121688E+03  0.00000000000E+00 0. -1.
         25    2    1    2    0    0  0.55669685683E+02 -0.22016691079E+00  0.57903730329E+02  0.14858332312E+03  0.12499999818E+03 0.  0.
          2    1    1    2  501    0 -0.21741731366E+02  0.22203557175E+02 -0.92326343895E+03  0.92378627319E+03  0.00000000000E+00 0. -1.
          1    1    1    2  502    0 -0.33927954317E+02 -0.21983390265E+02  0.34316379680E+03  0.34553692561E+03  0.00000000000E+00 0. -1.
         22    1    3    3    0    0  0.22985544297E+02 -0.57757806066E+02  0.23914900090E+01  0.62209473817E+02  0.00000000000E+00 0.  1.
         22    1    3    3    0    0  0.32684141386E+02  0.57537639155E+02  0.55512240320E+02  0.86373849301E+02  0.00000000000E+00 0.  1.
</event>
<event>
 7    1  0.6302353E-006  0.8703851E+02  0.7818608E-02  0.1360486E+00
          2   -1    0    0  502    0  0.00000000000E+00  0.00000000000E+00  0.14769218326E+04  0.14769218326E+04  0.00000000000E+00 0. -1.
          1   -1    0    0  501    0 -0.00000000000E+00 -0.00000000000E+00 -0.89734273873E+03  0.89734273873E+03  0.00000000000E+00 0. -1.
         25    2    1    2    0    0 -0.46718860382E+02 -0.54170776940E+02 -0.67196922008E+03  0.68722898389E+03  0.12499567422E+03 0.  0.
          2    1    1    2  501    0 -0.39238550184E+02  0.40110496129E+02 -0.21281306784E+03  0.22008615941E+03  0.00000000000E+00 0. -1.
          1    1    1    2  502    0  0.85957410566E+02  0.14060280812E+02  0.14643613818E+04  0.14669494280E+04  0.00000000000E+00 0. -1.
         22    1    3    3    0    0 -0.88151335293E+02 -0.35829849661E+02 -0.37824147489E+03  0.39002698543E+03  0.00000000000E+00 0. -1.
         22    1    3    3    0    0  0.41432474910E+02 -0.18340927280E+02 -0.29372774519E+03  0.29720199845E+03  0.00000000000E+00 0. -1.
</event>
<event>
 7    1  0.5977291E-006  0.7029205E+02  0.7818608E-02  0.1445452E+00
          2   -1    0    0  502    0  0.00000000000E+00  0.00000000000E+00  0.21010842241E+04  0.21010842241E+04  0.00000000000E+00 0. -1.
          1   -1    0    0  501    0 -0.00000000000E+00 -0.00000000000E+00 -0.27540000275E+03  0.27540000275E+03  0.00000000000E+00 0. -1.
         25    2    1    2    0    0 -0.13304403334E+02  0.93243930317E+02  0.10779137291E+04  0.10892169977E+04  0.12499689175E+03 0.  0.
          2    1    1    2  501    0 -0.13779381721E+02 -0.32756440797E+02 -0.26749285118E+03  0.26984306774E+03  0.00000000000E+00 0. -1.
          1    1    1    2  502    0  0.27083785056E+02 -0.60487489520E+02  0.10152633434E+04  0.10174241614E+04  0.00000000000E+00 0. -1.
         22    1    3    3    0    0  0.14015855151E+02  0.95142767611E+02  0.10262267607E+04  0.10307230252E+04  0.00000000000E+00 0. -1.
         22    1    3    3    0    0 -0.27320258486E+02 -0.18988372946E+01  0.51686968448E+02  0.58493972460E+02  0.00000000000E+00 0. -1.
</event>
<event>
 7    1  0.5977291E-006  0.1016728E+03  0.7818608E-02  0.1371046E+00
          2   -1    0    0  502    0  0.00000000000E+00  0.00000000000E+00  0.58427111483E+03  0.58427111483E+03  0.00000000000E+00 0. -1.
          1   -1    0    0  501    0 -0.00000000000E+00 -0.00000000000E+00 -0.21071232627E+03  0.21071232627E+03  0.00000000000E+00 0. -1.
         25    2    1    2    0    0  0.68721769010E+02  0.55052938363E+02 -0.76237818387E+02  0.17086338751E+03  0.12501433790E+03 0.  0.
          2    1    1    2  501    0 -0.60498110736E+02 -0.98267239253E+02 -0.47566015959E+02  0.12481585471E+03  0.00000000000E+00 0. -1.
          1    1    1    2  502    0 -0.82236582741E+01  0.43214300890E+02  0.49736262291E+03  0.49930419888E+03  0.00000000000E+00 0. -1.
         22    1    3    3    0    0  0.41022589407E+02  0.51643014033E+02  0.21381804519E+02  0.69332786650E+02  0.00000000000E+00 0.  1.
         22    1    3    3    0    0  0.27699179602E+02  0.34099243293E+01 -0.97619622905E+02  0.10153060086E+03  0.00000000000E+00 0.  1.
</event>
<event>
 7    1  0.7402802E-006  0.4443686E+02  0.7818608E-02  0.1485426E+00
          2   -1    0    0  502    0  0.00000000000E+00  0.00000000000E+00  0.16860017758E+04  0.16860017758E+04  0.00000000000E+00 0. -1.
          1   -1    0    0  501    0 -0.00000000000E+00 -0.00000000000E+00 -0.27051548471E+04  0.27051548471E+04  0.00000000000E+00 0. -1.
         25    2    1    2    0    0 -0.46757389939E+02 -0.58566564968E+02 -0.62241757699E+03  0.63925346967E+03  0.12500024916E+03 0.  0.
          2    1    1    2  501    0  0.39475697025E+02  0.14740305577E+02 -0.20738111192E+04  0.20742391775E+04  0.00000000000E+00 0. -1.
          1    1    1    2  502    0  0.72816929137E+01  0.43826259390E+02  0.16770756249E+04  0.16776639758E+04  0.00000000000E+00 0. -1.
         22    1    3    3    0    0  0.18080559042E+02 -0.75202056698E+02 -0.28817853177E+03  0.29837748259E+03  0.00000000000E+00 0.  1.
         22    1    3    3    0    0 -0.64837948981E+02  0.16635491730E+02 -0.33423904523E+03  0.34087598708E+03  0.00000000000E+00 0.  1.
</event>
<event>
 7    1  0.5977291E-006  0.2764444E+02  0.7818608E-02  0.1650607E+00
          2   -1    0    0  502    0  0.00000000000E+00  0.00000000000E+00  0.15004885695E+04  0.15004885695E+04  0.00000000000E+00 0. -1.
          1   -1    0    0  501    0 -0.00000000000E+00 -0.00000000000E+00 -0.12937046056E+03  0.12937046056E+03  0.00000000000E+00 0. -1.
         25    2    1    2    0    0  0.78817787025E+01  0.24647917353E-01  0.12125142396E+04  0.12189657288E+04  0.12499817520E+03 0.  0.
          2    1    1    2  501    0  0.50384885874E+00 -0.27639852315E+02 -0.12388606761E+03  0.12693294705E+03  0.00000000000E+00 0. -1.
          1    1    1    2  502    0 -0.83856275612E+01  0.27615204398E+02  0.28248993695E+03  0.28396035417E+03  0.00000000000E+00 0. -1.
         22    1    3    3    0    0  0.23155367088E+02 -0.78581632420E+01  0.11917928397E+04  0.11920436630E+04  0.00000000000E+00 0. -1.
         22    1    3    3    0    0 -0.15273588385E+02  0.78828111594E+01  0.20721399834E+02  0.26922065764E+02  0.00000000000E+00 0. -1.
</event>
<event>
 7    1  0.5977291E-006  0.7529225E+02  0.7818608E-02  0.1491341E+00
          2   -1    0    0  502    0  0.00000000000E+00  0.00000000000E+00  0.11008084814E+03  0.11008084814E+03  0.00000000000E+00 0. -1.
          1   -1    0    0  501    0 -0.00000000000E+00 -0.00000000000E+00 -0.55080911342E+03  0.55080911342E+03  0.00000000000E+00 0. -1.
         25    2    1    2    0    0  0.28160687521E+02 -0.78317501296E+02 -0.44351983498E+02  0.15659136771E+03  0.12500841040E+03 0.  0.
          2    1    1    2  501    0 -0.44183924167E+02  0.60633723651E+02 -0.44439165402E+03  0.45068016348E+03  0.00000000000E+00 0. -1.
          1    1    1    2  502    0  0.16023236646E+02  0.17683777644E+02  0.48015372226E+02  0.53618430361E+02  0.00000000000E+00 0. -1.
         22    1    3    3    0    0  0.31608078147E+02  0.11309529326E+02 -0.56859553517E+02  0.66030181614E+02  0.00000000000E+00 0. -1.
         22    1    3    3    0    0 -0.34473906262E+01 -0.89627030621E+02  0.12507570019E+02  0.90561186100E+02  0.00000000000E+00 0. -1.
</event>
<event>
 7    1  0.5977291E-006  0.4376488E+02  0.7818608E-02  0.1512677E+00
          2   -1    0    0  502    0  0.00000000000E+00  0.00000000000E+00  0.40296164887E+04  0.40296164887E+04  0.00000000000E+00 0. -1.
          1   -1    0    0  501    0 -0.00000000000E+00 -0.00000000000E+00 -0.43303018592E+03  0.43303018592E+03  0.00000000000E+00 0. -1.
         25    2    1    2    0    0  0.15299772215E+01 -0.14549888852E+02  0.11191746668E+04  0.11262285179E+04  0.12499879839E+03 0.  0.
          2    1    1    2  501    0  0.31150028648E+02 -0.16964078591E+02 -0.42859335186E+03  0.43005856055E+03  0.00000000000E+00 0. -1.
          1    1    1    2  502    0 -0.32680005870E+02  0.31513967443E+02  0.29060049879E+04  0.29063595962E+04  0.00000000000E+00 0. -1.
         22    1    3    3    0    0 -0.58762085220E+02 -0.19195314066E+02  0.69845187884E+03  0.70118219443E+03  0.00000000000E+00 0.  1.
         22    1    3    3    0    0  0.60292062441E+02  0.46454252137E+01  0.42072278798E+03  0.42504632347E+03  0.00000000000E+00 0.  1.
</event>
<event>
 7    1  0.1038474E-005  0.1406421E+03  0.7818608E-02  0.1236610E+00
          2   -1    0    0  502    0  0.00000000000E+00  0.00000000000E+00  0.13823852600E+04  0.13823852600E+04  0.00000000000E+00 0. -1.
          1   -1    0    0  501    0 -0.00000000000E+00 -0.00000000000E+00 -0.16929712975E+04  0.16929712975E+04  0.00000000000E+00 0. -1.
         25    2    1    2    0    0  0.59534422136E+02  0.31614692945E+02 -0.37257355639E+03  0.39872232125E+03  0.12499839326E+03 0.  0.
          2    1    1    2  501    0 -0.13005783519E+03 -0.11519889771E+03 -0.12993483956E+04  0.13109126896E+04  0.00000000000E+00 0. -1.
          1    1    1    2  502    0  0.70523413053E+02  0.83584204761E+02  0.13613359145E+04  0.13657215467E+04  0.00000000000E+00 0. -1.
         22    1    3    3    0    0 -0.38973328482E+02  0.26772988066E+01 -0.11421294563E+03  0.12070909332E+03  0.00000000000E+00 0. -1.
         22    1    3    3    0    0  0.98507750619E+02  0.28937394138E+02 -0.25836061076E+03  0.27801322793E+03  0.00000000000E+00 0. -1.
</event>
<event>
 7    1  0.5977291E-006  0.9307485E+02  0.7818608E-02  0.1308313E+00
          2   -1    0    0  502    0  0.00000000000E+00  0.00000000000E+00  0.13000090746E+03  0.13000090746E+03  0.00000000000E+00 0. -1.
          1   -1    0    0  501    0 -0.00000000000E+00 -0.00000000000E+00 -0.40209072228E+03  0.40209072228E+03  0.00000000000E+00 0. -1.
         25    2    1    2    0    0 -0.15234812426E+02 -0.38246911830E+01 -0.94931873055E+02  0.15774742718E+03  0.12500184993E+03 0.  0.
          2    1    1    2  501    0  0.10749044768E+03 -0.84970648962E+01 -0.23927291746E+03  0.26244604300E+03  0.00000000000E+00 0. -1.
          1    1    1    2  502    0 -0.92255635254E+02  0.12321756079E+02  0.62114975702E+02  0.11189815957E+03  0.00000000000E+00 0. -1.
         22    1    3    3    0    0  0.21859208928E+02 -0.50006108331E+02 -0.12075138556E+02  0.55894944821E+02  0.00000000000E+00 0.  1.
         22    1    3    3    0    0 -0.37094021354E+02  0.46181417148E+02 -0.82856734499E+02  0.10185248235E+03  0.00000000000E+00 0.  1.
</event>
<event>
 7    1  0.5977291E-006  0.1083739E+03  0.7818608E-02  0.1268687E+00
          2   -1    0    0  502    0  0.00000000000E+00  0.00000000000E+00  0.67921252154E+03  0.67921252154E+03  0.00000000000E+00 0. -1.
          1   -1    0    0  501    0 -0.00000000000E+00 -0.00000000000E+00 -0.13496309144E+04  0.13496309144E+04  0.00000000000E+00 0. -1.
         25    2    1    2    0    0 -0.44720875605E+02 -0.86332222611E+02 -0.32938629733E+03  0.36547704178E+03  0.12499970331E+03 0.  0.
          2    1    1    2  501    0  0.11222195039E+03  0.15471122311E+01 -0.99458078490E+03  0.10008931498E+04  0.00000000000E+00 0. -1.
          1    1    1    2  502    0 -0.67501074786E+02  0.84785110380E+02  0.65354868938E+03  0.66247324431E+03  0.00000000000E+00 0. -1.
         22    1    3    3    0    0  0.83998458590E+01 -0.10236182577E+03 -0.20570863663E+03  0.22992290875E+03  0.00000000000E+00 0. -1.
         22    1    3    3    0    0 -0.53120721464E+02  0.16029603157E+02 -0.12367766070E+03  0.13555413303E+03  0.00000000000E+00 0. -1.
</event>
<event>
 7    1  0.5977291E-006  0.6434780E+02  0.7818608E-02  0.1442025E+00
          2   -1    0    0  502    0  0.00000000000E+00  0.00000000000E+00  0.77053979095E+03  0.77053979095E+03  0.00000000000E+00 0. -1.
          1   -1    0    0  501    0 -0.00000000000E+00 -0.00000000000E+00 -0.92673968426E+03  0.92673968426E+03  0.00000000000E+00 0. -1.
         25    2    1    2    0    0  0.85224478422E+02 -0.43250893931E+01  0.10646471637E+03  0.18504265364E+03  0.12499651881E+03 0.  0.
          2    1    1    2  501    0 -0.29485181171E+02 -0.26764564188E+02 -0.88537208672E+03  0.88626714356E+03  0.00000000000E+00 0. -1.
          1    1    1    2  502    0 -0.55739297251E+02  0.31089653581E+02  0.62270747705E+03  0.62596967801E+03  0.00000000000E+00 0. -1.
         22    1    3    3    0    0 -0.18255542078E+02 -0.29269399452E+02  0.34012499516E-02  0.34495834131E+02  0.00000000000E+00 0.  1.
         22    1    3    3    0    0  0.10348002050E+03  0.24944310059E+02  0.10646131512E+03  0.15054681951E+03  0.00000000000E+00 0.  1.
</event>
<event>
 7    1  0.5977291E-006  0.1100961E+03  0.7818608E-02  0.1262887E+00
          2   -1    0    0  502    0  0.00000000000E+00  0.00000000000E+00  0.70587725562E+03  0.70587725562E+03  0.00000000000E+00 0. -1.
          1   -1    0    0  501    0 -0.00000000000E+00 -0.00000000000E+00 -0.16197030365E+03  0.16197030365E+03  0.00000000000E+00 0. -1.
         25    2    1    2    0    0 -0.37644037575E+02  0.90410056329E+02 -0.73485896139E+02  0.17497496816E+03  0.12500004281E+03 0.  0.
          2    1    1    2  501    0  0.10742246439E+03 -0.17109904664E+01  0.57769168446E+02  0.12198274537E+03  0.00000000000E+00 0. -1.
          1    1    1    2  502    0 -0.69778426815E+02 -0.88699065863E+02  0.55962367966E+03  0.57088984574E+03  0.00000000000E+00 0. -1.
         22    1    3    3    0    0  0.44145241793E+02  0.44077491854E+02 -0.44423691580E+02  0.76583888872E+02  0.00000000000E+00 0.  1.
         22    1    3    3    0    0 -0.81789279368E+02  0.46332564475E+02 -0.29062204558E+02  0.98391079292E+02  0.00000000000E+00 0.  1.
</event>
<event>
 7    1  0.5977291E-006  0.9685659E+02  0.7818608E-02  0.1298581E+00
          2   -1    0    0  502    0  0.00000000000E+00  0.00000000000E+00  0.30164107638E+03  0.30164107638E+03  0.00000000000E+00 0. -1.
          1   -1    0    0  501    0 -0.00000000000E+00 -0.00000000000E+00 -0.17675678655E+04  0.17675678655E+04  0.00000000000E+00 0. -1.
         25    2    1    2    0    0 -0.47682292300E+01  0.63912061381E+02 -0.61437562943E+03  0.63023015154E+03  0.12500056912E+03 0.  0.
          2    1    1    2  501    0  0.91477539771E+02 -0.70803161916E+02 -0.11358223026E+04  0.11416976531E+04  0.00000000000E+00 0. -1.
          1    1    1    2  502    0 -0.86709310541E+02  0.68911005353E+01  0.28427114296E+03  0.29728113717E+03  0.00000000000E+00 0. -1.
         22    1    3    3    0    0  0.33680194108E+02 -0.18193285741E+02 -0.86027146410E+02  0.94159550980E+02  0.00000000000E+00 0. -1.
         22    1    3    3    0    0 -0.38448423338E+02  0.82105347122E+02 -0.52834848302E+03  0.53607060056E+03  0.00000000000E+00 0. -1.
</event>
<event>
 7    1  0.5977291E-006  0.4009630E+02  0.7818608E-02  0.1569883E+00
          2   -1    0    0  502    0  0.00000000000E+00  0.00000000000E+00  0.12217225290E+04  0.12217225290E+04  0.00000000000E+00 0. -1.
          1   -1    0    0  501    0 -0.00000000000E+00 -0.00000000000E+00 -0.77713993690E+02  0.77713993690E+02  0.00000000000E+00 0. -1.
         25    2    1    2    0    0  0.81317185234E+01  0.49827501464E+02  0.51497121287E+03  0.53232374095E+03  0.12499724135E+03 0.  0.
          2    1    1    2  501    0 -0.23331246603E+02 -0.12966629995E+02 -0.65864691442E+02  0.71067841815E+02  0.00000000000E+00 0. -1.
          1    1    1    2  502    0  0.15199528080E+02 -0.36860871469E+02  0.69490201392E+03  0.69604493996E+03  0.00000000000E+00 0. -1.
         22    1    3    3    0    0  0.16179246736E+02 -0.40597558936E+02  0.15052708059E+03  0.15674288439E+03  0.00000000000E+00 0. -1.
         22    1    3    3    0    0 -0.80475282124E+01  0.90425060400E+02  0.36444413228E+03  0.37558085656E+03  0.00000000000E+00 0. -1.
</event>
<event>
 7    1  0.5977291E-006  0.2313946E+02  0.7818608E-02  0.1695915E+00
          2   -1    0    0  502    0  0.00000000000E+00  0.00000000000E+00  0.29363274720E+03  0.29363274720E+03  0.00000000000E+00 0. -1.
          1   -1    0    0  501    0 -0.00000000000E+00 -0.00000000000E+00 -0.23869412318E+03  0.23869412318E+03  0.00000000000E+00 0. -1.
         25    2    1    2    0    0  0.19639858694E+02 -0.20639868075E+02  0.82600299883E+02  0.15251286241E+03  0.12500254180E+03 0.  0.
          2    1    1    2  501    0  0.25613776534E+01  0.23024074663E+02 -0.20236643891E+03  0.20368810537E+03  0.00000000000E+00 0. -1.
          1    1    1    2  502    0 -0.22201236347E+02 -0.23842065884E+01  0.17470476305E+03  0.17612590260E+03  0.00000000000E+00 0. -1.
         22    1    3    3    0    0 -0.13010300303E+02 -0.11770449976E+02 -0.30102005124E+02  0.34841672163E+02  0.00000000000E+00 0.  1.
         22    1    3    3    0    0  0.32650158997E+02 -0.88694180992E+01  0.11270230501E+03  0.11767119025E+03  0.00000000000E+00 0.  1.
</event>
<event>
 7    1  0.5977291E-006  0.1421756E+03  0.7818608E-02  0.1225902E+00
          2   -1    0    0  502    0  0.00000000000E+00  0.00000000000E+00  0.45695072890E+03  0.45695072890E+03  0.00000000000E+00 0. -1.
          1   -1    0    0  501    0 -0.00000000000E+00 -0.00000000000E+00 -0.36838646325E+04  0.36838646325E+04  0.00000000000E+00 0. -1.
         25    2    1    2    0    0  0.56425617288E+02 -0.98354074441E+02 -0.36012956540E+03  0.39771293192E+03  0.12499959238E+03 0.  0.
          2    1    1    2  501    0  0.58131275370E+02  0.13668446506E+03 -0.32949123537E+04  0.32982585263E+04  0.00000000000E+00 0. -1.
          1    1    1    2  502    0 -0.11455689266E+03 -0.38330390616E+02  0.42812801549E+03  0.44484390312E+03  0.00000000000E+00 0. -1.
         22    1    3    3    0    0  0.12198234434E+02 -0.74402891537E+02 -0.68784503363E+02  0.10205829263E+03  0.00000000000E+00 0. -1.
         22    1    3    3    0    0  0.44227382855E+02 -0.23951182904E+02 -0.29134506204E+03  0.29565463929E+03  0.00000000000E+00 0. -1.
</event>
<event>
 7    1  0.5977291E-006  0.9157892E+02  0.7818608E-02  0.1455199E+00
          2   -1    0    0  502    0  0.00000000000E+00  0.00000000000E+00  0.18157415156E+04  0.18157415156E+04  0.00000000000E+00 0. -1.
          1   -1    0    0  501    0 -0.00000000000E+00 -0.00000000000E+00 -0.60187322629E+02  0.60187322629E+02  0.00000000000E+00 0. -1.
         25    2    1    2    0    0 -0.36492682471E+02 -0.71336477516E+02  0.44608484008E+03  0.47014664482E+03  0.12500229675E+03 0.  0.
          2    1    1    2  501    0 -0.25352574276E+02  0.13276279246E+01 -0.43083695262E+02  0.50007203639E+02  0.00000000000E+00 0. -1.
          1    1    1    2  502    0  0.61845256747E+02  0.70008849592E+02  0.13525530481E+04  0.13557749897E+04  0.00000000000E+00 0. -1.
         22    1    3    3    0    0 -0.80269671449E+02 -0.58673764317E+02  0.25489368724E+03  0.27359938334E+03  0.00000000000E+00 0.  1.
         22    1    3    3    0    0  0.43776988978E+02 -0.12662713199E+02  0.19119115284E+03  0.19654726148E+03  0.00000000000E+00 0.  1.
</event>
<event>
 7    1  0.5977291E-006  0.4899025E+02  0.7818608E-02  0.1495549E+00
          2   -1    0    0  502    0  0.00000000000E+00  0.00000000000E+00  0.17800658152E+04  0.17800658152E+04  0.00000000000E+00 0. -1.
          1   -1    0    0  501    0 -0.00000000000E+00 -0.00000000000E+00 -0.23392648017E+03  0.23392648017E+03  0.00000000000E+00 0. -1.
         25    2    1    2    0    0  0.99570033525E+01  0.90749176199E+01  0.94731230813E+03  0.95561875802E+03  0.12500042201E+03 0.  0.
          2    1    1    2  501    0 -0.36986473160E+02 -0.32274773247E+02 -0.22676304622E+03  0.23201538595E+03  0.00000000000E+00 0. -1.
          1    1    1    2  502    0  0.27029469808E+02  0.23199855627E+02  0.82559007317E+03  0.82635815144E+03  0.00000000000E+00 0. -1.
         22    1    3    3    0    0 -0.22253785513E+02  0.37467406439E+02  0.82199884811E+03  0.82315317154E+03  0.00000000000E+00 0. -1.
         22    1    3    3    0    0  0.32210788866E+02 -0.28392488819E+02  0.12531346001E+03  0.13246558648E+03  0.00000000000E+00 0. -1.
</event>
<event>
 7    1  0.5977291E-006  0.1051447E+03  0.7818608E-02  0.1328699E+00
          2   -1    0    0  502    0  0.00000000000E+00  0.00000000000E+00  0.13944679137E+04  0.13944679137E+04  0.00000000000E+00 0. -1.
          1   -1    0    0  501    0 -0.00000000000E+00 -0.00000000000E+00 -0.61022412601E+03  0.61022412601E+03  0.00000000000E+00 0. -1.
         25    2    1    2    0    0 -0.31273824321E+02  0.48398355403E+02 -0.25200382595E+02  0.13992962430E+03  0.12499915032E+03 0.  0.
          2    1    1    2  501    0  0.20349801217E+02  0.57566908673E+02 -0.52376109665E+03  0.52730802170E+03  0.00000000000E+00 0. -1.
          1    1    1    2  502    0  0.10924023104E+02 -0.10596526408E+03  0.13332052669E+04  0.13374543937E+04  0.00000000000E+00 0. -1.
         22    1    3    3    0    0  0.36132723637E+02  0.16763839328E+02  0.27763952110E+02  0.48553445431E+02  0.00000000000E+00 0. -1.
         22    1    3    3    0    0 -0.67406547957E+02  0.31634516075E+02 -0.52964334705E+02  0.91376178873E+02  0.00000000000E+00 0. -1.
</event>
<event>
 7    1  0.5977291E-006  0.1043466E+03  0.7818608E-02  0.1451663E+00
          2   -1    0    0  502    0  0.00000000000E+00  0.00000000000E+00  0.90940115110E+03  0.90940115110E+03  0.00000000000E+00 0. -1.
          1   -1    0    0  501    0 -0.00000000000E+00 -0.00000000000E+00 -0.10263099273E+04  0.10263099273E+04  0.00000000000E+00 0. -1.
         25    2    1    2    0    0  0.62350843029E+02 -0.94204078650E+02  0.48547523107E+02  0.17533814055E+03  0.12499826187E+03 0.  0.
          2    1    1    2  501    0  0.10712051437E+02  0.20201788181E+02 -0.95938749961E+03  0.95965995785E+03  0.00000000000E+00 0. -1.
          1    1    1    2  502    0 -0.73062894466E+02  0.74002290469E+02  0.79393120030E+03  0.80071298000E+03  0.00000000000E+00 0. -1.
         22    1    3    3    0    0  0.48713787568E+02  0.66878434355E+01  0.54439818723E+02  0.73358395645E+02  0.00000000000E+00 0.  1.
         22    1    3    3    0    0  0.13637055461E+02 -0.10089192209E+03 -0.58922956155E+01  0.10197974491E+03  0.00000000000E+00 0.  1.
</event>
<event>
 7    1  0.5977291E-006  0.5778551E+02  0.7818608E-02  0.1430595E+00
          2   -1    0    0  502    0  0.00000000000E+00  0.00000000000E+00  0.24094954014E+04  0.24094954014E+04  0.00000000000E+00 0. -1.
          1   -1    0    0  501    0 -0.00000000000E+00 -0.00000000000E+00 -0.24133360416E+04  0.24133360416E+04  0.00000000000E+00 0. -1.
         25    2    1    2    0    0  0.15741747777E+02  0.61480909192E+01  0.67199043754E+03  0.68372530123E+03  0.12499415087E+03 0.  0.
          2    1    1    2  501    0 -0.51397398389E+02  0.26461888363E+02 -0.24067843858E+04  0.24074785573E+04  0.00000000000E+00 0. -1.
          1    1    1    2  502    0  0.35655650612E+02 -0.32609979282E+02  0.17309533081E+04  0.17316275844E+04  0.00000000000E+00 0. -1.
         22    1    3    3    0    0 -0.47782658119E+02  0.23135700154E+02  0.41812761218E+03  0.42148445180E+03  0.00000000000E+00 0. -1.
         22    1    3    3    0    0  0.63524405897E+02 -0.16987609235E+02  0.25386282536E+03  0.26224084943E+03  0.00000000000E+00 0. -1.
</event>
<event>
 7    1  0.5977291E-006  0.4435676E+02  0.7818608E-02  0.1512448E+00
          2   -1    0    0  502    0  0.00000000000E+00  0.00000000000E+00  0.17807715632E+03  0.17807715632E+03  0.00000000000E+00 0. -1.
          1   -1    0    0  501    0 -0.00000000000E+00 -0.00000000000E+00 -0.12090333428E+04  0.12090333428E+04  0.00000000000E+00 0. -1.
         25    2    1    2    0    0  0.12088837282E+02  0.10711646506E+02 -0.60105693745E+03  0.61413011892E+03  0.12500192618E+03 0.  0.
          2    1    1    2  501    0 -0.95344351547E+01  0.33728889906E+02 -0.59803023062E+03  0.59905650836E+03  0.00000000000E+00 0. -1.
          1    1    1    2  502    0 -0.25544021274E+01 -0.44440536411E+02  0.16813098156E+03  0.17392387187E+03  0.00000000000E+00 0. -1.
         22    1    3    3    0    0  0.23514483521E+02  0.59207548198E+02 -0.19777603979E+03  0.20778312399E+03  0.00000000000E+00 0.  1.
         22    1    3    3    0    0 -0.11425646239E+02 -0.48495901692E+02 -0.40328089766E+03  0.40634699493E+03  0.00000000000E+00 0.  1.
</event>
<event>
 7    1  0.5977291E-006  0.1210218E+03  0.7818608E-02  0.1245459E+00
          2   -1    0    0  502    0  0.00000000000E+00  0.00000000000E+00  0.11138595756E+04  0.11138595756E+04  0.00000000000E+00 0. -1.
          1   -1    0    0  501    0 -0.00000000000E+00 -0.00000000000E+00 -0.13966563853E+04  0.13966563853E+04  0.00000000000E+00 0. -1.
         25    2    1    2    0    0 -0.68626206118E+02 -0.63723637797E+02  0.38731135766E+02  0.16092031859E+03  0.12499995951E+03 0.  0.
          2    1    1    2  501    0 -0.50351196128E+02  0.10470919900E+03 -0.13291136272E+04  0.13341822564E+04  0.00000000000E+00 0. -1.
          1    1    1    2  502    0  0.11897740225E+03 -0.40985561198E+02  0.10075856817E+04  0.10154133859E+04  0.00000000000E+00 0. -1.
         22    1    3    3    0    0  0.27522050005E+02  0.77134738052E+01 -0.11791457549E+02  0.30919239734E+02  0.00000000000E+00 0.  1.
         22    1    3    3    0    0 -0.96148256123E+02 -0.71437111602E+02  0.50522593315E+02  0.13000107886E+03  0.00000000000E+00 0.  1.
</event>
<event>
 7    1  0.5977291E-006  0.1303071E+03  0.7818608E-02  0.1321440E+00
          2   -1    0    0  502    0  0.00000000000E+00  0.00000000000E+00  0.59393517810E+03  0.59393517810E+03  0.00000000000E+00 0. -1.
          1   -1    0    0  501    0 -0.00000000000E+00 -0.00000000000E+00 -0.48120513304E+03  0.48120513304E+03  0.00000000000E+00 0. -1.
         25    2    1    2    0    0  0.54904313317E+02 -0.11972333485E+03 -0.10315540912E+03  0.20883777466E+03  0.12499606860E+03 0.  0.
          2    1    1    2  501    0  0.41843398333E+02  0.31776467472E+02 -0.31510318705E+03  0.31945364665E+03  0.00000000000E+00 0. -1.
          1    1    1    2  502    0 -0.96747711650E+02  0.87946867378E+02  0.53098864124E+03  0.54684888983E+03  0.00000000000E+00 0. -1.
         22    1    3    3    0    0  0.48995849964E+02  0.25736464729E+01 -0.63272196363E+02  0.80066146419E+02  0.00000000000E+00 0. -1.
         22    1    3    3    0    0  0.59084633533E+01 -0.12229698132E+03 -0.39883212760E+02  0.12877162824E+03  0.00000000000E+00 0. -1.
</event>
<event>
 7    1  0.5977291E-006  0.5542875E+02  0.7818608E-02  0.1527151E+00
          2   -1    0    0  502    0  0.00000000000E+00  0.00000000000E+00  0.28145350283E+04  0.28145350283E+04  0.00000000000E+00 0. -1.
          1   -1    0    0  501    0 -0.00000000000E+00 -0.00000000000E+00 -0.17239493221E+04  0.17239493221E+04  0.00000000000E+00 0. -1.
         25    2    1    2    0    0  0.66011017843E+02 -0.39062197257E+02  0.58402534839E+02  0.15786579715E+03  0.12500977603E+03 0.  0.
          2    1    1    2  501    0 -0.25376108162E+02  0.15278739274E+01 -0.16738384944E+04  0.16740315369E+04  0.00000000000E+00 0. -1.
          1    1    1    2  502    0 -0.40634909681E+02  0.37534323330E+02  0.27060216658E+04  0.27065870164E+04  0.00000000000E+00 0. -1.
         22    1    3    3    0    0  0.18669407947E+02 -0.71617503015E+02  0.66924455719E+02  0.99782244435E+02  0.00000000000E+00 0.  1.
         22    1    3    3    0    0  0.47341609895E+02  0.32555305758E+02 -0.85219208803E+01  0.58083552715E+02  0.00000000000E+00 0.  1.
</event>
<event>
 7    1  0.5977291E-006  0.7015648E+02  0.7818608E-02  0.1515338E+00
          2   -1    0    0  502    0  0.00000000000E+00  0.00000000000E+00  0.89049359107E+03  0.89049359107E+03  0.00000000000E+00 0. -1.
          1   -1    0    0  501    0 -0.00000000000E+00 -0.00000000000E+00 -0.82229902621E+03  0.82229902621E+03  0.00000000000E+00 0. -1.
         25    2    1    2    0    0 -0.41713948590E+02  0.49651312725E+02  0.25039091214E+03  0.28727383439E+03  0.12500136270E+03 0.  0.
          2    1    1    2  501    0 -0.18331389845E+02 -0.11674541738E+02 -0.80167990080E+03  0.80197443733E+03  0.00000000000E+00 0. -1.
          1    1    1    2  502    0  0.60045338434E+02 -0.37976770987E+02  0.61948355352E+03  0.62354434557E+03  0.00000000000E+00 0. -1.
         22    1    3    3    0    0 -0.62268414526E+02 -0.21804202734E+02  0.10579021127E+03  0.12467697263E+03  0.00000000000E+00 0.  1.
         22    1    3    3    0    0  0.20554465937E+02  0.71455515459E+02  0.14460070088E+03  0.16259686176E+03  0.00000000000E+00 0.  1.
</event>
<event>
 7    1  0.5977291E-006  0.1016269E+03  0.7818608E-02  0.1305402E+00
          2   -1    0    0  502    0  0.00000000000E+00  0.00000000000E+00  0.34767435546E+03  0.34767435546E+03  0.00000000000E+00 0. -1.
          1   -1    0    0  501    0 -0.00000000000E+00 -0.00000000000E+00 -0.57226569023E+03  0.57226569023E+03  0.00000000000E+00 0. -1.
         25    2    1    2    0    0 -0.30743547210E+02 -0.25650787800E+02  0.22953953996E+02  0.13324837748E+03  0.12500046995E+03 0.  0.
          2    1    1    2  501    0 -0.36921967427E+02 -0.68552768536E+02 -0.50149742065E+03  0.50750603609E+03  0.00000000000E+00 0. -1.
          1    1    1    2  502    0  0.67665514638E+02  0.94203556336E+02  0.25395213188E+03  0.27918563212E+03  0.00000000000E+00 0. -1.
         22    1    3    3    0    0 -0.38823344135E+02 -0.43961276739E+02  0.64472229448E+02  0.87157984559E+02  0.00000000000E+00 0.  1.
         22    1    3    3    0    0  0.80797969248E+01  0.18310488939E+02 -0.41518275452E+02  0.46090392925E+02  0.00000000000E+00 0.  1.
</event>
<event>
 7    1  0.5977291E-006  0.9044745E+02  0.7818608E-02  0.1328884E+00
          2   -1    0    0  502    0  0.00000000000E+00  0.00000000000E+00  0.10093951461E+04  0.10093951461E+04  0.00000000000E+00 0. -1.
          1   -1    0    0  501    0 -0.00000000000E+00 -0.00000000000E+00 -0.23083196511E+03  0.23083196511E+03  0.00000000000E+00 0. -1.
         25    2    1    2    0    0  0.31102920823E+02  0.13783839752E+02 -0.42632178440E+02  0.13637972917E+03  0.12499816786E+03 0.  0.
          2    1    1    2  501    0 -0.51654359677E+02  0.74297820247E+02 -0.12445878768E+03  0.15387764230E+03  0.00000000000E+00 0. -1.
          1    1    1    2  502    0  0.20551438854E+02 -0.88081659998E+02  0.94565414707E+03  0.94996973970E+03  0.00000000000E+00 0. -1.
         22    1    3    3    0    0  0.10089340620E+02 -0.24907801022E+02 -0.76337788589E+02  0.80929916054E+02  0.00000000000E+00 0. -1.
         22    1    3    3    0    0  0.21013580203E+02  0.38691640774E+02  0.33705610149E+02  0.55449813113E+02  0.00000000000E+00 0. -1.
</event>
<event>
 7    1  0.5977291E-006  0.7291027E+02  0.7818608E-02  0.1357762E+00
          2   -1    0    0  502    0  0.00000000000E+00  0.00000000000E+00  0.75926929996E+03  0.75926929996E+03  0.00000000000E+00 0. -1.
          1   -1    0    0  501    0 -0.00000000000E+00 -0.00000000000E+00 -0.52884844253E+03  0.52884844253E+03  0.00000000000E+00 0. -1.
         25    2    1    2    0    0 -0.10302253404E+03  0.45494273134E+02  0.42313386133E+02  0.17349228116E+03  0.12500311024E+03 0.  0.
          2    1    1    2  501    0  0.36618469666E+02 -0.62462331031E+02 -0.45860797269E+03  0.46428841007E+03  0.00000000000E+00 0. -1.
          1    1    1    2  502    0  0.66404064376E+02  0.16968057897E+02  0.64671544398E+03  0.65033705125E+03  0.00000000000E+00 0. -1.
         22    1    3    3    0    0  0.16144367080E+01 -0.35131593953E+02  0.16714196834E+02  0.38938408742E+02  0.00000000000E+00 0. -1.
         22    1    3    3    0    0 -0.10463697075E+03  0.80625867086E+02  0.25599189299E+02  0.13455387242E+03  0.00000000000E+00 0. -1.
</event>
<event>
 7    1  0.5977291E-006  0.6667181E+02  0.7818608E-02  0.1414255E+00
          2   -1    0    0  502    0  0.00000000000E+00  0.00000000000E+00  0.43831540262E+03  0.43831540262E+03  0.00000000000E+00 0. -1.
          1   -1    0    0  501    0 -0.00000000000E+00 -0.00000000000E+00 -0.26822875865E+03  0.26822875865E+03  0.00000000000E+00 0. -1.
         25    2    1    2    0    0  0.14922820706E+02  0.90548561443E+02  0.27562216379E+02  0.15748030953E+03  0.12497455565E+03 0.  0.
          2    1    1    2  501    0 -0.37838977479E+02 -0.28656677627E+02 -0.19727986304E+03  0.20290967879E+03  0.00000000000E+00 0. -1.
          1    1    1    2  502    0  0.22916156773E+02 -0.61891883817E+02  0.33980429062E+03  0.34615417295E+03  0.00000000000E+00 0. -1.
         22    1    3    3    0    0 -0.46457877414E+02  0.35956250268E+01  0.20212701751E+02  0.50791891137E+02  0.00000000000E+00 0. -1.
         22    1    3    3    0    0  0.61380698120E+02  0.86952936417E+02  0.73495146281E+01  0.10668841839E+03  0.00000000000E+00 0. -1.
</event>
<event>
 7    1  0.5977291E-006  0.9845329E+02  0.7818608E-02  0.1360137E+00
          2   -1    0    0  502    0  0.00000000000E+00  0.00000000000E+00  0.10368785761E+04  0.10368785761E+04  0.00000000000E+00 0. -1.
          1   -1    0    0  501    0 -0.00000000000E+00 -0.00000000000E+00 -0.28930398300E+03  0.28930398300E+03  0.00000000000E+00 0. -1.
         25    2    1    2    0    0 -0.41268857769E+02 -0.13637690421E+03 -0.10534826452E+02  0.18983714773E+03  0.12500152585E+03 0.  0.
          2    1    1    2  501    0  0.24318241083E+02  0.89602128389E+02 -0.17702186067E+03  0.19989161417E+03  0.00000000000E+00 0. -1.
          1    1    1    2  502    0  0.16950616686E+02  0.46774775826E+02  0.93513128025E+03  0.93645379724E+03  0.00000000000E+00 0. -1.
         22    1    3    3    0    0  0.10573949827E+01 -0.21151022363E+02 -0.55268098781E+02  0.59186540480E+02  0.00000000000E+00 0.  1.
         22    1    3    3    0    0 -0.42326252752E+02 -0.11522588185E+03  0.44733272329E+02  0.13065060725E+03  0.00000000000E+00 0.  1.
</event>
<event>
 7    1  0.5977291E-006  0.1212400E+03  0.7818608E-02  0.1360638E+00
          2   -1    0    0  502    0  0.00000000000E+00  0.00000000000E+00  0.33345865779E+03  0.33345865779E+03  0.00000000000E+00 0. -1.
          1   -1    0    0  501    0 -0.00000000000E+00 -0.00000000000E+00 -0.40423355316E+03  0.40423355316E+03  0.00000000000E+00 0. -1.
         25    2    1    2    0    0  0.10091031151E+03  0.50838933951E+02 -0.25508290059E+02  0.17041765417E+03  0.12499606320E+03 0.  0.
          2    1    1    2  501    0 -0.12242622380E+03 -0.16844731185E+02 -0.29210940418E+03  0.31717476138E+03  0.00000000000E+00 0. -1.
          1    1    1    2  502    0  0.21515912286E+02 -0.33994202766E+02  0.24684279887E+03  0.25009979540E+03  0.00000000000E+00 0. -1.
         22    1    3    3    0    0  0.12487619582E+03  0.21018201571E+02 -0.43683734810E+01  0.12670797831E+03  0.00000000000E+00 0. -1.
         22    1    3    3    0    0 -0.23965884314E+02  0.29820732380E+02 -0.21139916578E+02  0.43709675858E+02  0.00000000000E+00 0. -1.
</event>
<event>
 7    1  0.5977291E-006  0.7347287E+02  0.7818608E-02  0.1418123E+00
          2   -1    0    0  502    0  0.00000000000E+00  0.00000000000E+00  0.85949363142E+02  0.85949363142E+02  0.00000000000E+00 0. -1.
          1   -1    0    0  501    0 -0.00000000000E+00 -0.00000000000E+00 -0.62182792321E+03  0.62182792321E+03  0.00000000000E+00 0. -1.
         25    2    1    2    0    0  0.36548599215E+02 -0.77457985351E+02 -0.20048700143E+03  0.25131180590E+03  0.12500818552E+03 0.  0.
          2    1    1    2  501    0 -0.59478301161E+02  0.42504992764E+02 -0.38483593060E+03  0.39171805703E+03  0.00000000000E+00 0. -1.
          1    1    1    2  502    0  0.22929701946E+02  0.34952992586E+02  0.49444371956E+02  0.64747423425E+02  0.00000000000E+00 0. -1.
         22    1    3    3    0    0 -0.36206692071E+02 -0.22155487656E+02 -0.15876007519E+02  0.45319287271E+02  0.00000000000E+00 0.  1.
         22    1    3    3    0    0  0.72755291286E+02 -0.55302497695E+02 -0.18461099391E+03  0.20599251863E+03  0.00000000000E+00 0.  1.
</event>
<event>
 7    1  0.5977291E-006  0.1539259E+03  0.7818608E-02  0.1286860E+00
          2   -1    0    0  502    0  0.00000000000E+00  0.00000000000E+00  0.11542170454E+04  0.11542170454E+04  0.00000000000E+00 0. -1.
          1   -1    0    0  501    0 -0.00000000000E+00 -0.00000000000E+00 -0.83202637675E+03  0.83202637675E+03  0.00000000000E+00 0. -1.
         25    2    1    2    0    0 -0.79189563165E+01  0.17794216260E+03 -0.77860937380E+02  0.23111471516E+03  0.12500225155E+03 0.  0.
          2    1    1    2  501    0 -0.43949730563E+02 -0.14573533045E+03 -0.66810633794E+03  0.68522729379E+03  0.00000000000E+00 0. -1.
          1    1    1    2  502    0  0.51868686880E+02 -0.32206832151E+02  0.10681579439E+04  0.10699014132E+04  0.00000000000E+00 0. -1.
         22    1    3    3    0    0  0.30625679332E+01 -0.18134907751E+01  0.23966565738E+02  0.24229410732E+02  0.00000000000E+00 0. -1.
         22    1    3    3    0    0 -0.10981524250E+02  0.17975565338E+03 -0.10182750312E+03  0.20688530443E+03  0.00000000000E+00 0. -1.
</event>
<event>
 7    1  0.5977291E-006  0.5560846E+02  0.7818608E-02  0.1521911E+00
          2   -1    0    0  502    0  0.00000000000E+00  0.00000000000E+00  0.19773182611E+04  0.19773182611E+04  0.00000000000E+00 0. -1.
          1   -1    0    0  501    0 -0.00000000000E+00 -0.00000000000E+00 -0.80799880630E+03  0.80799880630E+03  0.00000000000E+00 0. -1.
         25    2    1    2    0    0 -0.47388257216E+02  0.41746500532E+02  0.38168077497E+02  0.14516077431E+03  0.12500572399E+03 0.  0.
          2    1    1    2  501    0  0.24651457983E+02  0.89852187614E+01 -0.75386441657E+03  0.75432087808E+03  0.00000000000E+00 0. -1.
          1    1    1    2  502    0  0.22736799233E+02 -0.50731719294E+02  0.18850157938E+04  0.18858354150E+04  0.00000000000E+00 0. -1.
         22    1    3    3    0    0 -0.36609945804E+02  0.86375513896E+02  0.30255237167E+02  0.98571785561E+02  0.00000000000E+00 0.  1.
         22    1    3    3    0    0 -0.10778311412E+02 -0.44629013364E+02  0.79128403301E+01  0.46588988751E+02  0.00000000000E+00 0.  1.
</event>
<event>
 7    1  0.5977291E-006  0.1957926E+03  0.7818608E-02  0.1298900E+00
          2   -1    0    0  502    0  0.00000000000E+00  0.00000000000E+00  0.22715402419E+03  0.22715402419E+03  0.00000000000E+00 0. -1.
          1   -1    0    0  501    0 -0.00000000000E+00 -0.00000000000E+00 -0.20483657988E+04  0.20483657988E+04  0.00000000000E+00 0. -1.
         25    2    1    2    0    0 -0.46677925805E+02 -0.21536866580E+03 -0.13883106947E+04  0.14112388505E+04  0.12500406905E+03 0.  0.
          2    1    1    2  501    0 -0.25850315338E+02  0.34240792896E+02 -0.60355010906E+03  0.60507305744E+03  0.00000000000E+00 0. -1.
          1    1    1    2  502    0  0.72528241143E+02  0.18112787290E+03  0.17064902909E+03  0.25920791507E+03  0.00000000000E+00 0. -1.
         22    1    3    3    0    0  0.18699255159E+02 -0.12826806155E+03 -0.51056972232E+03  0.52676731021E+03  0.00000000000E+00 0.  1.
         22    1    3    3    0    0 -0.65377180964E+02 -0.87100604245E+02 -0.87774097233E+03  0.88447154028E+03  0.00000000000E+00 0.  1.
</event>
<event>
 7    1  0.5977291E-006  0.9643694E+02  0.7818608E-02  0.1320484E+00
          2   -1    0    0  502    0  0.00000000000E+00  0.00000000000E+00  0.22615313934E+04  0.22615313934E+04  0.00000000000E+00 0. -1.
          1   -1    0    0  501    0 -0.00000000000E+00 -0.00000000000E+00 -0.15758386312E+03  0.15758386312E+03  0.00000000000E+00 0. -1.
         25    2    1    2    0    0 -0.24541691956E+02  0.11955967586E+02  0.84924164063E+03  0.85882652251E+03  0.12500556700E+03 0.  0.
          2    1    1    2  501    0  0.95730884002E+02 -0.19642554783E+02 -0.13614946491E+03  0.16759149413E+03  0.00000000000E+00 0. -1.
          1    1    1    2  502    0 -0.71189192047E+02  0.76865871966E+01  0.13908553545E+04  0.13926972399E+04  0.00000000000E+00 0. -1.
         22    1    3    3    0    0  0.57976710591E+01 -0.15942190553E+02  0.12503252956E+02  0.21073627211E+02  0.00000000000E+00 0. -1.
         22    1    3    3    0    0 -0.30339363015E+02  0.27898158139E+02  0.83673838768E+03  0.83775289530E+03  0.00000000000E+00 0. -1.
</event>
<event>
 7    1  0.5977291E-006  0.9235255E+02  0.7818608E-02  0.1349764E+00
          2   -1    0    0  502    0  0.00000000000E+00  0.00000000000E+00  0.16416565206E+04  0.16416565206E+04  0.00000000000E+00 0. -1.
          1   -1    0    0  501    0 -0.00000000000E+00 -0.00000000000E+00 -0.56807171928E+02  0.56807171928E+02  0.00000000000E+00 0. -1.
         25    2    1    2    0    0 -0.75268114728E+01 -0.43278719798E+02  0.31296528001E+03  0.33985646999E+03  0.12500181287E+03 0.  0.
          2    1    1    2  501    0  0.15425851962E+02 -0.55815013072E+02 -0.21230991710E+02  0.61676799544E+02  0.00000000000E+00 0. -1.
          1    1    1    2  502    0 -0.78990404891E+01  0.99093732869E+02  0.12931150604E+04  0.12969304230E+04  0.00000000000E+00 0. -1.
         22    1    3    3    0    0 -0.21642389369E+02 -0.78253446543E+02  0.13175079780E+03  0.15475874009E+03  0.00000000000E+00 0. -1.
         22    1    3    3    0    0  0.14115577896E+02  0.34974726745E+02  0.18121448221E+03  0.18509772989E+03  0.00000000000E+00 0. -1.
</event>
<event>
 7    1  0.5977291E-006  0.5090384E+02  0.7818608E-02  0.1461960E+00
          2   -1    0    0  502    0  0.00000000000E+00  0.00000000000E+00  0.83303417172E+03  0.83303417172E+03  0.00000000000E+00 0. -1.
          1   -1    0    0  501    0 -0.00000000000E+00 -0.00000000000E+00 -0.19875661391E+02  0.19875661391E+02  0.00000000000E+00 0. -1.
         25    2    1    2    0    0  0.15373077743E+02  0.32243773938E+02  0.56620499760E+03  0.58093782901E+03  0.12499867755E+03 0.  0.
          2    1    1    2  501    0 -0.26891869379E+02  0.34166603495E+02  0.67645247226E+02  0.80413984513E+02  0.00000000000E+00 0. -1.
          1    1    1    2  502    0  0.11518791636E+02 -0.66410377433E+02  0.17930826551E+03  0.19155801959E+03  0.00000000000E+00 0. -1.
         22    1    3    3    0    0  0.66947124024E+02  0.18806836742E+02  0.22214852499E+03  0.23277796648E+03  0.00000000000E+00 0. -1.
         22    1    3    3    0    0 -0.51574046281E+02  0.13436937196E+02  0.34405647261E+03  0.34815986253E+03  0.00000000000E+00 0. -1.
</event>
<event>
 7    1  0.5977291E-006  0.1258714E+03  0.7818608E-02  0.1273403E+00
          2   -1    0    0  502    0  0.00000000000E+00  0.00000000000E+00  0.88015968915E+02  0.88015968915E+02  0.00000000000E+00 0. -1.
          1   -1    0    0  501    0 -0.00000000000E+00 -0.00000000000E+00 -0.30320934477E+04  0.30320934477E+04  0.00000000000E+00 0. -1.
         25    2    1    2    0    0  0.22959888340E+02 -0.87847925156E+02 -0.71032466304E+03  0.72693174161E+03  0.12499686243E+03 0.  0.
          2    1    1    2  501    0  0.51398158325E+02  0.12873854096E+03 -0.22881725871E+04  0.22923675907E+04  0.00000000000E+00 0. -1.
          1    1    1    2  502    0 -0.74358046665E+02 -0.40890615805E+02  0.54419771401E+02  0.10081008424E+03  0.00000000000E+00 0. -1.
         22    1    3    3    0    0  0.32013107943E+02 -0.13774399957E+01 -0.47466639612E+03  0.47574670154E+03  0.00000000000E+00 0.  1.
         22    1    3    3    0    0 -0.90532196027E+01 -0.86470485160E+02 -0.23565826691E+03  0.25118504007E+03  0.00000000000E+00 0.  1.
</event>
<event>
 7    1  0.5977291E-006  0.4300979E+02  0.7818608E-02  0.1563948E+00
          2   -1    0    0  502    0  0.00000000000E+00  0.00000000000E+00  0.12220501985E+04  0.12220501985E+04  0.00000000000E+00 0. -1.
          1   -1    0    0  501    0 -0.00000000000E+00 -0.00000000000E+00 -0.14313076662E+03  0.14313076662E+03  0.00000000000E+00 0. -1.
         25    2    1    2    0    0 -0.36259015170E+02 -0.40493983718E+02 -0.40611886541E+01  0.13637509488E+03  0.12500877710E+03 0.  0.
          2    1    1    2  501    0 -0.40263854584E+01  0.25513570138E+02 -0.70212141543E+02  0.74812424510E+02  0.00000000000E+00 0. -1.
          1    1    1    2  502    0  0.40285400628E+02  0.14980413579E+02  0.11531927621E+04  0.11539934457E+04  0.00000000000E+00 0. -1.
         22    1    3    3    0    0  0.80371457387E+01  0.36430613401E+02 -0.25333332347E+02  0.45095044431E+02  0.00000000000E+00 0. -1.
         22    1    3    3    0    0 -0.44296160908E+02 -0.76924597118E+02  0.21272143693E+02  0.91280050451E+02  0.00000000000E+00 0. -1.
</event>
<event>
 7    1  0.5977291E-006  0.2464621E+03  0.7818608E-02  0.1253024E+00
          2   -1    0    0  502    0  0.00000000000E+00  0.00000000000E+00  0.48640523388E+03  0.48640523388E+03  0.00000000000E+00 0. -1.
          1   -1    0    0  501    0 -0.00000000000E+00 -0.00000000000E+00 -0.24368501130E+04  0.24368501130E+04  0.00000000000E+00 0. -1.
         25    2    1    2    0    0  0.34809503274E+02  0.21966419613E+03 -0.18130388165E+03  0.31300863887E+03  0.12505698673E+03 0.  0.
          2    1    1    2  501    0 -0.85636245455E+02 -0.23430883617E+03 -0.21808912181E+04  0.21951129134E+04  0.00000000000E+00 0. -1.
          1    1    1    2  502    0  0.50826742181E+02  0.14644640042E+02  0.41175022066E+03  0.41513379460E+03  0.00000000000E+00 0. -1.
         22    1    3    3    0    0 -0.35291462186E+02  0.79027948679E+02 -0.11127464379E+03  0.14097145217E+03  0.00000000000E+00 0.  1.
         22    1    3    3    0    0  0.70100965460E+02  0.14063624745E+03 -0.70029237860E+02  0.17203718671E+03  0.00000000000E+00 0.  1.
</event>
<event>
 7    1  0.5977291E-006  0.1684484E+03  0.7818608E-02  0.1271200E+00
          2   -1    0    0  502    0  0.00000000000E+00  0.00000000000E+00  0.72411805989E+03  0.72411805989E+03  0.00000000000E+00 0. -1.
          1   -1    0    0  501    0 -0.00000000000E+00 -0.00000000000E+00 -0.59034660090E+03  0.59034660090E+03  0.00000000000E+00 0. -1.
         25    2    1    2    0    0 -0.11175499369E+03 -0.12618256720E+03  0.35378896974E+03  0.41134364027E+03  0.12500294557E+03 0.  0.
          2    1    1    2  501    0  0.15132318621E+03  0.74902577410E+02 -0.54561508449E+03  0.57114352243E+03  0.00000000000E+00 0. -1.
          1    1    1    2  502    0 -0.39568192515E+02  0.51279989790E+02  0.32559757374E+03  0.33197749809E+03  0.00000000000E+00 0. -1.
         22    1    3    3    0    0 -0.12514980785E+02 -0.10447958832E+03  0.21478371590E+03  0.23917494378E+03  0.00000000000E+00 0. -1.
         22    1    3    3    0    0 -0.99240012906E+02 -0.21702978879E+02  0.13900525384E+03  0.17216869648E+03  0.00000000000E+00 0. -1.
</event>
<event>
 7    1  0.5977291E-006  0.7335055E+02  0.7818608E-02  0.1390362E+00
          2   -1    0    0  502    0  0.00000000000E+00  0.00000000000E+00  0.13473051298E+04  0.13473051298E+04  0.00000000000E+00 0. -1.
          1   -1    0    0  501    0 -0.00000000000E+00 -0.00000000000E+00 -0.32550993192E+03  0.32550993192E+03  0.00000000000E+00 0. -1.
         25    2    1    2    0    0 -0.10965385746E+03  0.49486689670E+02  0.39025345104E+03  0.42707684489E+03  0.12499589787E+03 0.  0.
          2    1    1    2  501    0  0.57807059816E+02 -0.44392389834E+02 -0.30203713815E+03  0.31070689285E+03  0.00000000000E+00 0. -1.
          1    1    1    2  502    0  0.51846797644E+02 -0.50942998363E+01  0.93357888496E+03  0.93503132394E+03  0.00000000000E+00 0. -1.
         22    1    3    3    0    0 -0.13785696784E+03  0.44154923896E+02  0.32839517990E+03  0.35888381834E+03  0.00000000000E+00 0.  1.
         22    1    3    3    0    0  0.28203110384E+02  0.53317657738E+01  0.61858271140E+02  0.68193026550E+02  0.00000000000E+00 0.  1.
</event>
<event>
 7    1  0.5977291E-006  0.5967880E+02  0.7818608E-02  0.1402436E+00
          2   -1    0    0  502    0  0.00000000000E+00  0.00000000000E+00  0.14457170193E+04  0.14457170193E+04  0.00000000000E+00 0. -1.
          1   -1    0    0  501    0 -0.00000000000E+00 -0.00000000000E+00 -0.17541496629E+02  0.17541496629E+02  0.00000000000E+00 0. -1.
         25    2    1    2    0    0 -0.30262167428E+02 -0.29252675977E+01  0.39342268442E+03  0.41392030012E+03  0.12499700105E+03 0.  0.
          2    1    1    2  501    0  0.22777515344E+01  0.59635317436E+02  0.13791355310E+03  0.15027211108E+03  0.00000000000E+00 0. -1.
          1    1    1    2  502    0  0.27984415894E+02 -0.56710049838E+02  0.89683928513E+03  0.89906610471E+03  0.00000000000E+00 0. -1.
         22    1    3    3    0    0 -0.67031002664E+00 -0.58648227661E+02  0.25709763681E+03  0.26370297453E+03  0.00000000000E+00 0. -1.
         22    1    3    3    0    0 -0.29591857401E+02  0.55722960064E+02  0.13632504761E+03  0.15021732559E+03  0.00000000000E+00 0. -1.
</event>
<event>
 7    1  0.5977291E-006  0.6684468E+02  0.7818608E-02  0.1401225E+00
          2   -1    0    0  502    0  0.00000000000E+00  0.00000000000E+00  0.95821361999E+03  0.95821361999E+03  0.00000000000E+00 0. -1.
          1   -1    0    0  501    0 -0.00000000000E+00 -0.00000000000E+00 -0.12058887196E+04  0.12058887196E+04  0.00000000000E+00 0. -1.
         25    2    1    2    0    0 -0.73195060793E+02  0.86684639870E+02  0.50234496570E+03  0.52994925256E+03  0.12499600797E+03 0.  0.
          2    1    1    2  501    0  0.55308137286E+02 -0.37402628842E+02 -0.11895927128E+04  0.11914649676E+04  0.00000000000E+00 0. -1.
          1    1    1    2  502    0  0.17886923507E+02 -0.49282011028E+02  0.43957264749E+03  0.44268811941E+03  0.00000000000E+00 0. -1.
         22    1    3    3    0    0 -0.99445596079E+02  0.83878474322E+02  0.47259522120E+03  0.49017473225E+03  0.00000000000E+00 0.  1.
         22    1    3    3    0    0  0.26250535285E+02  0.28061655479E+01  0.29749744496E+02  0.39774520304E+02  0.00000000000E+00 0.  1.
</event>
<event>
 7    1  0.5977291E-006  0.1272948E+03  0.7818608E-02  0.1345730E+00
          2   -1    0    0  502    0  0.00000000000E+00  0.00000000000E+00  0.69632421641E+03  0.69632421641E+03  0.00000000000E+00 0. -1.
          1   -1    0    0  501    0 -0.00000000000E+00 -0.00000000000E+00 -0.39332862512E+03  0.39332862512E+03  0.00000000000E+00 0. -1.
         25    2    1    2    0    0  0.11039414233E+03 -0.90913700618E+02 -0.93780988212E+02  0.21182838895E+03  0.12499689995E+03 0.  0.
          2    1    1    2  501    0 -0.40756316040E+02 -0.15169562160E+02 -0.23216805727E+03  0.23620584186E+03  0.00000000000E+00 0. -1.
          1    1    1    2  502    0 -0.69637826286E+02  0.10608326278E+03  0.62894463677E+03  0.64161861072E+03  0.00000000000E+00 0. -1.
         22    1    3    3    0    0  0.87908991625E+02 -0.12186956241E+03 -0.63931113920E+02  0.16330146471E+03  0.00000000000E+00 0.  1.
         22    1    3    3    0    0  0.22485150701E+02  0.30955861788E+02 -0.29849874292E+02  0.48526924242E+02  0.00000000000E+00 0.  1.
</event>
<event>
 7    1  0.5977291E-006  0.1369596E+03  0.7818608E-02  0.1359656E+00
          2   -1    0    0  502    0  0.00000000000E+00  0.00000000000E+00  0.61052012026E+03  0.61052012026E+03  0.00000000000E+00 0. -1.
          1   -1    0    0  501    0 -0.00000000000E+00 -0.00000000000E+00 -0.15426072422E+04  0.15426072422E+04  0.00000000000E+00 0. -1.
         25    2    1    2    0    0 -0.13934329916E+03  0.19035525058E+02 -0.64104095019E+02  0.19877781327E+03  0.12499751124E+03 0.  0.
          2    1    1    2  501    0  0.12650841704E+03 -0.52572000300E+02 -0.14072428204E+04  0.14138955231E+04  0.00000000000E+00 0. -1.
          1    1    1    2  502    0  0.12834882121E+02  0.33536475242E+02  0.53925979350E+03  0.54045402603E+03  0.00000000000E+00 0. -1.
         22    1    3    3    0    0 -0.92078750290E+02 -0.35473517693E+02 -0.77407731444E+02  0.12541460680E+03  0.00000000000E+00 0. -1.
         22    1    3    3    0    0 -0.47264548871E+02  0.54509042751E+02  0.13303636425E+02  0.73363206471E+02  0.00000000000E+00 0. -1.
</event>
<event>
 7    1  0.5977291E-006  0.4953907E+02  0.7818608E-02  0.1546583E+00
          2   -1    0    0  502    0  0.00000000000E+00  0.00000000000E+00  0.64730640913E+03  0.64730640913E+03  0.00000000000E+00 0. -1.
          1   -1    0    0  501    0 -0.00000000000E+00 -0.00000000000E+00 -0.25962617160E+03  0.25962617160E+03  0.00000000000E+00 0. -1.
         25    2    1    2    0    0 -0.94420671495E+01 -0.23102877456E+02  0.15359338649E+03  0.19959328490E+03  0.12499462160E+03 0.  0.
          2    1    1    2  501    0  0.21807721947E+02  0.44889820736E+02 -0.23365585744E+03  0.23892620714E+03  0.00000000000E+00 0. -1.
          1    1    1    2  502    0 -0.12365654797E+02 -0.21786943280E+02  0.46774270848E+03  0.46841308869E+03  0.00000000000E+00 0. -1.
         22    1    3    3    0    0 -0.15220239613E+02  0.20080697555E+02 -0.12325042640E+02  0.28049898115E+02  0.00000000000E+00 0.  1.
         22    1    3    3    0    0  0.57781724637E+01 -0.43183575011E+02  0.16591842913E+03  0.17154338679E+03  0.00000000000E+00 0.  1.
</event>
<event>
 7    1  0.5977291E-006  0.6296729E+02  0.7818608E-02  0.1441164E+00
          2   -1    0    0  502    0  0.00000000000E+00  0.00000000000E+00  0.26197594233E+04  0.26197594233E+04  0.00000000000E+00 0. -1.
          1   -1    0    0  501    0 -0.00000000000E+00 -0.00000000000E+00 -0.10962222665E+03  0.10962222665E+03  0.00000000000E+00 0. -1.
         25    2    1    2    0    0  0.25165466468E+02 -0.11416515141E+02  0.78192469134E+03  0.79233467229E+03  0.12499748980E+03 0.  0.
          2    1    1    2  501    0  0.27676204927E+02 -0.30190251055E+02 -0.99758729803E+02  0.10783889720E+03  0.00000000000E+00 0. -1.
          1    1    1    2  502    0 -0.52841671396E+02  0.41606766196E+02  0.18279712351E+04  0.18292080804E+04  0.00000000000E+00 0. -1.
         22    1    3    3    0    0  0.34860433844E+02  0.15246121007E+02  0.74400136946E+03  0.74497364505E+03  0.00000000000E+00 0.  1.
         22    1    3    3    0    0 -0.96949673755E+01 -0.26662636149E+02  0.37923321881E+02  0.47361027241E+02  0.00000000000E+00 0.  1.
</event>
<event>
 7    1  0.5977291E-006  0.2339806E+03  0.7818608E-02  0.1300900E+00
          2   -1    0    0  502    0  0.00000000000E+00  0.00000000000E+00  0.50909805995E+03  0.50909805995E+03  0.00000000000E+00 0. -1.
          1   -1    0    0  501    0 -0.00000000000E+00 -0.00000000000E+00 -0.13215299732E+04  0.13215299732E+04  0.00000000000E+00 0. -1.
         25    2    1    2    0    0 -0.10087547671E+03  0.18889953220E+03  0.11292658606E+03  0.27246377320E+03  0.12500079520E+03 0.  0.
          2    1    1    2  501    0 -0.28916361156E+02  0.20150463390E+02 -0.11936211358E+04  0.11941413706E+04  0.00000000000E+00 0. -1.
          1    1    1    2  502    0  0.12979183787E+03 -0.20904999559E+03  0.26826263650E+03  0.36402288936E+03  0.00000000000E+00 0. -1.
         22    1    3    3    0    0  0.28308101533E+02  0.42862073388E+02  0.11307933447E+02  0.52596343089E+02  0.00000000000E+00 0. -1.
         22    1    3    3    0    0 -0.12918357824E+03  0.14603745881E+03  0.10161865261E+03  0.21986743011E+03  0.00000000000E+00 0. -1.
</event>
<event>
 7    1  0.5977291E-006  0.7266657E+02  0.7818608E-02  0.1487356E+00
          2   -1    0    0  502    0  0.00000000000E+00  0.00000000000E+00  0.75670608622E+03  0.75670608622E+03  0.00000000000E+00 0. -1.
          1   -1    0    0  501    0 -0.00000000000E+00 -0.00000000000E+00 -0.12045454123E+04  0.12045454123E+04  0.00000000000E+00 0. -1.
         25    2    1    2    0    0  0.84710553248E+02  0.31042811833E+02 -0.35042421935E+03  0.38283361556E+03  0.12499963880E+03 0.  0.
          2    1    1    2  501    0 -0.60242283340E+02 -0.37941837039E+02 -0.83618516179E+03  0.83921054599E+03  0.00000000000E+00 0. -1.
          1    1    1    2  502    0 -0.24468269909E+02  0.68990252066E+01  0.73877005505E+03  0.73920733697E+03  0.00000000000E+00 0. -1.
         22    1    3    3    0    0  0.44341655020E+02 -0.80396297866E+01 -0.31087047269E+03  0.31411983192E+03  0.00000000000E+00 0. -1.
         22    1    3    3    0    0  0.40368898228E+02  0.39082441619E+02 -0.39553746654E+02  0.68713783635E+02  0.00000000000E+00 0. -1.
</event>
<event>
 7    1  0.5977291E-006  0.6673780E+02  0.7818608E-02  0.1445718E+00
          2   -1    0    0  502    0  0.00000000000E+00  0.00000000000E+00  0.96967993518E+02  0.96967993518E+02  0.00000000000E+00 0. -1.
          1   -1    0    0  501    0 -0.00000000000E+00 -0.00000000000E+00 -0.51535229758E+03  0.51535229758E+03  0.00000000000E+00 0. -1.
         25    2    1    2    0    0 -0.44891806768E+01 -0.84056430845E+02 -0.58489542834E+02  0.16165074049E+03  0.12499719585E+03 0.  0.
          2    1    1    2  501    0 -0.25108907082E+02  0.61266087304E+02 -0.39433815829E+03  0.39985819205E+03  0.00000000000E+00 0. -1.
          1    1    1    2  502    0  0.29598087759E+02  0.22790343542E+02  0.34443397059E+02  0.50811358560E+02  0.00000000000E+00 0. -1.
         22    1    3    3    0    0  0.51802037963E+02 -0.11172371494E+02 -0.83311701091E+00  0.52999689678E+02  0.00000000000E+00 0. -1.
         22    1    3    3    0    0 -0.56291218640E+02 -0.72884059352E+02 -0.57656425823E+02  0.10865105081E+03  0.00000000000E+00 0. -1.
</event>
<event>
 7    1  0.5977292E-006  0.4411506E+02  0.7818608E-02  0.1556083E+00
          2   -1    0    0  502    0  0.00000000000E+00  0.00000000000E+00  0.84598250802E+03  0.84598250802E+03  0.00000000000E+00 0. -1.
          1   -1    0    0  501    0 -0.00000000000E+00 -0.00000000000E+00 -0.16364537531E+04  0.16364537531E+04  0.00000000000E+00 0. -1.
         25    2    1    2    0    0  0.42535885213E+02 -0.36439680204E+02 -0.10837938180E+04  0.10924157859E+04  0.12500423022E+03 0.  0.
          2    1    1    2  501    0  0.43385897345E+00  0.26465770471E+02 -0.54745098922E+03  0.54809051336E+03  0.00000000000E+00 0. -1.
          1    1    1    2  502    0 -0.42969744186E+02  0.99739097331E+01  0.84077356216E+03  0.84192996182E+03  0.00000000000E+00 0. -1.
         22    1    3    3    0    0 -0.30936509654E+02 -0.12670064115E+02 -0.96886164791E+02  0.10249159518E+03  0.00000000000E+00 0.  1.
         22    1    3    3    0    0  0.73472394868E+02 -0.23769616089E+02 -0.98690765322E+03  0.98992419075E+03  0.00000000000E+00 0.  1.
</event>
<event>
 7    1  0.5977291E-006  0.4962904E+02  0.7818608E-02  0.1457747E+00
          2   -1    0    0  502    0  0.00000000000E+00  0.00000000000E+00  0.42390088750E+03  0.42390088750E+03  0.00000000000E+00 0. -1.
          1   -1    0    0  501    0 -0.00000000000E+00 -0.00000000000E+00 -0.42987772167E+03  0.42987772167E+03  0.00000000000E+00 0. -1.
         25    2    1    2    0    0 -0.39834117767E+00  0.34612835471E+02 -0.20451726669E+03  0.24217829721E+03  0.12499923283E+03 0.  0.
          2    1    1    2  501    0  0.46195882226E+02 -0.30486249501E+02 -0.20148075356E+03  0.20894488508E+03  0.00000000000E+00 0. -1.
          1    1    1    2  502    0 -0.45797541049E+02 -0.41265859707E+01  0.40002118609E+03  0.40265542688E+03  0.00000000000E+00 0. -1.
         22    1    3    3    0    0  0.11040568164E+02 -0.11570083565E+02 -0.19242339177E+03  0.19308682679E+03  0.00000000000E+00 0.  1.
         22    1    3    3    0    0 -0.11438909341E+02  0.46182919036E+02 -0.12093874927E+02  0.49091470424E+02  0.00000000000E+00 0.  1.
</event>
<event>
 7    1  0.5977291E-006  0.1156272E+03  0.7818608E-02  0.1375974E+00
          2   -1    0    0  502    0  0.00000000000E+00  0.00000000000E+00  0.10907563896E+03  0.10907563896E+03  0.00000000000E+00 0. -1.
          1   -1    0    0  501    0 -0.00000000000E+00 -0.00000000000E+00 -0.86488138515E+03  0.86488138515E+03  0.00000000000E+00 0. -1.
         25    2    1    2    0    0  0.13338008300E+03  0.31807253073E+02 -0.11535261181E+02  0.18589096504E+03  0.12498176164E+03 0.  0.
          2    1    1    2  501    0 -0.11472263751E+03  0.30947958973E+00 -0.74204040873E+03  0.75085640939E+03  0.00000000000E+00 0. -1.
          1    1    1    2  502    0 -0.18657445492E+02 -0.32116732663E+02 -0.22300762727E+01  0.37209649682E+02  0.00000000000E+00 0. -1.
         22    1    3    3    0    0  0.11723085912E+03  0.62889563955E+02 -0.41960307273E+02  0.13949494245E+03  0.00000000000E+00 0. -1.
         22    1    3    3    0    0  0.16149223887E+02 -0.31082310882E+02  0.30425046092E+02  0.46396022584E+02  0.00000000000E+00 0. -1.
</event>
<event>
 7    1  0.5977291E-006  0.4549084E+02  0.7818608E-02  0.1514698E+00
          2   -1    0    0  502    0  0.00000000000E+00  0.00000000000E+00  0.10145583091E+03  0.10145583091E+03  0.00000000000E+00 0. -1.
          1   -1    0    0  501    0 -0.00000000000E+00 -0.00000000000E+00 -0.12084198703E+04  0.12084198703E+04  0.00000000000E+00 0. -1.
         25    2    1    2    0    0  0.37280665966E+02  0.69196393736E+02 -0.15424952502E+03  0.21353082560E+03  0.12499803419E+03 0.  0.
          2    1    1    2  501    0 -0.21319264415E+02 -0.39559265156E+02 -0.10200630529E+04  0.10210524366E+04  0.00000000000E+00 0. -1.
          1    1    1    2  502    0 -0.15961401552E+02 -0.29637128580E+02  0.67348538508E+02  0.75292438990E+02  0.00000000000E+00 0. -1.
         22    1    3    3    0    0  0.71671472841E+02  0.20037274709E+02 -0.40003358349E+02  0.84490005777E+02  0.00000000000E+00 0.  1.
         22    1    3    3    0    0 -0.34390806875E+02  0.49159119027E+02 -0.11424616668E+03  0.12904081983E+03  0.00000000000E+00 0.  1.
</event>
<event>
 7    1  0.5977291E-006  0.1103766E+03  0.7818608E-02  0.1270286E+00
          2   -1    0    0  502    0  0.00000000000E+00  0.00000000000E+00  0.21258846803E+04  0.21258846803E+04  0.00000000000E+00 0. -1.
          1   -1    0    0  501    0 -0.00000000000E+00 -0.00000000000E+00 -0.22604968328E+02  0.22604968328E+02  0.00000000000E+00 0. -1.
         25    2    1    2    0    0  0.62868648566E+02  0.72377561699E+02  0.85340725059E+03  0.86782511436E+03  0.12500206133E+03 0.  0.
          2    1    1    2  501    0 -0.10264463253E+03  0.40584157625E+02  0.24542772125E+03  0.26910548266E+03  0.00000000000E+00 0. -1.
          1    1    1    2  502    0  0.39775983962E+02 -0.11296171932E+03  0.10044447401E+04  0.10115590516E+04  0.00000000000E+00 0. -1.
         22    1    3    3    0    0 -0.73310457685E+01 -0.30843947783E+02  0.21539705302E+03  0.21771766992E+03  0.00000000000E+00 0. -1.
         22    1    3    3    0    0  0.70199694334E+02  0.10322150948E+03  0.63801019757E+03  0.65010744444E+03  0.00000000000E+00 0. -1.
</event>
<event>
 7    1  0.6179770E-006  0.1377681E+03  0.7818608E-02  0.1376325E+00
          2   -1    0    0  502    0  0.00000000000E+00  0.00000000000E+00  0.20013225620E+04  0.20013225620E+04  0.00000000000E+00 0. -1.
          1   -1    0    0  501    0 -0.00000000000E+00 -0.00000000000E+00 -0.19787505536E+04  0.19787505536E+04  0.00000000000E+00 0. -1.
         25    2    1    2    0    0 -0.64397327668E+02 -0.11033431310E+03 -0.15975802110E+03  0.23972703778E+03  0.12500300348E+03 0.  0.
          2    1    1    2  501    0 -0.29622765635E+02  0.94177684468E+01 -0.17764470265E+04  0.17767189538E+04  0.00000000000E+00 0. -1.
          1    1    1    2  502    0  0.94020093303E+02  0.10091654465E+03  0.19587770561E+04  0.19636271241E+04  0.00000000000E+00 0. -1.
         22    1    3    3    0    0 -0.24383128505E+02 -0.57426043915E+02 -0.16174654999E+03  0.17336156988E+03  0.00000000000E+00 0. -1.
         22    1    3    3    0    0 -0.40014199163E+02 -0.52908269183E+02  0.19885288933E+01  0.66365467901E+02  0.00000000000E+00 0. -1.
</event>
<event>
 7    1  0.5977291E-006  0.9620644E+02  0.7818608E-02  0.1353229E+00
          2   -1    0    0  502    0  0.00000000000E+00  0.00000000000E+00  0.81418002026E+03  0.81418002026E+03  0.00000000000E+00 0. -1.
          1   -1    0    0  501    0 -0.00000000000E+00 -0.00000000000E+00 -0.34291671624E+03  0.34291671624E+03  0.00000000000E+00 0. -1.
         25    2    1    2    0    0 -0.35543045459E+02 -0.30817327619E+02  0.18930311131E+03  0.23167389029E+03  0.12499643086E+03 0.  0.
          2    1    1    2  501    0  0.54884381677E+02  0.81204857058E+02 -0.31301668285E+03  0.32800299984E+03  0.00000000000E+00 0. -1.
          1    1    1    2  502    0 -0.19341336218E+02 -0.50387529439E+02  0.59497687555E+03  0.59741984638E+03  0.00000000000E+00 0. -1.
         22    1    3    3    0    0 -0.32605056988E+02  0.34569968603E+02  0.22678035594E+02  0.52654209412E+02  0.00000000000E+00 0.  1.
         22    1    3    3    0    0 -0.29379884706E+01 -0.65387296222E+02  0.16662507572E+03  0.17901968088E+03  0.00000000000E+00 0.  1.
</event>
<event>
 7    1  0.6755608E-006  0.5580975E+02  0.7818608E-02  0.1436593E+00
          2   -1    0    0  502    0  0.00000000000E+00  0.00000000000E+00  0.12923744068E+04  0.12923744068E+04  0.00000000000E+00 0. -1.
          1   -1    0    0  501    0 -0.00000000000E+00 -0.00000000000E+00 -0.20329219987E+04  0.20329219987E+04  0.00000000000E+00 0. -1.
         25    2    1    2    0    0 -0.31112188651E+02  0.17529218758E+02 -0.72750241950E+02  0.14897283226E+03  0.12500026102E+03 0.  0.
          2    1    1    2  501    0 -0.18120993021E+02 -0.44250616566E+02 -0.19211373610E+04  0.19217323558E+04  0.00000000000E+00 0. -1.
          1    1    1    2  502    0  0.49233181672E+02  0.26721397808E+02  0.12533400111E+04  0.12545912174E+04  0.00000000000E+00 0. -1.
         22    1    3    3    0    0 -0.21781223046E+02  0.56466644428E+02  0.58072299778E+01  0.60799897454E+02  0.00000000000E+00 0.  1.
         22    1    3    3    0    0 -0.93309656045E+01 -0.38937425670E+02 -0.78557471928E+02  0.88172934808E+02  0.00000000000E+00 0.  1.
</event>
<event>
 7    1  0.5977291E-006  0.5875294E+02  0.7818608E-02  0.1430614E+00
          2   -1    0    0  502    0  0.00000000000E+00  0.00000000000E+00  0.13246104002E+03  0.13246104002E+03  0.00000000000E+00 0. -1.
          1   -1    0    0  501    0 -0.00000000000E+00 -0.00000000000E+00 -0.16805659142E+04  0.16805659142E+04  0.00000000000E+00 0. -1.
         25    2    1    2    0    0  0.91057241861E+02 -0.28375608091E+01 -0.18998411304E+03  0.24498787036E+03  0.12500248145E+03 0.  0.
          2    1    1    2  501    0 -0.40339072696E+02 -0.25111512119E+02 -0.14546747738E+04  0.14554506265E+04  0.00000000000E+00 0. -1.
          1    1    1    2  502    0 -0.50718169165E+02  0.27949072928E+02  0.96554012649E+02  0.11258845731E+03  0.00000000000E+00 0. -1.
         22    1    3    3    0    0  0.75517647373E+02  0.14365599241E+02 -0.28713321266E+02  0.82059370729E+02  0.00000000000E+00 0. -1.
         22    1    3    3    0    0  0.15539594487E+02 -0.17203160051E+02 -0.16127079177E+03  0.16292849963E+03  0.00000000000E+00 0. -1.
</event>
<event>
 7    1  0.5977291E-006  0.7328778E+02  0.7818608E-02  0.1359505E+00
          2   -1    0    0  502    0  0.00000000000E+00  0.00000000000E+00  0.93513148819E+03  0.93513148819E+03  0.00000000000E+00 0. -1.
          1   -1    0    0  501    0 -0.00000000000E+00 -0.00000000000E+00 -0.12209605360E+03  0.12209605360E+03  0.00000000000E+00 0. -1.
         25    2    1    2    0    0  0.49872348316E+02  0.76102434995E+01  0.16617846949E+03  0.21397515119E+03  0.12499965868E+03 0.  0.
          2    1    1    2  501    0 -0.28875102592E+02 -0.71436076014E+02 -0.81294464857E+02  0.11200747530E+03  0.00000000000E+00 0. -1.
          1    1    1    2  502    0 -0.20997245723E+02  0.63825832514E+02  0.72815142995E+03  0.73124491531E+03  0.00000000000E+00 0. -1.
         22    1    3    3    0    0  0.76710131078E+02  0.78202603385E+01  0.43781671238E+02  0.88670375088E+02  0.00000000000E+00 0. -1.
         22    1    3    3    0    0 -0.26837782763E+02 -0.21001683900E+00  0.12239679826E+03  0.12530477610E+03  0.00000000000E+00 0. -1.
</event>
<event>
 7    1  0.5977291E-006  0.4550366E+02  0.7818608E-02  0.1501430E+00
          2   -1    0    0  502    0  0.00000000000E+00  0.00000000000E+00  0.25927614742E+04  0.25927614742E+04  0.00000000000E+00 0. -1.
          1   -1    0    0  501    0 -0.00000000000E+00 -0.00000000000E+00 -0.16597494044E+04  0.16597494044E+04  0.00000000000E+00 0. -1.
         25    2    1    2    0    0 -0.71368773268E+02  0.35058103411E+02  0.26996071565E+03  0.30794014140E+03  0.12500308109E+03 0.  0.
          2    1    1    2  501    0  0.36198743628E+02 -0.67779803646E+01 -0.16403319743E+04  0.16407453416E+04  0.00000000000E+00 0. -1.
          1    1    1    2  502    0  0.35170029640E+02 -0.28280123047E+02  0.23033833284E+04  0.23038253957E+04  0.00000000000E+00 0. -1.
         22    1    3    3    0    0  0.79307211773E+00 -0.36912561764E+02  0.12776254555E+03  0.13299035388E+03  0.00000000000E+00 0. -1.
         22    1    3    3    0    0 -0.72161845386E+02  0.71970665176E+02  0.14219817010E+03  0.17494978753E+03  0.00000000000E+00 0. -1.
</event>
<event>
 7    1  0.5977291E-006  0.8466899E+02  0.7818608E-02  0.1409388E+00
          2   -1    0    0  502    0  0.00000000000E+00  0.00000000000E+00  0.28109100378E+04  0.28109100378E+04  0.00000000000E+00 0. -1.
          1   -1    0    0  501    0 -0.00000000000E+00 -0.00000000000E+00 -0.38833338425E+02  0.38833338425E+02  0.00000000000E+00 0. -1.
         25    2    1    2    0    0 -0.11800942514E+03 -0.30028920910E+02  0.45559279342E+03  0.48787049278E+03  0.12499945521E+03 0.  0.
          2    1    1    2  501    0  0.37828891869E+02  0.87128090579E+01 -0.47927521613E+01  0.39114045751E+02  0.00000000000E+00 0. -1.
          1    1    1    2  502    0  0.80180533269E+02  0.21316111852E+02  0.23212766582E+04  0.23227588377E+04  0.00000000000E+00 0. -1.
         22    1    3    3    0    0 -0.68037130448E+01 -0.25981520409E+02  0.10106655249E+02  0.28696243557E+02  0.00000000000E+00 0.  1.
         22    1    3    3    0    0 -0.11120571209E+03 -0.40474005006E+01  0.44548613817E+03  0.45917424922E+03  0.00000000000E+00 0.  1.
</event>
<event>
 7    1  0.5977291E-006  0.5797229E+02  0.7818608E-02  0.1503106E+00
          2   -1    0    0  502    0  0.00000000000E+00  0.00000000000E+00  0.50467465560E+02  0.50467465560E+02  0.00000000000E+00 0. -1.
          1   -1    0    0  501    0 -0.00000000000E+00 -0.00000000000E+00 -0.68191022256E+03  0.68191022256E+03  0.00000000000E+00 0. -1.
         25    2    1    2    0    0 -0.53047086862E+02  0.63549827753E+02 -0.23257812351E+03  0.27671125160E+03  0.12499583672E+03 0.  0.
          2    1    1    2  501    0  0.12802209218E+02 -0.25549011024E+02 -0.39929265802E+03  0.40031397087E+03  0.00000000000E+00 0. -1.
          1    1    1    2  502    0  0.40244877644E+02 -0.38000816729E+02  0.42802452350E+00  0.55352465651E+02  0.00000000000E+00 0. -1.
         22    1    3    3    0    0  0.15595567897E+01  0.43153072685E+02 -0.70268341813E+01  0.43749243401E+02  0.00000000000E+00 0.  1.
         22    1    3    3    0    0 -0.54606643652E+02  0.20396755068E+02 -0.22555128932E+03  0.23296200820E+03  0.00000000000E+00 0.  1.
</event>
<event>
 7    1  0.5977291E-006  0.8518147E+02  0.7818608E-02  0.1342757E+00
          2   -1    0    0  502    0  0.00000000000E+00  0.00000000000E+00  0.79717740920E+03  0.79717740920E+03  0.00000000000E+00 0. -1.
          1   -1    0    0  501    0 -0.00000000000E+00 -0.00000000000E+00 -0.35347357305E+03  0.35347357305E+03  0.00000000000E+00 0. -1.
         25    2    1    2    0    0  0.37176005576E+02  0.84512640508E+02  0.25844292226E+03  0.30156700152E+03  0.12500188217E+03 0.  0.
          2    1    1    2  501    0  0.29366007867E+02 -0.80341444742E+02 -0.32419176911E+03  0.33528706107E+03  0.00000000000E+00 0. -1.
          1    1    1    2  502    0 -0.66542013443E+02 -0.41711957655E+01  0.50945268301E+03  0.51379691966E+03  0.00000000000E+00 0. -1.
         22    1    3    3    0    0  0.10035032270E+02  0.11357888835E+03  0.17128795127E+03  0.20576789838E+03  0.00000000000E+00 0.  1.
         22    1    3    3    0    0  0.27140973305E+02 -0.29066247842E+02  0.87154970986E+02  0.95799103144E+02  0.00000000000E+00 0.  1.
</event>
<event>
 7    1  0.5977291E-006  0.6609932E+02  0.7818608E-02  0.1375771E+00
          2   -1    0    0  502    0  0.00000000000E+00  0.00000000000E+00  0.10070571205E+03  0.10070571205E+03  0.00000000000E+00 0. -1.
          1   -1    0    0  501    0 -0.00000000000E+00 -0.00000000000E+00 -0.72810325474E+03  0.72810325474E+03  0.00000000000E+00 0. -1.
         25    2    1    2    0    0  0.12228809380E+01 -0.36857639628E+00 -0.25833827893E+02  0.12764750259E+03  0.12499946787E+03 0.  0.
          2    1    1    2  501    0 -0.67191975046E+02  0.45156681906E+01 -0.62680083000E+03  0.63040814815E+03  0.00000000000E+00 0. -1.
          1    1    1    2  502    0  0.65969094109E+02 -0.41470917943E+01  0.25237115195E+02  0.70753316044E+02  0.00000000000E+00 0. -1.
         22    1    3    3    0    0  0.23014668554E+02  0.48848215477E+02 -0.45225447603E+02  0.70435532474E+02  0.00000000000E+00 0.  1.
         22    1    3    3    0    0 -0.21791787616E+02 -0.49216791874E+02  0.19391619710E+02  0.57211970118E+02  0.00000000000E+00 0.  1.
</event>
<event>
 7    1  0.5977291E-006  0.2401613E+03  0.7818608E-02  0.1212234E+00
          2   -1    0    0  502    0  0.00000000000E+00  0.00000000000E+00  0.27612165007E+04  0.27612165007E+04  0.00000000000E+00 0. -1.
          1   -1    0    0  501    0 -0.00000000000E+00 -0.00000000000E+00 -0.47143230565E+02  0.47143230565E+02  0.00000000000E+00 0. -1.
         25    2    1    2    0    0 -0.21011119776E+03 -0.82081002488E+02  0.77200683091E+03  0.81394308020E+03  0.12499913777E+03 0.  0.
          2    1    1    2  501    0  0.19914569574E+03  0.16391634187E+03  0.64406744885E+03  0.69379424467E+03  0.00000000000E+00 0. -1.
          1    1    1    2  502    0  0.10965502017E+02 -0.81835339385E+02  0.12979989904E+04  0.13006224064E+04  0.00000000000E+00 0. -1.
         22    1    3    3    0    0 -0.14406680149E+03 -0.99624425395E+02  0.65901019733E+03  0.68189054078E+03  0.00000000000E+00 0.  1.
         22    1    3    3    0    0 -0.66044396270E+02  0.17543422907E+02  0.11299663358E+03  0.13205253941E+03  0.00000000000E+00 0.  1.
</event>
<event>
 7    1  0.5977291E-006  0.5569602E+02  0.7818608E-02  0.1501164E+00
          2   -1    0    0  502    0  0.00000000000E+00  0.00000000000E+00  0.21211274585E+02  0.21211274585E+02  0.00000000000E+00 0. -1.
          1   -1    0    0  501    0 -0.00000000000E+00 -0.00000000000E+00 -0.14630405345E+04  0.14630405345E+04  0.00000000000E+00 0. -1.
         25    2    1    2    0    0 -0.15896074376E+02 -0.70784418596E+02 -0.40045052236E+03  0.42573285825E+03  0.12499890655E+03 0.  0.
          2    1    1    2  501    0 -0.13780896965E+02  0.26808796720E+02 -0.96529150341E+03  0.96576203656E+03  0.00000000000E+00 0. -1.
          1    1    1    2  502    0  0.29676971340E+02  0.43975621877E+02 -0.76087234180E+02  0.92756914311E+02  0.00000000000E+00 0. -1.
         22    1    3    3    0    0  0.78176796451E+01 -0.21305906782E+02 -0.11965484334E+01  0.22726405501E+02  0.00000000000E+00 0. -1.
         22    1    3    3    0    0 -0.23713754021E+02 -0.49478511814E+02 -0.39925397392E+03  0.40300645274E+03  0.00000000000E+00 0. -1.
</event>
<event>
 7    1  0.5977291E-006  0.1356895E+03  0.7818608E-02  0.1243905E+00
          2   -1    0    0  502    0  0.00000000000E+00  0.00000000000E+00  0.35127608927E+03  0.35127608927E+03  0.00000000000E+00 0. -1.
          1   -1    0    0  501    0 -0.00000000000E+00 -0.00000000000E+00 -0.14581907133E+04  0.14581907133E+04  0.00000000000E+00 0. -1.
         25    2    1    2    0    0  0.67618109969E+02 -0.92210452962E+02 -0.52348552470E+03  0.55021577768E+03  0.12500132403E+03 0.  0.
          2    1    1    2  501    0  0.69027047135E+02  0.79469661723E+02 -0.90422557141E+03  0.91033183200E+03  0.00000000000E+00 0. -1.
          1    1    1    2  502    0 -0.13664515710E+03  0.12740791239E+02  0.32079647203E+03  0.34891919292E+03  0.00000000000E+00 0. -1.
         22    1    3    3    0    0 -0.19945693562E+02 -0.23298395201E+02 -0.28876180762E+03  0.29038599734E+03  0.00000000000E+00 0.  1.
         22    1    3    3    0    0  0.87563803532E+02 -0.68912057761E+02 -0.23472371708E+03  0.25982978034E+03  0.00000000000E+00 0.  1.
</event>
<event>
 7    1  0.5977291E-006  0.1075207E+03  0.7818608E-02  0.1425241E+00
          2   -1    0    0  502    0  0.00000000000E+00  0.00000000000E+00  0.17159122769E+04  0.17159122769E+04  0.00000000000E+00 0. -1.
          1   -1    0    0  501    0 -0.00000000000E+00 -0.00000000000E+00 -0.14800923487E+03  0.14800923487E+03  0.00000000000E+00 0. -1.
         25    2    1    2    0    0  0.12514018900E+03 -0.42451599596E+02  0.35270943299E+03  0.39685170394E+03  0.12500050236E+03 0.  0.
          2    1    1    2  501    0 -0.98195813274E+02  0.40092583435E+02 -0.10344272936E+03  0.14815610432E+03  0.00000000000E+00 0. -1.
          1    1    1    2  502    0 -0.26944375726E+02  0.23590161611E+01  0.13186363384E+04  0.13189137035E+04  0.00000000000E+00 0. -1.
         22    1    3    3    0    0 -0.21029698293E+02  0.39963630525E+01  0.91255961736E+02  0.93732970082E+02  0.00000000000E+00 0.  1.
         22    1    3    3    0    0  0.14616988729E+03 -0.46447962649E+02  0.26145347125E+03  0.30311873386E+03  0.00000000000E+00 0.  1.
</event>
<event>
 7    1  0.5977291E-006  0.2006530E+03  0.7818608E-02  0.1380051E+00
          2   -1    0    0  502    0  0.00000000000E+00  0.00000000000E+00  0.14506408756E+04  0.14506408756E+04  0.00000000000E+00 0. -1.
          1   -1    0    0  501    0 -0.00000000000E+00 -0.00000000000E+00 -0.54252378674E+02  0.54252378674E+02  0.00000000000E+00 0. -1.
         25    2    1    2    0    0  0.11825010573E+03  0.15585456828E+03  0.34524703391E+03  0.41604372916E+03  0.12499254456E+03 0.  0.
          2    1    1    2  501    0 -0.11260121451E+03 -0.17577056394E+03  0.56599669622E+03  0.60326327983E+03  0.00000000000E+00 0. -1.
          1    1    1    2  502    0 -0.56488912258E+01  0.19915995665E+02  0.48514476680E+03  0.48558624528E+03  0.00000000000E+00 0. -1.
         22    1    3    3    0    0  0.13178321047E+03  0.12296437272E+03  0.33259608875E+03  0.37829513580E+03  0.00000000000E+00 0.  1.
         22    1    3    3    0    0 -0.13533104732E+02  0.32890195555E+02  0.12650945155E+02  0.37748593360E+02  0.00000000000E+00 0.  1.
</event>
<event>
 7    1  0.5977291E-006  0.1065794E+03  0.7818608E-02  0.1283520E+00
          2   -1    0    0  502    0  0.00000000000E+00  0.00000000000E+00  0.77281333751E+03  0.77281333751E+03  0.00000000000E+00 0. -1.
          1   -1    0    0  501    0 -0.00000000000E+00 -0.00000000000E+00 -0.35067602865E+03  0.35067602865E+03  0.00000000000E+00 0. -1.
         25    2    1    2    0    0  0.18107673941E+03 -0.48279677444E+02  0.16412763163E+03  0.27871137989E+03  0.12498976361E+03 0.  0.
          2    1    1    2  501    0 -0.90895801414E+02  0.43703059639E+01 -0.28159309628E+03  0.29593211749E+03  0.00000000000E+00 0. -1.
          1    1    1    2  502    0 -0.90180937999E+02  0.43909371480E+02  0.53960277352E+03  0.54884586878E+03  0.00000000000E+00 0. -1.
         22    1    3    3    0    0  0.23741014977E+02 -0.61470754084E+02  0.63310467798E+02  0.91381096144E+02  0.00000000000E+00 0. -1.
         22    1    3    3    0    0  0.15733572444E+03  0.13191076640E+02  0.10081716383E+03  0.18733028375E+03  0.00000000000E+00 0. -1.
</event>
<event>
 7    1  0.5977291E-006  0.8252906E+02  0.7818608E-02  0.1342968E+00
          2   -1    0    0  502    0  0.00000000000E+00  0.00000000000E+00  0.13878705187E+04  0.13878705187E+04  0.00000000000E+00 0. -1.
          1   -1    0    0  501    0 -0.00000000000E+00 -0.00000000000E+00 -0.45304501941E+03  0.45304501941E+03  0.00000000000E+00 0. -1.
         25    2    1    2    0    0 -0.42014304590E+02  0.20425285687E+02  0.25239694327E+03  0.28550226190E+03  0.12499972198E+03 0.  0.
          2    1    1    2  501    0  0.21660704907E+02  0.65185695200E+02 -0.43204481485E+03  0.43747123681E+03  0.00000000000E+00 0. -1.
          1    1    1    2  502    0  0.20353599682E+02 -0.85610980887E+02  0.11144733708E+04  0.11179420394E+04  0.00000000000E+00 0. -1.
         22    1    3    3    0    0 -0.36963495225E+02  0.39341701631E+02  0.29056727900E+02  0.61305488357E+02  0.00000000000E+00 0.  1.
         22    1    3    3    0    0 -0.50508093649E+01 -0.18916415944E+02  0.22334021537E+03  0.22419677354E+03  0.00000000000E+00 0.  1.
</event>
<event>
 7    1  0.5977291E-006  0.1661936E+03  0.7818608E-02  0.1324249E+00
          2   -1    0    0  502    0  0.00000000000E+00  0.00000000000E+00  0.24113273694E+03  0.24113273694E+03  0.00000000000E+00 0. -1.
          1   -1    0    0  501    0 -0.00000000000E+00 -0.00000000000E+00 -0.15574220607E+04  0.15574220607E+04  0.00000000000E+00 0. -1.
         25    2    1    2    0    0 -0.19112629940E+03 -0.17816895045E+02 -0.52475223621E+03  0.57257030703E+03  0.12500057202E+03 0.  0.
          2    1    1    2  501    0  0.15551967804E+03  0.36433705789E+02 -0.10005118922E+04  0.10131820328E+04  0.00000000000E+00 0. -1.
          1    1    1    2  502    0  0.35606621359E+02 -0.18616810744E+02  0.20897480459E+03  0.21280245788E+03  0.00000000000E+00 0. -1.
         22    1    3    3    0    0 -0.15677941331E+03  0.30205942315E+02 -0.29593281465E+03  0.33625647083E+03  0.00000000000E+00 0. -1.
         22    1    3    3    0    0 -0.34346886086E+02 -0.48022837360E+02 -0.22881942157E+03  0.23631383620E+03  0.00000000000E+00 0. -1.
</event>
<event>
 7    1  0.5977291E-006  0.9206498E+02  0.7818608E-02  0.1344232E+00
          2   -1    0    0  502    0  0.00000000000E+00  0.00000000000E+00  0.79491504004E+03  0.79491504004E+03  0.00000000000E+00 0. -1.
          1   -1    0    0  501    0 -0.00000000000E+00 -0.00000000000E+00 -0.12523006908E+03  0.12523006908E+03  0.00000000000E+00 0. -1.
         25    2    1    2    0    0 -0.46183041713E+02 -0.84761062291E+02  0.81098984242E+02  0.17753684182E+03  0.12499989575E+03 0.  0.
          2    1    1    2  501    0 -0.14067472026E+02  0.93689524980E+02 -0.45852739316E+02  0.10525252758E+03  0.00000000000E+00 0. -1.
          1    1    1    2  502    0  0.60250513739E+02 -0.89284626884E+01  0.63443872603E+03  0.63735573971E+03  0.00000000000E+00 0. -1.
         22    1    3    3    0    0  0.19445054609E+02  0.10050116891E+02  0.55162680857E+02  0.59346746816E+02  0.00000000000E+00 0. -1.
         22    1    3    3    0    0 -0.65628096322E+02 -0.94811179182E+02  0.25936303385E+02  0.11819009501E+03  0.00000000000E+00 0. -1.
</event>
<event>
 7    1  0.5977291E-006  0.8267222E+02  0.7818608E-02  0.1394756E+00
          2   -1    0    0  502    0  0.00000000000E+00  0.00000000000E+00  0.98279613586E+03  0.98279613586E+03  0.00000000000E+00 0. -1.
          1   -1    0    0  501    0 -0.00000000000E+00 -0.00000000000E+00 -0.10928062238E+03  0.10928062238E+03  0.00000000000E+00 0. -1.
         25    2    1    2    0    0  0.10396631699E+03  0.68871534879E+02  0.15135953884E+03  0.23256249809E+03  0.12499328836E+03 0.  0.
          2    1    1    2  501    0 -0.34131514153E+02 -0.28747781449E+02 -0.59134753291E+02  0.74083157623E+02  0.00000000000E+00 0. -1.
          1    1    1    2  502    0 -0.69834802842E+02 -0.40123753430E+02  0.78129072793E+03  0.78543110253E+03  0.00000000000E+00 0. -1.
         22    1    3    3    0    0  0.73304742307E+02 -0.13085189903E+02  0.24381704985E+02  0.78353525622E+02  0.00000000000E+00 0.  1.
         22    1    3    3    0    0  0.30661574688E+02  0.81956724782E+02  0.12697783386E+03  0.15420897247E+03  0.00000000000E+00 0.  1.
</event>
<event>
 7    1  0.5977291E-006  0.4792686E+02  0.7818608E-02  0.1557679E+00
          2   -1    0    0  502    0  0.00000000000E+00  0.00000000000E+00  0.83861737626E+01  0.83861737626E+01  0.00000000000E+00 0. -1.
          1   -1    0    0  501    0 -0.00000000000E+00 -0.00000000000E+00 -0.26766150847E+04  0.26766150847E+04  0.00000000000E+00 0. -1.
         25    2    1    2    0    0  0.57357209040E+02  0.18901176759E+02 -0.12228104383E+04  0.12306652779E+04  0.12499821661E+03 0.  0.
          2    1    1    2  501    0 -0.21307166561E+02  0.11299367430E+02 -0.13226247502E+04  0.13228446246E+04  0.00000000000E+00 0. -1.
          1    1    1    2  502    0 -0.36050042479E+02 -0.30200544190E+02 -0.12279372242E+03  0.13149135598E+03  0.00000000000E+00 0. -1.
         22    1    3    3    0    0 -0.91360933671E+01 -0.66753615266E+01 -0.90067009592E+03  0.90074116723E+03  0.00000000000E+00 0. -1.
         22    1    3    3    0    0  0.66493302407E+02  0.25576538286E+02 -0.32214034240E+03  0.32992411063E+03  0.00000000000E+00 0. -1.
</event>
<event>
 7    1  0.5977291E-006  0.5858720E+02  0.7818608E-02  0.1507695E+00
          2   -1    0    0  502    0  0.00000000000E+00  0.00000000000E+00  0.18643685516E+04  0.18643685516E+04  0.00000000000E+00 0. -1.
          1   -1    0    0  501    0 -0.00000000000E+00 -0.00000000000E+00 -0.18164830070E+03  0.18164830070E+03  0.00000000000E+00 0. -1.
         25    2    1    2    0    0 -0.22191264743E+00  0.46343484713E+02 -0.69735866469E+02  0.15045230408E+03  0.12500014764E+03 0.  0.
          2    1    1    2  501    0 -0.23958494170E+02 -0.59242462486E+02 -0.57161962443E+02  0.85738957042E+02  0.00000000000E+00 0. -1.
          1    1    1    2  502    0  0.24180406817E+02  0.12898977772E+02  0.18096180798E+04  0.18098255912E+04  0.00000000000E+00 0. -1.
         22    1    3    3    0    0  0.45166490058E+02  0.66354930423E+02 -0.59210000793E+02  0.99743735690E+02  0.00000000000E+00 0. -1.
         22    1    3    3    0    0 -0.45388402705E+02 -0.20011445709E+02 -0.10525865676E+02  0.50708568386E+02  0.00000000000E+00 0. -1.
</event>
<event>
 7    1  0.5977291E-006  0.5993017E+02  0.7818608E-02  0.1455130E+00
          2   -1    0    0  502    0  0.00000000000E+00  0.00000000000E+00  0.82427320045E+02  0.82427320045E+02  0.00000000000E+00 0. -1.
          1   -1    0    0  501    0 -0.00000000000E+00 -0.00000000000E+00 -0.38080594829E+03  0.38080594829E+03  0.00000000000E+00 0. -1.
         25    2    1    2    0    0  0.22104790583E+02  0.14146058165E+02 -0.16303263745E+03  0.20710626703E+03  0.12499852897E+03 0.  0.
          2    1    1    2  501    0  0.18809178774E+02  0.33951761111E+02 -0.17652443850E+03  0.18074120912E+03  0.00000000000E+00 0. -1.
          1    1    1    2  502    0 -0.40913969358E+02 -0.48097819276E+02  0.41178447697E+02  0.75385792179E+02  0.00000000000E+00 0. -1.
         22    1    3    3    0    0 -0.42917158248E+02  0.37607295870E+02 -0.89848356060E+02  0.10643739128E+03  0.00000000000E+00 0.  1.
         22    1    3    3    0    0  0.65021948832E+02 -0.23461237705E+02 -0.73184281386E+02  0.10066887576E+03  0.00000000000E+00 0.  1.
</event>
<event>
 7    1  0.5977291E-006  0.5231466E+02  0.7818608E-02  0.1516707E+00
          2   -1    0    0  502    0  0.00000000000E+00  0.00000000000E+00  0.21721292695E+04  0.21721292695E+04  0.00000000000E+00 0. -1.
          1   -1    0    0  501    0 -0.00000000000E+00 -0.00000000000E+00 -0.23076971835E+03  0.23076971835E+03  0.00000000000E+00 0. -1.
         25    2    1    2    0    0 -0.59654633555E+02 -0.36637306606E+02  0.39510289206E+03  0.42029069213E+03  0.12504800294E+03 0.  0.
          2    1    1    2  501    0  0.51443745839E+02  0.89508180113E+01 -0.21493146216E+03  0.22118342966E+03  0.00000000000E+00 0. -1.
          1    1    1    2  502    0  0.82108877161E+01  0.27686488594E+02  0.17611881212E+04  0.17614248660E+04  0.00000000000E+00 0. -1.
         22    1    3    3    0    0 -0.39374606429E+02 -0.82166721544E+02  0.21717572685E+03  0.23551438617E+03  0.00000000000E+00 0. -1.
         22    1    3    3    0    0 -0.20280027127E+02  0.45529414939E+02  0.17792716521E+03  0.18477630596E+03  0.00000000000E+00 0. -1.
</event>
<event>
 7    1  0.5977291E-006  0.9629371E+02  0.7818608E-02  0.1316765E+00
          2   -1    0    0  502    0  0.00000000000E+00  0.00000000000E+00  0.21074798404E+04  0.21074798404E+04  0.00000000000E+00 0. -1.
          1   -1    0    0  501    0 -0.00000000000E+00 -0.00000000000E+00 -0.36515159619E+03  0.36515159619E+03  0.00000000000E+00 0. -1.
         25    2    1    2    0    0  0.13338796799E+03  0.78815292604E+02  0.68691782828E+03  0.71518174015E+03  0.12499847314E+03 0.  0.
          2    1    1    2  501    0 -0.44671302264E+02 -0.59167889204E+02 -0.34561680975E+03  0.35347891527E+03  0.00000000000E+00 0. -1.
          1    1    1    2  502    0 -0.88716665722E+02 -0.19647403400E+02  0.14010272257E+04  0.14039707812E+04  0.00000000000E+00 0. -1.
         22    1    3    3    0    0  0.61450167803E+02  0.76915814301E+02  0.56577619882E+03  0.57427769656E+03  0.00000000000E+00 0.  1.
         22    1    3    3    0    0  0.71937800184E+02  0.18994783022E+01  0.12114162945E+03  0.14090404359E+03  0.00000000000E+00 0.  1.
</event>
<event>
 7    1  0.5977291E-006  0.9643397E+02  0.7818608E-02  0.1385546E+00
          2   -1    0    0  502    0  0.00000000000E+00  0.00000000000E+00  0.75653153075E+03  0.75653153075E+03  0.00000000000E+00 0. -1.
          1   -1    0    0  501    0 -0.00000000000E+00 -0.00000000000E+00 -0.20278658334E+03  0.20278658334E+03  0.00000000000E+00 0. -1.
         25    2    1    2    0    0 -0.47271559723E+02 -0.95041986494E+02  0.16650999753E+03  0.23370662125E+03  0.12500250390E+03 0.  0.
          2    1    1    2  501    0  0.41184477397E+02 -0.90342486341E+00 -0.16244539883E+03  0.16758724580E+03  0.00000000000E+00 0. -1.
          1    1    1    2  502    0  0.60870823260E+01  0.95945411358E+02  0.54968034871E+03  0.55802424705E+03  0.00000000000E+00 0. -1.
         22    1    3    3    0    0 -0.85795550840E+02 -0.71996032934E+02  0.14688130416E+03  0.18471172896E+03  0.00000000000E+00 0.  1.
         22    1    3    3    0    0  0.38523991117E+02 -0.23045953560E+02  0.19628693364E+02  0.48994892287E+02  0.00000000000E+00 0.  1.
</event>
<event>
 7    1  0.5977291E-006  0.2458760E+02  0.7818608E-02  0.1680590E+00
          2   -1    0    0  502    0  0.00000000000E+00  0.00000000000E+00  0.77888358877E+03  0.77888358877E+03  0.00000000000E+00 0. -1.
          1   -1    0    0  501    0 -0.00000000000E+00 -0.00000000000E+00 -0.50809777782E+03  0.50809777782E+03  0.00000000000E+00 0. -1.
         25    2    1    2    0    0 -0.22355629774E+02 -0.14630877241E+02  0.13051774150E+02  0.12848819988E+03  0.12500012779E+03 0.  0.
          2    1    1    2  501    0  0.18072903818E+01  0.24560752335E+02 -0.44985879941E+03  0.45053239202E+03  0.00000000000E+00 0. -1.
          1    1    1    2  502    0  0.20548339392E+02 -0.99298750944E+01  0.70759283620E+03  0.70796077470E+03  0.00000000000E+00 0. -1.
         22    1    3    3    0    0 -0.37825160774E+01 -0.43551971586E+02  0.57543847035E+02  0.72266008527E+02  0.00000000000E+00 0.  1.
         22    1    3    3    0    0 -0.18573113697E+02  0.28921094345E+02 -0.44492072884E+02  0.56222191349E+02  0.00000000000E+00 0.  1.
</event>
<event>
 7    1  0.5977291E-006  0.8912210E+02  0.7818608E-02  0.1328992E+00
          2   -1    0    0  502    0  0.00000000000E+00  0.00000000000E+00  0.35989818155E+04  0.35989818155E+04  0.00000000000E+00 0. -1.
          1   -1    0    0  501    0 -0.00000000000E+00 -0.00000000000E+00 -0.14281176600E+03  0.14281176600E+03  0.00000000000E+00 0. -1.
         25    2    1    2    0    0  0.17675456147E+02  0.14451766199E+03  0.12340442063E+04  0.12488743949E+04  0.12499749834E+03 0.  0.
          2    1    1    2  501    0  0.23266460969E+02 -0.85474455037E+02 -0.12029735474E+03  0.14939432461E+03  0.00000000000E+00 0. -1.
          1    1    1    2  502    0 -0.40941917116E+02 -0.59043206950E+02  0.23424231979E+04  0.23435248620E+04  0.00000000000E+00 0. -1.
         22    1    3    3    0    0 -0.35172639991E+02  0.12208575177E+02  0.48321974472E+03  0.48465192210E+03  0.00000000000E+00 0. -1.
         22    1    3    3    0    0  0.52848096138E+02  0.13230908681E+03  0.75082446161E+03  0.76422247276E+03  0.00000000000E+00 0. -1.
</event>
<event>
 7    1  0.5977291E-006  0.1527136E+03  0.7818608E-02  0.1260650E+00
          2   -1    0    0  502    0  0.00000000000E+00  0.00000000000E+00  0.48129420509E+03  0.48129420509E+03  0.00000000000E+00 0. -1.
          1   -1    0    0  501    0 -0.00000000000E+00 -0.00000000000E+00 -0.15774554952E+04  0.15774554952E+04  0.00000000000E+00 0. -1.
         25    2    1    2    0    0  0.45667338805E+02  0.19223610100E+03  0.93235613806E+02  0.25171118634E+03  0.12500166913E+03 0.  0.
          2    1    1    2  501    0 -0.62814384989E+02 -0.48191800830E+02 -0.14800663691E+04  0.14821823618E+04  0.00000000000E+00 0. -1.
          1    1    1    2  502    0  0.17147046184E+02 -0.14404430017E+03  0.29066946519E+03  0.32485615216E+03  0.00000000000E+00 0. -1.
         22    1    3    3    0    0  0.21954063191E+02  0.72501750612E+02  0.10457077719E+03  0.12912603213E+03  0.00000000000E+00 0.  1.
         22    1    3    3    0    0  0.23713275613E+02  0.11973435039E+03 -0.11335163380E+02  0.12258515421E+03  0.00000000000E+00 0.  1.
</event>
<event>
 7    1  0.5977291E-006  0.2655414E+03  0.7818608E-02  0.1218465E+00
          2   -1    0    0  502    0  0.00000000000E+00  0.00000000000E+00  0.24783697069E+04  0.24783697069E+04  0.00000000000E+00 0. -1.
          1   -1    0    0  501    0 -0.00000000000E+00 -0.00000000000E+00 -0.40753390316E+03  0.40753390316E+03  0.00000000000E+00 0. -1.
         25    2    1    2    0    0 -0.23247411672E+03  0.19975732606E+03  0.95619234194E+03  0.10118691959E+04  0.12501308145E+03 0.  0.
          2    1    1    2  501    0  0.22969870700E+03 -0.12990160195E+03 -0.33289991423E+03  0.42480380775E+03  0.00000000000E+00 0. -1.
          1    1    1    2  502    0  0.27754097157E+01 -0.69855724112E+02  0.14475433761E+04  0.14492306065E+04  0.00000000000E+00 0. -1.
         22    1    3    3    0    0 -0.22221966424E+03  0.13264908341E+03  0.81689046547E+03  0.85690570723E+03  0.00000000000E+00 0.  1.
         22    1    3    3    0    0 -0.10254452475E+02  0.67108242658E+02  0.13930187646E+03  0.15496348865E+03  0.00000000000E+00 0.  1.
</event>
<event>
 7    1  0.5977291E-006  0.1167352E+03  0.7818608E-02  0.1421581E+00
          2   -1    0    0  502    0  0.00000000000E+00  0.00000000000E+00  0.17170810870E+04  0.17170810870E+04  0.00000000000E+00 0. -1.
          1   -1    0    0  501    0 -0.00000000000E+00 -0.00000000000E+00 -0.98613515656E+03  0.98613515656E+03  0.00000000000E+00 0. -1.
         25    2    1    2    0    0 -0.69038303616E+02  0.10713652324E+03  0.79662586438E+02  0.19548833350E+03  0.12500015552E+03 0.  0.
          2    1    1    2  501    0  0.25605016908E+02  0.87800506097E+00 -0.92589962011E+03  0.92625401176E+03  0.00000000000E+00 0. -1.
          1    1    1    2  502    0  0.43433286709E+02 -0.10801452830E+03  0.15771829641E+04  0.15814738982E+04  0.00000000000E+00 0. -1.
         22    1    3    3    0    0 -0.86863325089E+02  0.60979117249E+02  0.54205823123E+01  0.10626886985E+03  0.00000000000E+00 0.  1.
         22    1    3    3    0    0  0.17825021473E+02  0.46157405991E+02  0.74242004126E+02  0.89219463655E+02  0.00000000000E+00 0.  1.
</event>
<event>
 7    1  0.5977291E-006  0.1648678E+03  0.7818608E-02  0.1358389E+00
          2   -1    0    0  502    0  0.00000000000E+00  0.00000000000E+00  0.69373488189E+03  0.69373488189E+03  0.00000000000E+00 0. -1.
          1   -1    0    0  501    0 -0.00000000000E+00 -0.00000000000E+00 -0.11756942878E+03  0.11756942878E+03  0.00000000000E+00 0. -1.
         25    2    1    2    0    0  0.17982809894E+03 -0.56653642423E+02  0.90928739357E+02  0.24380634457E+03  0.12500287055E+03 0.  0.
          2    1    1    2  501    0 -0.23159213515E+02  0.19304765151E+02 -0.20681593932E+02  0.36561611777E+02  0.00000000000E+00 0. -1.
          1    1    1    2  502    0 -0.15666888542E+03  0.37348877272E+02  0.50591830768E+03  0.53093635432E+03  0.00000000000E+00 0. -1.
         22    1    3    3    0    0  0.11331689408E+03 -0.89858127912E+01 -0.97238748387E+01  0.11408776033E+03  0.00000000000E+00 0.  1.
         22    1    3    3    0    0  0.66511204853E+02 -0.47667829632E+02  0.10065261420E+03  0.12971858424E+03  0.00000000000E+00 0.  1.
</event>
<event>
 7    1  0.5977291E-006  0.8476201E+02  0.7818608E-02  0.1392442E+00
          2   -1    0    0  502    0  0.00000000000E+00  0.00000000000E+00  0.25989550717E+03  0.25989550717E+03  0.00000000000E+00 0. -1.
          1   -1    0    0  501    0 -0.00000000000E+00 -0.00000000000E+00 -0.31488870329E+03  0.31488870329E+03  0.00000000000E+00 0. -1.
         25    2    1    2    0    0  0.85359575593E+02  0.68125995741E+02  0.20283533034E+02  0.16723031186E+03  0.12500858791E+03 0.  0.
          2    1    1    2  501    0 -0.68105997153E+01 -0.43811098970E+02 -0.22898295654E+03  0.23323591286E+03  0.00000000000E+00 0. -1.
          1    1    1    2  502    0 -0.78548975877E+02 -0.24314896772E+02  0.15370622739E+03  0.17431798575E+03  0.00000000000E+00 0. -1.
         22    1    3    3    0    0 -0.16185996308E+02 -0.20739313084E+02 -0.11319726661E+02  0.28639863746E+02  0.00000000000E+00 0. -1.
         22    1    3    3    0    0  0.10154557190E+03  0.88865308826E+02  0.31603259695E+02  0.13859044811E+03  0.00000000000E+00 0. -1.
</event>
<event>
 7    1  0.5977291E-006  0.9185141E+02  0.7818608E-02  0.1351787E+00
          2   -1    0    0  502    0  0.00000000000E+00  0.00000000000E+00  0.12404762806E+03  0.12404762806E+03  0.00000000000E+00 0. -1.
          1   -1    0    0  501    0 -0.00000000000E+00 -0.00000000000E+00 -0.16202307406E+04  0.16202307406E+04  0.00000000000E+00 0. -1.
         25    2    1    2    0    0 -0.36442341089E+02  0.89613335777E+01 -0.51306782309E+03  0.52940719619E+03  0.12500015424E+03 0.  0.
          2    1    1    2  501    0 -0.57183459189E+02 -0.22641667181E+01 -0.10791013622E+04  0.10806177975E+04  0.00000000000E+00 0. -1.
          1    1    1    2  502    0  0.93625800278E+02 -0.66971668597E+01  0.95986072751E+02  0.13425337494E+03  0.00000000000E+00 0. -1.
         22    1    3    3    0    0 -0.31258140369E+02  0.65525390537E+02 -0.32154399249E+03  0.32963796391E+03  0.00000000000E+00 0. -1.
         22    1    3    3    0    0 -0.51842007203E+01 -0.56564056959E+02 -0.19152383060E+03  0.19976923228E+03  0.00000000000E+00 0. -1.
</event>
<event>
 7    1  0.5977291E-006  0.6409420E+02  0.7818608E-02  0.1506432E+00
          2   -1    0    0  502    0  0.00000000000E+00  0.00000000000E+00  0.10065148545E+04  0.10065148545E+04  0.00000000000E+00 0. -1.
          1   -1    0    0  501    0 -0.00000000000E+00 -0.00000000000E+00 -0.34074533022E+02  0.34074533022E+02  0.00000000000E+00 0. -1.
         25    2    1    2    0    0  0.92057498550E+01  0.47599984785E+02  0.20757766855E+03  0.24711181710E+03  0.12500102913E+03 0.  0.
          2    1    1    2  501    0 -0.18604780603E+02  0.17096708660E+02 -0.55468241574E+00  0.25273365048E+02  0.00000000000E+00 0. -1.
          1    1    1    2  502    0  0.93990307477E+01 -0.64696693444E+02  0.76541733532E+03  0.76820420536E+03  0.00000000000E+00 0. -1.
         22    1    3    3    0    0 -0.27379115836E+02  0.78110479283E+02  0.10254831315E+03  0.13178398798E+03  0.00000000000E+00 0. -1.
         22    1    3    3    0    0  0.36584865691E+02 -0.30510494498E+02  0.10502935541E+03  0.11532782912E+03  0.00000000000E+00 0. -1.
</event>
<event>
 7    1  0.5977291E-006  0.6226509E+02  0.7818608E-02  0.1481033E+00
          2   -1    0    0  502    0  0.00000000000E+00  0.00000000000E+00  0.51665948864E+02  0.51665948864E+02  0.00000000000E+00 0. -1.
          1   -1    0    0  501    0 -0.00000000000E+00 -0.00000000000E+00 -0.27793935858E+04  0.27793935858E+04  0.00000000000E+00 0. -1.
         25    2    1    2    0    0 -0.34400342931E+02 -0.50185122356E+01 -0.79976892753E+03  0.81022485115E+03  0.12500161164E+03 0.  0.
          2    1    1    2  501    0  0.62627684488E+02  0.17872020087E+02 -0.19686185010E+04  0.19696955192E+04  0.00000000000E+00 0. -1.
          1    1    1    2  502    0 -0.28227341557E+02 -0.12853507852E+02  0.40659791578E+02  0.51139164313E+02  0.00000000000E+00 0. -1.
         22    1    3    3    0    0 -0.54782818665E+02 -0.43865355430E+02 -0.28203428689E+03  0.29063493529E+03  0.00000000000E+00 0.  1.
         22    1    3    3    0    0  0.20382475734E+02  0.38846843194E+02 -0.51773464064E+03  0.51958991586E+03  0.00000000000E+00 0.  1.
</event>
<event>
 7    1  0.5977291E-006  0.1393079E+03  0.7818608E-02  0.1383878E+00
          2   -1    0    0  502    0  0.00000000000E+00  0.00000000000E+00  0.63421258976E+03  0.63421258976E+03  0.00000000000E+00 0. -1.
          1   -1    0    0  501    0 -0.00000000000E+00 -0.00000000000E+00 -0.11501277065E+03  0.11501277065E+03  0.00000000000E+00 0. -1.
         25    2    1    2    0    0  0.11037477565E+03  0.12174752655E+03  0.33292726080E+03  0.39175283431E+03  0.12499868351E+03 0.  0.
          2    1    1    2  501    0 -0.92911613474E+02 -0.98715162982E+02 -0.30359531111E+02  0.13892066963E+03  0.00000000000E+00 0. -1.
          1    1    1    2  502    0 -0.17463162178E+02 -0.23032363565E+02  0.21663208942E+03  0.21855185648E+03  0.00000000000E+00 0. -1.
         22    1    3    3    0    0  0.16030243317E+02  0.68001998774E+02  0.23627221520E+03  0.24638547078E+03  0.00000000000E+00 0. -1.
         22    1    3    3    0    0  0.94344532335E+02  0.53745527773E+02  0.96655045608E+02  0.14536736353E+03  0.00000000000E+00 0. -1.
</event>
<event>
 7    1  0.5977291E-006  0.7743840E+02  0.7818608E-02  0.1382678E+00
          2   -1    0    0  502    0  0.00000000000E+00  0.00000000000E+00  0.12940511126E+04  0.12940511126E+04  0.00000000000E+00 0. -1.
          1   -1    0    0  501    0 -0.00000000000E+00 -0.00000000000E+00 -0.35248940774E+03  0.35248940774E+03  0.00000000000E+00 0. -1.
         25    2    1    2    0    0 -0.54513231301E+02  0.15410228194E+02  0.53284772367E+03  0.55023776116E+03  0.12500291863E+03 0.  0.
          2    1    1    2  501    0  0.69437003280E+02  0.34930340108E+02 -0.33846794768E+03  0.34727824247E+03  0.00000000000E+00 0. -1.
          1    1    1    2  502    0 -0.14923771978E+02 -0.50340568303E+02  0.74718192889E+03  0.74902451672E+03  0.00000000000E+00 0. -1.
         22    1    3    3    0    0  0.24246403898E+02  0.28163476825E+02  0.33276795042E+03  0.33483664429E+03  0.00000000000E+00 0. -1.
         22    1    3    3    0    0 -0.78759635199E+02 -0.12753248630E+02  0.20007977325E+03  0.21540111687E+03  0.00000000000E+00 0. -1.
</event>
<event>
 7    1  0.5977291E-006  0.1327199E+03  0.7818608E-02  0.1385584E+00
          2   -1    0    0  502    0  0.00000000000E+00  0.00000000000E+00  0.74793334596E+03  0.74793334596E+03  0.00000000000E+00 0. -1.
          1   -1    0    0  501    0 -0.00000000000E+00 -0.00000000000E+00 -0.46420468021E+02  0.46420468021E+02  0.00000000000E+00 0. -1.
         25    2    1    2    0    0 -0.30294593590E+01 -0.15343610259E+03  0.28171424246E+03  0.34428335335E+03  0.12496518632E+03 0.  0.
          2    1    1    2  501    0  0.27568726053E+01  0.29795461079E+02  0.15455773336E+03  0.15742764303E+03  0.00000000000E+00 0. -1.
          1    1    1    2  502    0  0.27258675364E+00  0.12364064151E+03  0.26524090212E+03  0.29264281760E+03  0.00000000000E+00 0. -1.
         22    1    3    3    0    0  0.36362956823E+01 -0.17334420985E+03  0.22671963231E+03  0.28541764033E+03  0.00000000000E+00 0.  1.
         22    1    3    3    0    0 -0.66657550412E+01  0.19908107261E+02  0.54994610144E+02  0.58865713025E+02  0.00000000000E+00 0.  1.
</event>
<event>
 7    1  0.5977291E-006  0.4460082E+02  0.7818608E-02  0.1558801E+00
          2   -1    0    0  502    0  0.00000000000E+00  0.00000000000E+00  0.30880710619E+04  0.30880710619E+04  0.00000000000E+00 0. -1.
          1   -1    0    0  501    0 -0.00000000000E+00 -0.00000000000E+00 -0.59071403521E+01  0.59071403521E+01  0.00000000000E+00 0. -1.
         25    2    1    2    0    0 -0.68625821025E+01  0.31427472486E+02  0.11122680990E+04  0.11197321138E+04  0.12499960639E+03 0.  0.
          2    1    1    2  501    0 -0.13897561302E+02 -0.46631684940E+02  0.28290638758E+03  0.28706041243E+03  0.00000000000E+00 0. -1.
          1    1    1    2  502    0  0.20760143405E+02  0.15204212455E+02  0.16869894349E+04  0.16871856759E+04  0.00000000000E+00 0. -1.
         22    1    3    3    0    0  0.59100611332E+02  0.15658426524E+02  0.50420765617E+03  0.50790100327E+03  0.00000000000E+00 0. -1.
         22    1    3    3    0    0 -0.65963193434E+02  0.15769045962E+02  0.60806044286E+03  0.61183111058E+03  0.00000000000E+00 0. -1.
</event>
<event>
 7    1  0.5977291E-006  0.1022644E+03  0.7818608E-02  0.1463072E+00
          2   -1    0    0  502    0  0.00000000000E+00  0.00000000000E+00  0.99255810141E+03  0.99255810141E+03  0.00000000000E+00 0. -1.
          1   -1    0    0  501    0 -0.00000000000E+00 -0.00000000000E+00 -0.75545509905E+02  0.75545509905E+02  0.00000000000E+00 0. -1.
         25    2    1    2    0    0  0.58852111636E+02  0.87467564502E+02  0.60109108852E+03  0.62293597498E+03  0.12499834533E+03 0.  0.
          2    1    1    2  501    0  0.13440538742E+02 -0.16741826039E+02 -0.55876843732E+02  0.59859489526E+02  0.00000000000E+00 0. -1.
          1    1    1    2  502    0 -0.72292650378E+02 -0.70725738464E+02  0.37179834672E+03  0.38530814682E+03  0.00000000000E+00 0. -1.
         22    1    3    3    0    0  0.68147933210E+02  0.56269541090E+02  0.57348058440E+03  0.58025027595E+03  0.00000000000E+00 0.  1.
         22    1    3    3    0    0 -0.92958215736E+01  0.31198023412E+02  0.27610504120E+02  0.42685699026E+02  0.00000000000E+00 0.  1.
</event>
<event>
 7    1  0.5977291E-006  0.1073471E+03  0.7818608E-02  0.1322207E+00
          2   -1    0    0  502    0  0.00000000000E+00  0.00000000000E+00  0.88752368514E+02  0.88752368514E+02  0.00000000000E+00 0. -1.
          1   -1    0    0  501    0 -0.00000000000E+00 -0.00000000000E+00 -0.24068144800E+04  0.24068144800E+04  0.00000000000E+00 0. -1.
         25    2    1    2    0    0 -0.14355260095E+03  0.63945266521E+02 -0.11940712500E+04  0.12108375205E+04  0.12500001849E+03 0.  0.
          2    1    1    2  501    0  0.81599321442E+02 -0.50737146270E+02 -0.11896327673E+04  0.11935069453E+04  0.00000000000E+00 0. -1.
          1    1    1    2  502    0  0.61953279511E+02 -0.13208120252E+02  0.65641905940E+02  0.91222382661E+02  0.00000000000E+00 0. -1.
         22    1    3    3    0    0 -0.42764680678E+02 -0.37980442277E+02 -0.36925651729E+03  0.37365988207E+03  0.00000000000E+00 0. -1.
         22    1    3    3    0    0 -0.10078792028E+03  0.10192570880E+03 -0.82481473274E+03  0.83717763846E+03  0.00000000000E+00 0. -1.
</event>
<event>
 7    1  0.5977291E-006  0.8614463E+02  0.7818608E-02  0.1456786E+00
          2   -1    0    0  502    0  0.00000000000E+00  0.00000000000E+00  0.10161933099E+04  0.10161933099E+04  0.00000000000E+00 0. -1.
          1   -1    0    0  501    0 -0.00000000000E+00 -0.00000000000E+00 -0.15838453893E+03  0.15838453893E+03  0.00000000000E+00 0. -1.
         25    2    1    2    0    0 -0.75769302094E+02 -0.20202834079E+02  0.64575396221E+03  0.66239860113E+03  0.12499834172E+03 0.  0.
          2    1    1    2  501    0 -0.17140482534E+02  0.20442666832E+02 -0.14284734711E+03  0.14531711305E+03  0.00000000000E+00 0. -1.
          1    1    1    2  502    0  0.92909784628E+02 -0.23983275371E+00  0.35490215587E+03  0.36686213465E+03  0.00000000000E+00 0. -1.
         22    1    3    3    0    0 -0.91410645577E+02 -0.27883592294E+02  0.27312668991E+03  0.28936411247E+03  0.00000000000E+00 0. -1.
         22    1    3    3    0    0  0.15641343484E+02  0.76807582150E+01  0.37262727230E+03  0.37303448866E+03  0.00000000000E+00 0. -1.
</event>
<event>
 7    1  0.5977291E-006  0.4230274E+02  0.7818608E-02  0.1498883E+00
          2   -1    0    0  502    0  0.00000000000E+00  0.00000000000E+00  0.22906714057E+04  0.22906714057E+04  0.00000000000E+00 0. -1.
          1   -1    0    0  501    0 -0.00000000000E+00 -0.00000000000E+00 -0.62990033233E+02  0.62990033233E+02  0.00000000000E+00 0. -1.
         25    2    1    2    0    0  0.73650690442E+02  0.78054035429E+01  0.29164990541E+03  0.32583925403E+03  0.12500481437E+03 0.  0.
          2    1    1    2  501    0 -0.35658591951E+02 -0.21288973741E+02 -0.36251974990E+02  0.55126774561E+02  0.00000000000E+00 0. -1.
          1    1    1    2  502    0 -0.37992098491E+02  0.13483570198E+02  0.19722834421E+04  0.19726954104E+04  0.00000000000E+00 0. -1.
         22    1    3    3    0    0  0.64752573225E+02 -0.19157666432E+02  0.28960376947E+03  0.29737225024E+03  0.00000000000E+00 0. -1.
         22    1    3    3    0    0  0.88981172164E+01  0.26963069975E+02  0.20461359402E+01  0.28467003789E+02  0.00000000000E+00 0. -1.
</event>
<event>
 7    1  0.5977291E-006  0.1180317E+03  0.7818608E-02  0.1327087E+00
          2   -1    0    0  502    0  0.00000000000E+00  0.00000000000E+00  0.18175528791E+04  0.18175528791E+04  0.00000000000E+00 0. -1.
          1   -1    0    0  501    0 -0.00000000000E+00 -0.00000000000E+00 -0.20059296744E+03  0.20059296744E+03  0.00000000000E+00 0. -1.
         25    2    1    2    0    0  0.97581538567E+02  0.13363459733E+03  0.40250477804E+03  0.45278573250E+03  0.12499784374E+03 0.  0.
          2    1    1    2  501    0 -0.43998717229E+02 -0.33285622526E+02 -0.16872182656E+03  0.17751302640E+03  0.00000000000E+00 0. -1.
          1    1    1    2  502    0 -0.53582821339E+02 -0.10034897480E+03  0.13831769602E+04  0.13878470876E+04  0.00000000000E+00 0. -1.
         22    1    3    3    0    0  0.19561570775E+02  0.10687151208E+03  0.31179459702E+03  0.33018183759E+03  0.00000000000E+00 0.  1.
         22    1    3    3    0    0  0.78019967793E+02  0.26763085253E+02  0.90710181017E+02  0.12260389491E+03  0.00000000000E+00 0.  1.
</event>
<event>
 7    1  0.5977291E-006  0.1758035E+03  0.7818608E-02  0.1278341E+00
          2   -1    0    0  502    0  0.00000000000E+00  0.00000000000E+00  0.96798788303E+03  0.96798788303E+03  0.00000000000E+00 0. -1.
          1   -1    0    0  501    0 -0.00000000000E+00 -0.00000000000E+00 -0.19457289809E+04  0.19457289809E+04  0.00000000000E+00 0. -1.
         25    2    1    2    0    0 -0.15170758061E+03 -0.38615152257E+02 -0.18579277397E+03  0.27322003273E+03  0.12499564563E+03 0.  0.
          2    1    1    2  501    0  0.17816643272E+03 -0.12942848795E+02 -0.17106587430E+04  0.17199605025E+04  0.00000000000E+00 0. -1.
          1    1    1    2  502    0 -0.26458852106E+02  0.51558001052E+02  0.91871041910E+03  0.92053632872E+03  0.00000000000E+00 0. -1.
         22    1    3    3    0    0 -0.16933270851E+03 -0.15956648033E+02 -0.14599103313E+03  0.22414629719E+03  0.00000000000E+00 0.  1.
         22    1    3    3    0    0  0.17625127894E+02 -0.22658504224E+02 -0.39801740833E+02  0.49073735544E+02  0.00000000000E+00 0.  1.
</event>
<event>
 7    1  0.5977291E-006  0.1348741E+03  0.7818608E-02  0.1302338E+00
          2   -1    0    0  502    0  0.00000000000E+00  0.00000000000E+00  0.10431763248E+04  0.10431763248E+04  0.00000000000E+00 0. -1.
          1   -1    0    0  501    0 -0.00000000000E+00 -0.00000000000E+00 -0.75793757583E+02  0.75793757583E+02  0.00000000000E+00 0. -1.
         25    2    1    2    0    0 -0.16071386882E+03 -0.31111880834E+02  0.17874176688E+03  0.27272183440E+03  0.12502672902E+03 0.  0.
          2    1    1    2  501    0  0.11970885861E+03 -0.13154039434E+02  0.10448757108E+03  0.15943930536E+03  0.00000000000E+00 0. -1.
          1    1    1    2  502    0  0.41005010209E+02  0.44265920268E+02  0.68415322927E+03  0.68680894263E+03  0.00000000000E+00 0. -1.
         22    1    3    3    0    0 -0.10450744616E+03  0.10648006501E+01  0.17977675016E+03  0.20794859942E+03  0.00000000000E+00 0.  1.
         22    1    3    3    0    0 -0.56206422663E+02 -0.32176681484E+02 -0.10349832732E+01  0.64773234984E+02  0.00000000000E+00 0.  1.
</event>
<event>
 7    1  0.1224919E-005  0.4887147E+02  0.7818608E-02  0.1512645E+00
          2   -1    0    0  502    0  0.00000000000E+00  0.00000000000E+00  0.24856866648E+04  0.24856866648E+04  0.00000000000E+00 0. -1.
          1   -1    0    0  501    0 -0.00000000000E+00 -0.00000000000E+00 -0.17082119048E+04  0.17082119048E+04  0.00000000000E+00 0. -1.
         25    2    1    2    0    0  0.63193665121E+02  0.48122331427E+02 -0.24391186328E+03  0.28535436876E+03  0.12499968251E+03 0.  0.
          2    1    1    2  501    0 -0.28776254178E+02 -0.13464006575E+02 -0.14431619753E+04  0.14435116346E+04  0.00000000000E+00 0. -1.
          1    1    1    2  502    0 -0.34417410943E+02 -0.34658324852E+02  0.24645485986E+04  0.24650325662E+04  0.00000000000E+00 0. -1.
         22    1    3    3    0    0  0.54257468830E+02  0.19685598507E+02 -0.24857147960E+03  0.25518459237E+03  0.00000000000E+00 0. -1.
         22    1    3    3    0    0  0.89361962907E+01  0.28436732920E+02  0.46596163162E+01  0.30169776392E+02  0.00000000000E+00 0. -1.
</event>
<event>
 7    1  0.5977291E-006  0.1381645E+03  0.7818608E-02  0.1413733E+00
          2   -1    0    0  502    0  0.00000000000E+00  0.00000000000E+00  0.20543585294E+03  0.20543585294E+03  0.00000000000E+00 0. -1.
          1   -1    0    0  501    0 -0.00000000000E+00 -0.00000000000E+00 -0.38507795634E+03  0.38507795634E+03  0.00000000000E+00 0. -1.
         25    2    1    2    0    0 -0.13162535034E+03  0.66392521041E+02 -0.18531239624E+03  0.26776640435E+03  0.12499985357E+03 0.  0.
          2    1    1    2  501    0  0.15281921987E+01 -0.22946962533E+02 -0.12869877590E+03  0.13073742149E+03  0.00000000000E+00 0. -1.
          1    1    1    2  502    0  0.13009715814E+03 -0.43445558508E+02  0.13436906874E+03  0.19200998345E+03  0.00000000000E+00 0. -1.
         22    1    3    3    0    0 -0.55530197222E+02  0.73804992444E+02 -0.34341662321E+02  0.98539989264E+02  0.00000000000E+00 0. -1.
         22    1    3    3    0    0 -0.76095153121E+02 -0.74124714035E+01 -0.15097073392E+03  0.16922641508E+03  0.00000000000E+00 0. -1.
</event>
<event>
 7    1  0.5977291E-006  0.1311243E+03  0.7818608E-02  0.1360525E+00
          2   -1    0    0  502    0  0.00000000000E+00  0.00000000000E+00  0.13783884432E+03  0.13783884432E+03  0.00000000000E+00 0. -1.
          1   -1    0    0  501    0 -0.00000000000E+00 -0.00000000000E+00 -0.22656636632E+04  0.22656636632E+04  0.00000000000E+00 0. -1.
         25    2    1    2    0    0  0.91156215696E+02 -0.59165050281E+02 -0.15398389667E+03  0.22615515796E+03  0.12500062481E+03 0.  0.
          2    1    1    2  501    0 -0.91073492895E+02  0.96398878952E+02 -0.20699935183E+04  0.20742372793E+04  0.00000000000E+00 0. -1.
          1    1    1    2  502    0 -0.82722800624E-01 -0.37233828671E+02  0.96152596131E+02  0.10311007023E+03  0.00000000000E+00 0. -1.
         22    1    3    3    0    0  0.33907682122E+02 -0.51448322515E+02 -0.15664460883E+03  0.16832763965E+03  0.00000000000E+00 0.  1.
         22    1    3    3    0    0  0.57248533574E+02 -0.77167277662E+01  0.26607121611E+01  0.57827518302E+02  0.00000000000E+00 0.  1.
</event>
<event>
 7    1  0.5977291E-006  0.1250807E+03  0.7818608E-02  0.1348608E+00
          2   -1    0    0  502    0  0.00000000000E+00  0.00000000000E+00  0.37308409453E+03  0.37308409453E+03  0.00000000000E+00 0. -1.
          1   -1    0    0  501    0 -0.00000000000E+00 -0.00000000000E+00 -0.32395112735E+04  0.32395112735E+04  0.00000000000E+00 0. -1.
         25    2    1    2    0    0 -0.92906235116E+02 -0.13572372536E+03 -0.60224107962E+03  0.63668727915E+03  0.12499550114E+03 0.  0.
          2    1    1    2  501    0  0.34608140405E+02  0.25822136969E+02 -0.26089900393E+04  0.26093473381E+04  0.00000000000E+00 0. -1.
          1    1    1    2  502    0  0.58298094711E+02  0.10990158840E+03  0.34480393992E+03  0.36656075071E+03  0.00000000000E+00 0. -1.
         22    1    3    3    0    0 -0.28095077198E+02 -0.12004046573E+03 -0.25668759026E+03  0.28475878523E+03  0.00000000000E+00 0. -1.
         22    1    3    3    0    0 -0.64811157919E+02 -0.15683259634E+02 -0.34555348936E+03  0.35192849392E+03  0.00000000000E+00 0. -1.
</event>
<event>
 7    1  0.5977291E-006  0.5532612E+02  0.7818608E-02  0.1521491E+00
          2   -1    0    0  502    0  0.00000000000E+00  0.00000000000E+00  0.14640276373E+03  0.14640276373E+03  0.00000000000E+00 0. -1.
          1   -1    0    0  501    0 -0.00000000000E+00 -0.00000000000E+00 -0.99810762108E+03  0.99810762108E+03  0.00000000000E+00 0. -1.
         25    2    1    2    0    0  0.49269945994E+02  0.57810077202E+02 -0.60235745890E+03  0.61986208137E+03  0.12499983608E+03 0.  0.
          2    1    1    2  501    0 -0.39115111503E+02 -0.33391659283E+02 -0.38399726155E+03  0.38742598226E+03  0.00000000000E+00 0. -1.
          1    1    1    2  502    0 -0.10154834491E+02 -0.24418417919E+02  0.13464986310E+03  0.13722232118E+03  0.00000000000E+00 0. -1.
         22    1    3    3    0    0  0.50530102804E+02 -0.26998387475E+02 -0.31819104277E+03  0.32330750674E+03  0.00000000000E+00 0.  1.
         22    1    3    3    0    0 -0.12601568100E+01  0.84808464677E+02 -0.28416641614E+03  0.29655457464E+03  0.00000000000E+00 0.  1.
</event>
<event>
 7    1  0.5977291E-006  0.4976432E+02  0.7818608E-02  0.1533217E+00
          2   -1    0    0  502    0  0.00000000000E+00  0.00000000000E+00  0.98763227053E+03  0.98763227053E+03  0.00000000000E+00 0. -1.
          1   -1    0    0  501    0 -0.00000000000E+00 -0.00000000000E+00 -0.80360556277E+02  0.80360556277E+02  0.00000000000E+00 0. -1.
         25    2    1    2    0    0  0.64854086754E+01 -0.37628779379E+02  0.15768544859E+03  0.20481215344E+03  0.12500132773E+03 0.  0.
          2    1    1    2  501    0  0.27204452197E+02  0.21801567550E+00 -0.52704519983E+02  0.59311855280E+02  0.00000000000E+00 0. -1.
          1    1    1    2  502    0 -0.33689860872E+02  0.37410763704E+02  0.80229078564E+03  0.80386881809E+03  0.00000000000E+00 0. -1.
         22    1    3    3    0    0 -0.18424623689E+02 -0.67740126898E+02  0.14910124694E+03  0.16480101149E+03  0.00000000000E+00 0.  1.
         22    1    3    3    0    0  0.24910032364E+02  0.30111347519E+02  0.85842016525E+01  0.40011141945E+02  0.00000000000E+00 0.  1.
</event>
<event>
 7    1  0.5977291E-006  0.4269577E+02  0.7818608E-02  0.1547110E+00
          2   -1    0    0  502    0  0.00000000000E+00  0.00000000000E+00  0.11287849963E+04  0.11287849963E+04  0.00000000000E+00 0. -1.
          1   -1    0    0  501    0 -0.00000000000E+00 -0.00000000000E+00 -0.22128832514E+03  0.22128832514E+03  0.00000000000E+00 0. -1.
         25    2    1    2    0    0  0.29187070657E+02  0.14975451322E+02  0.12758852084E+03  0.18160144709E+03  0.12499642274E+03 0.  0.
          2    1    1    2  501    0 -0.41478299715E+02  0.11255846614E+02 -0.19168645771E+03  0.19644551789E+03  0.00000000000E+00 0. -1.
          1    1    1    2  502    0  0.12291229058E+02 -0.26231297936E+02  0.97159460805E+03  0.97202635649E+03  0.00000000000E+00 0. -1.
         22    1    3    3    0    0 -0.56531568026E+00 -0.42400288329E+02  0.45844425412E+01  0.42651156439E+02  0.00000000000E+00 0. -1.
         22    1    3    3    0    0  0.29752386337E+02  0.57375739651E+02  0.12300407830E+03  0.13895029065E+03  0.00000000000E+00 0. -1.
</event>
<event>
 7    1  0.5977291E-006  0.5376179E+02  0.7818608E-02  0.1458249E+00
          2   -1    0    0  502    0  0.00000000000E+00  0.00000000000E+00  0.17050578276E+04  0.17050578276E+04  0.00000000000E+00 0. -1.
          1   -1    0    0  501    0 -0.00000000000E+00 -0.00000000000E+00 -0.47537307539E+02  0.47537307539E+02  0.00000000000E+00 0. -1.
         25    2    1    2    0    0  0.76627773310E+02 -0.52251356757E+02  0.38576127337E+03  0.41597816722E+03  0.12499622253E+03 0.  0.
          2    1    1    2  501    0 -0.46701187302E+02  0.22365892140E+02 -0.11185746457E+02  0.52975040825E+02  0.00000000000E+00 0. -1.
          1    1    1    2  502    0 -0.29926586008E+02  0.29885464617E+02  0.12829449932E+04  0.12836419271E+04  0.00000000000E+00 0. -1.
         22    1    3    3    0    0  0.81241930886E+02 -0.84819872582E+02  0.24890287688E+03  0.27522228151E+03  0.00000000000E+00 0.  1.
         22    1    3    3    0    0 -0.46141575766E+01  0.32568515826E+02  0.13685839649E+03  0.14075588571E+03  0.00000000000E+00 0.  1.
</event>
<event>
 7    1  0.5977291E-006  0.1393589E+03  0.7818608E-02  0.1324595E+00
          2   -1    0    0  502    0  0.00000000000E+00  0.00000000000E+00  0.33609679960E+03  0.33609679960E+03  0.00000000000E+00 0. -1.
          1   -1    0    0  501    0 -0.00000000000E+00 -0.00000000000E+00 -0.23255580824E+04  0.23255580824E+04  0.00000000000E+00 0. -1.
         25    2    1    2    0    0  0.30112956317E+02 -0.16069786981E+03 -0.29001624393E+03  0.35561951929E+03  0.12500090101E+03 0.  0.
          2    1    1    2  501    0 -0.42001727059E+02  0.22755757282E+02 -0.19866371857E+04  0.19872114325E+04  0.00000000000E+00 0. -1.
          1    1    1    2  502    0  0.11888770742E+02  0.13794211252E+03  0.28719214687E+03  0.31882393025E+03  0.00000000000E+00 0. -1.
         22    1    3    3    0    0 -0.28159641027E+02  0.63606141015E+01 -0.41648832394E+02  0.50675911776E+02  0.00000000000E+00 0. -1.
         22    1    3    3    0    0  0.58272597345E+02 -0.16705848391E+03 -0.24836741154E+03  0.30494360751E+03  0.00000000000E+00 0. -1.
</event>
<event>
 7    1  0.5977291E-006  0.1102667E+03  0.7818608E-02  0.1360944E+00
          2   -1    0    0  502    0  0.00000000000E+00  0.00000000000E+00  0.69631009162E+03  0.69631009162E+03  0.00000000000E+00 0. -1.
          1   -1    0    0  501    0 -0.00000000000E+00 -0.00000000000E+00 -0.15126017550E+03  0.15126017550E+03  0.00000000000E+00 0. -1.
         25    2    1    2    0    0  0.20693965652E+02 -0.14703728274E+03  0.44118591995E+03  0.48199311779E+03  0.12499658758E+03 0.  0.
          2    1    1    2  501    0 -0.30595619592E+02  0.10404121938E+03 -0.10568919531E+03  0.15142943331E+03  0.00000000000E+00 0. -1.
          1    1    1    2  502    0  0.99016539402E+01  0.42996063355E+02  0.20955319148E+03  0.21414771601E+03  0.00000000000E+00 0. -1.
         22    1    3    3    0    0 -0.29410401039E+02  0.38895451430E+01  0.35573663658E+02  0.46320468442E+02  0.00000000000E+00 0. -1.
         22    1    3    3    0    0  0.50104366691E+02 -0.15092682788E+03  0.40561225629E+03  0.43567264935E+03  0.00000000000E+00 0. -1.
</event>
<event>
 7    1  0.5977291E-006  0.1603133E+03  0.7818608E-02  0.1388754E+00
          2   -1    0    0  502    0  0.00000000000E+00  0.00000000000E+00  0.13096901531E+04  0.13096901531E+04  0.00000000000E+00 0. -1.
          1   -1    0    0  501    0 -0.00000000000E+00 -0.00000000000E+00 -0.96841237746E+02  0.96841237746E+02  0.00000000000E+00 0. -1.
         25    2    1    2    0    0 -0.44102436035E+02  0.17430480968E+03  0.76035988413E+03  0.79126685858E+03  0.12501558524E+03 0.  0.
          2    1    1    2  501    0  0.28583852716E+02 -0.15580510694E+03 -0.36885406839E+01  0.15844833012E+03  0.00000000000E+00 0. -1.
          1    1    1    2  502    0  0.15518583319E+02 -0.18499702737E+02  0.45617757194E+03  0.45681620218E+03  0.00000000000E+00 0. -1.
         22    1    3    3    0    0 -0.73698744810E+01  0.54258955763E+01  0.29026151186E+03  0.29040575177E+03  0.00000000000E+00 0. -1.
         22    1    3    3    0    0 -0.36732561554E+02  0.16887891410E+03  0.47009837227E+03  0.50086110681E+03  0.00000000000E+00 0. -1.
</event>
<event>
 7    1  0.5977291E-006  0.1127023E+03  0.7818608E-02  0.1371229E+00
          2   -1    0    0  502    0  0.00000000000E+00  0.00000000000E+00  0.73493308048E+03  0.73493308048E+03  0.00000000000E+00 0. -1.
          1   -1    0    0  501    0 -0.00000000000E+00 -0.00000000000E+00 -0.56464087876E+03  0.56464087876E+03  0.00000000000E+00 0. -1.
         25    2    1    2    0    0 -0.14963760595E+03 -0.90001897710E+01 -0.35491809683E+02  0.19838360726E+03  0.12499588212E+03 0.  0.
          2    1    1    2  501    0  0.38432092744E+02  0.96486315340E+01 -0.44207941436E+03  0.44385169871E+03  0.00000000000E+00 0. -1.
          1    1    1    2  502    0  0.11120551320E+03 -0.64844176302E+00  0.64786342576E+03  0.65733865327E+03  0.00000000000E+00 0. -1.
         22    1    3    3    0    0 -0.11429393293E+03  0.39301958420E+02  0.12718424510E+02  0.12152985379E+03  0.00000000000E+00 0. -1.
         22    1    3    3    0    0 -0.35343673017E+02 -0.48302148191E+02 -0.48210234193E+02  0.76853753475E+02  0.00000000000E+00 0. -1.
</event>
<event>
 7    1  0.5977291E-006  0.8686619E+02  0.7818608E-02  0.1419275E+00
          2   -1    0    0  502    0  0.00000000000E+00  0.00000000000E+00  0.30387652619E+04  0.30387652619E+04  0.00000000000E+00 0. -1.
          1   -1    0    0  501    0 -0.00000000000E+00 -0.00000000000E+00 -0.58764380327E+03  0.58764380327E+03  0.00000000000E+00 0. -1.
         25    2    1    2    0    0 -0.39984730072E+02 -0.64248528480E+02  0.89594315713E+03  0.90778094009E+03  0.12500176926E+03 0.  0.
          2    1    1    2  501    0  0.71647354269E+02  0.49227553521E+02 -0.57833266777E+03  0.58482935119E+03  0.00000000000E+00 0. -1.
          1    1    1    2  502    0 -0.31662624197E+02  0.15020974960E+02  0.21335109693E+04  0.21337987739E+04  0.00000000000E+00 0. -1.
         22    1    3    3    0    0 -0.55757654413E+02 -0.90344439981E+02  0.52745266152E+03  0.53803098796E+03  0.00000000000E+00 0. -1.
         22    1    3    3    0    0  0.15772924341E+02  0.26095911500E+02  0.36849049562E+03  0.36974995213E+03  0.00000000000E+00 0. -1.
</event>
<event>
 7    1  0.5977291E-006  0.7961717E+02  0.7818608E-02  0.1429792E+00
          2   -1    0    0  502    0  0.00000000000E+00  0.00000000000E+00  0.31015707613E+04  0.31015707613E+04  0.00000000000E+00 0. -1.
          1   -1    0    0  501    0 -0.00000000000E+00 -0.00000000000E+00 -0.12965438592E+04  0.12965438592E+04  0.00000000000E+00 0. -1.
         25    2    1    2    0    0 -0.76031528393E+02 -0.73323110511E+02  0.11392933928E+04  0.11509877993E+04  0.12500562907E+03 0.  0.
          2    1    1    2  501    0  0.34036975116E+02  0.92969517621E+01 -0.12897061023E+04  0.12901886603E+04  0.00000000000E+00 0. -1.
          1    1    1    2  502    0  0.41994553276E+02  0.64026158748E+02  0.19554396114E+04  0.19569381609E+04  0.00000000000E+00 0. -1.
         22    1    3    3    0    0 -0.42414144927E+02 -0.10217181398E+03  0.95775279816E+03  0.96412056385E+03  0.00000000000E+00 0. -1.
         22    1    3    3    0    0 -0.33617383465E+02  0.28848703467E+02  0.18154059469E+03  0.18686723544E+03  0.00000000000E+00 0. -1.
</event>
<event>
 7    1  0.5977291E-006  0.1046647E+03  0.7818608E-02  0.1341958E+00
          2   -1    0    0  502    0  0.00000000000E+00  0.00000000000E+00  0.14451100927E+04  0.14451100927E+04  0.00000000000E+00 0. -1.
          1   -1    0    0  501    0 -0.00000000000E+00 -0.00000000000E+00 -0.22666318518E+02  0.22666318518E+02  0.00000000000E+00 0. -1.
         25    2    1    2    0    0  0.52793982411E+02  0.46290255123E+02  0.83305735457E+03  0.84530406493E+03  0.12499765555E+03 0.  0.
          2    1    1    2  501    0 -0.10721938030E+03 -0.41488234048E+02  0.21213671151E+03  0.24128666239E+03  0.00000000000E+00 0. -1.
          1    1    1    2  502    0  0.54425397892E+02 -0.48020210746E+01  0.37724970812E+03  0.38118568391E+03  0.00000000000E+00 0. -1.
         22    1    3    3    0    0  0.83894198580E+02  0.32982714437E+01  0.62376703265E+03  0.62939210844E+03  0.00000000000E+00 0.  1.
         22    1    3    3    0    0 -0.31100216169E+02  0.42991983679E+02  0.20929032192E+03  0.21591195649E+03  0.00000000000E+00 0.  1.
</event>
<event>
 7    1  0.5977291E-006  0.1137221E+03  0.7818608E-02  0.1283653E+00
          2   -1    0    0  502    0  0.00000000000E+00  0.00000000000E+00  0.44158401589E+03  0.44158401589E+03  0.00000000000E+00 0. -1.
          1   -1    0    0  501    0 -0.00000000000E+00 -0.00000000000E+00 -0.69390639817E+03  0.69390639817E+03  0.00000000000E+00 0. -1.
         25    2    1    2    0    0  0.17518621991E+03 -0.17923458222E+02 -0.11539283061E+02  0.21626397861E+03  0.12500196555E+03 0.  0.
          2    1    1    2  501    0 -0.78287347462E+02 -0.33560410086E+02 -0.56787138731E+03  0.57422393055E+03  0.00000000000E+00 0. -1.
          1    1    1    2  502    0 -0.96898872451E+02  0.51483868308E+02  0.32708828808E+03  0.34500250489E+03  0.00000000000E+00 0. -1.
         22    1    3    3    0    0  0.16414335804E+03 -0.34999020229E+02 -0.47959628406E+02  0.17455113681E+03  0.00000000000E+00 0. -1.
         22    1    3    3    0    0  0.11042861876E+02  0.17075562007E+02  0.36420345345E+02  0.41712841804E+02  0.00000000000E+00 0. -1.
</event>
<event>
 7    1  0.5977291E-006  0.5420217E+02  0.7818608E-02  0.1442902E+00
          2   -1    0    0  502    0  0.00000000000E+00  0.00000000000E+00  0.26330122729E+03  0.26330122729E+03  0.00000000000E+00 0. -1.
          1   -1    0    0  501    0 -0.00000000000E+00 -0.00000000000E+00 -0.11139695249E+04  0.11139695249E+04  0.00000000000E+00 0. -1.
         25    2    1    2    0    0  0.73367029610E+02  0.65065961649E+02 -0.28496939371E+03  0.32626598479E+03  0.12500254830E+03 0.  0.
          2    1    1    2  501    0 -0.33367910243E+02 -0.40449138037E+02 -0.80521834893E+03  0.80692387476E+03  0.00000000000E+00 0. -1.
          1    1    1    2  502    0 -0.39999119367E+02 -0.24616823611E+02  0.23951944508E+03  0.24408089259E+03  0.00000000000E+00 0. -1.
         22    1    3    3    0    0 -0.23768677916E+02  0.45581809959E+02 -0.15192886756E+03  0.16039024985E+03  0.00000000000E+00 0.  1.
         22    1    3    3    0    0  0.97135707526E+02  0.19484151690E+02 -0.13304052615E+03  0.16587573494E+03  0.00000000000E+00 0.  1.
</event>
<event>
 7    1  0.5977291E-006  0.8982758E+02  0.7818608E-02  0.1388527E+00
          2   -1    0    0  502    0  0.00000000000E+00  0.00000000000E+00  0.18026572366E+03  0.18026572366E+03  0.00000000000E+00 0. -1.
          1   -1    0    0  501    0 -0.00000000000E+00 -0.00000000000E+00 -0.14046879157E+03  0.14046879157E+03  0.00000000000E+00 0. -1.
         25    2    1    2    0    0  0.62395199547E+02  0.46639321096E+02 -0.30403472148E+02  0.15040293075E+03  0.12501313236E+03 0.  0.
          2    1    1    2  501    0 -0.20610287331E+02  0.37935692987E+02 -0.12428708965E+02  0.44926312477E+02  0.00000000000E+00 0. -1.
          1    1    1    2  502    0 -0.41784912216E+02 -0.84575014082E+02  0.82629113209E+02  0.12540527200E+03  0.00000000000E+00 0. -1.
         22    1    3    3    0    0  0.72701036415E+02  0.21585535350E+02  0.32046043713E+02  0.82330583320E+02  0.00000000000E+00 0. -1.
         22    1    3    3    0    0 -0.10305836868E+02  0.25053785746E+02 -0.62449515861E+02  0.68072347433E+02  0.00000000000E+00 0. -1.
</event>
<event>
 7    1  0.5977291E-006  0.4844700E+02  0.7818608E-02  0.1499933E+00
          2   -1    0    0  502    0  0.00000000000E+00  0.00000000000E+00  0.23190076795E+04  0.23190076795E+04  0.00000000000E+00 0. -1.
          1   -1    0    0  501    0 -0.00000000000E+00 -0.00000000000E+00 -0.92946946705E+02  0.92946946705E+02  0.00000000000E+00 0. -1.
         25    2    1    2    0    0  0.14493480679E+02 -0.42626375989E+01  0.17316086039E+03  0.21409709387E+03  0.12499860386E+03 0.  0.
          2    1    1    2  501    0 -0.49124337030E+02  0.89586681470E+01 -0.63716788250E+02  0.80952376917E+02  0.00000000000E+00 0. -1.
          1    1    1    2  502    0  0.34630856351E+02 -0.46960305481E+01  0.21166166607E+04  0.21169051555E+04  0.00000000000E+00 0. -1.
         22    1    3    3    0    0 -0.38221472552E+02 -0.42288860304E+02  0.10765990934E+03  0.12181906562E+03  0.00000000000E+00 0.  1.
         22    1    3    3    0    0  0.52714953231E+02  0.38026222705E+02  0.65500951052E+02  0.92278028241E+02  0.00000000000E+00 0.  1.
</event>
<event>
 7    1  0.5977291E-006  0.3966160E+02  0.7818608E-02  0.1589228E+00
          2   -1    0    0  502    0  0.00000000000E+00  0.00000000000E+00  0.22084583055E+02  0.22084583055E+02  0.00000000000E+00 0. -1.
          1   -1    0    0  501    0 -0.00000000000E+00 -0.00000000000E+00 -0.75325504379E+03  0.75325504379E+03  0.00000000000E+00 0. -1.
         25    2    1    2    0    0 -0.13668480231E+02  0.18977278836E+02 -0.33302141289E+03  0.35647586985E+03  0.12499927950E+03 0.  0.
          2    1    1    2  501    0  0.46921650967E+01 -0.41176094025E+02 -0.39194261699E+03  0.39412752016E+03  0.00000000000E+00 0. -1.
          1    1    1    2  502    0  0.89763151347E+01  0.22198815189E+02 -0.62064308551E+01  0.24736236843E+02  0.00000000000E+00 0. -1.
         22    1    3    3    0    0  0.28147634311E+02  0.32135305281E+02 -0.29608818347E+03  0.29915410669E+03  0.00000000000E+00 0. -1.
         22    1    3    3    0    0 -0.41816114542E+02 -0.13158026445E+02 -0.36933229426E+02  0.57321763155E+02  0.00000000000E+00 0. -1.
</event>
<event>
 7    1  0.5977291E-006  0.1113001E+03  0.7818608E-02  0.1383813E+00
          2   -1    0    0  502    0  0.00000000000E+00  0.00000000000E+00  0.11005874896E+04  0.11005874896E+04  0.00000000000E+00 0. -1.
          1   -1    0    0  501    0 -0.00000000000E+00 -0.00000000000E+00 -0.29775046360E+03  0.29775046360E+03  0.00000000000E+00 0. -1.
         25    2    1    2    0    0  0.47688791261E+02 -0.13474980803E+03  0.24746145119E+03  0.31192025278E+03  0.12500137076E+03 0.  0.
          2    1    1    2  501    0 -0.19076178596E+02  0.30762101630E+02 -0.26072282692E+03  0.26322347912E+03  0.00000000000E+00 0. -1.
          1    1    1    2  502    0 -0.28612612665E+02  0.10398770640E+03  0.81609840169E+03  0.82319422126E+03  0.00000000000E+00 0. -1.
         22    1    3    3    0    0  0.14016118604E+02  0.21842597782E+02  0.59858370690E+02  0.65242434046E+02  0.00000000000E+00 0.  1.
         22    1    3    3    0    0  0.33672672657E+02 -0.15659240581E+03  0.18760308050E+03  0.24667781873E+03  0.00000000000E+00 0.  1.
</event>
<event>
 7    1  0.5977291E-006  0.9357644E+02  0.7818608E-02  0.1377736E+00
          2   -1    0    0  502    0  0.00000000000E+00  0.00000000000E+00  0.44389580726E+03  0.44389580726E+03  0.00000000000E+00 0. -1.
          1   -1    0    0  501    0 -0.00000000000E+00 -0.00000000000E+00 -0.15042544051E+03  0.15042544051E+03  0.00000000000E+00 0. -1.
         25    2    1    2    0    0 -0.11641627000E+03  0.43534388166E+02 -0.28909569256E+02  0.17863020256E+03  0.12499998080E+03 0.  0.
          2    1    1    2  501    0  0.75568397739E+02 -0.24095477690E+02 -0.10270195702E+02  0.79979070398E+02  0.00000000000E+00 0. -1.
          1    1    1    2  502    0  0.40847872260E+02 -0.19438910476E+02  0.33265013171E+03  0.33571197482E+03  0.00000000000E+00 0. -1.
         22    1    3    3    0    0 -0.61247147299E+01  0.53636984389E+02 -0.40191546582E+02  0.67303778805E+02  0.00000000000E+00 0. -1.
         22    1    3    3    0    0 -0.11029155527E+03 -0.10102596222E+02  0.11281977326E+02  0.11132642376E+03  0.00000000000E+00 0. -1.
</event>
<event>
 7    1  0.5977291E-006  0.5305984E+02  0.7818608E-02  0.1429985E+00
          2   -1    0    0  502    0  0.00000000000E+00  0.00000000000E+00  0.98281733390E+03  0.98281733390E+03  0.00000000000E+00 0. -1.
          1   -1    0    0  501    0 -0.00000000000E+00 -0.00000000000E+00 -0.10811907627E+04  0.10811907627E+04  0.00000000000E+00 0. -1.
         25    2    1    2    0    0 -0.50468465568E+02 -0.62625397842E+02 -0.26036952695E+02  0.15090623943E+03  0.12500305484E+03 0.  0.
          2    1    1    2  501    0 -0.15037997558E+01  0.52943423015E+02 -0.99125242521E+03  0.99266642833E+03  0.00000000000E+00 0. -1.
          1    1    1    2  502    0  0.51972265324E+02  0.96819748270E+01  0.91891594915E+03  0.92043542881E+03  0.00000000000E+00 0. -1.
         22    1    3    3    0    0 -0.69998093958E+02  0.10503750031E+02  0.24198023096E+00  0.70782204521E+02  0.00000000000E+00 0.  1.
         22    1    3    3    0    0  0.19529628390E+02 -0.73129147874E+02 -0.26278932926E+02  0.80124034905E+02  0.00000000000E+00 0.  1.
</event>
<event>
 7    1  0.5977291E-006  0.7039635E+02  0.7818608E-02  0.1390151E+00
          2   -1    0    0  502    0  0.00000000000E+00  0.00000000000E+00  0.45017968185E+02  0.45017968185E+02  0.00000000000E+00 0. -1.
          1   -1    0    0  501    0 -0.00000000000E+00 -0.00000000000E+00 -0.73634091525E+03  0.73634091525E+03  0.00000000000E+00 0. -1.
         25    2    1    2    0    0  0.18800100465E+02  0.19176185825E+02 -0.14745542502E+03  0.19516097641E+03  0.12499413774E+03 0.  0.
          2    1    1    2  501    0 -0.73171315999E+02 -0.19790802904E+02 -0.52218762424E+03  0.52766052750E+03  0.00000000000E+00 0. -1.
          1    1    1    2  502    0  0.54371215534E+02  0.61461707954E+00 -0.21679897809E+02  0.58537379526E+02  0.00000000000E+00 0. -1.
         22    1    3    3    0    0 -0.10460677041E+02  0.36101120279E+02  0.59687639443E+01  0.38057099109E+02  0.00000000000E+00 0.  1.
         22    1    3    3    0    0  0.29260777505E+02 -0.16924934454E+02 -0.15342418896E+03  0.15710387731E+03  0.00000000000E+00 0.  1.
</event>
<event>
 7    1  0.5977291E-006  0.7831662E+02  0.7818608E-02  0.1336243E+00
          2   -1    0    0  502    0  0.00000000000E+00  0.00000000000E+00  0.11296619115E+04  0.11296619115E+04  0.00000000000E+00 0. -1.
          1   -1    0    0  501    0 -0.00000000000E+00 -0.00000000000E+00 -0.51269035350E+03  0.51269035350E+03  0.00000000000E+00 0. -1.
         25    2    1    2    0    0 -0.21015577883E+02  0.52958477105E+02  0.40061150738E+03  0.42351003530E+03  0.12499966137E+03 0.  0.
          2    1    1    2  501    0 -0.55666051602E+02 -0.55682722450E+02 -0.49607635186E+03  0.50228579689E+03  0.00000000000E+00 0. -1.
          1    1    1    2  502    0  0.76681629485E+02  0.27242453451E+01  0.71243640248E+03  0.71655643281E+03  0.00000000000E+00 0. -1.
         22    1    3    3    0    0  0.41083679907E+02 -0.15330809243E+02  0.15662275717E+03  0.16264559794E+03  0.00000000000E+00 0.  1.
         22    1    3    3    0    0 -0.62099257790E+02  0.68289286349E+02  0.24398875021E+03  0.26086443736E+03  0.00000000000E+00 0.  1.
</event>
<event>
 7    1  0.5977291E-006  0.6572298E+02  0.7818608E-02  0.1452338E+00
          2   -1    0    0  502    0  0.00000000000E+00  0.00000000000E+00  0.17795287052E+04  0.17795287052E+04  0.00000000000E+00 0. -1.
          1   -1    0    0  501    0 -0.00000000000E+00 -0.00000000000E+00 -0.41709268746E+03  0.41709268746E+03  0.00000000000E+00 0. -1.
         25    2    1    2    0    0  0.51255242271E+01 -0.95117928284E+02  0.67222526143E+03  0.69035107703E+03  0.12499646462E+03 0.  0.
          2    1    1    2  501    0  0.11256273294E+02  0.34325771444E+02 -0.40632543275E+03  0.40792808137E+03  0.00000000000E+00 0. -1.
          1    1    1    2  502    0 -0.16381797521E+02  0.60792156840E+02  0.10965361890E+04  0.10983422342E+04  0.00000000000E+00 0. -1.
         22    1    3    3    0    0  0.28848161732E+02  0.46939961510E+01  0.37069990677E+03  0.37185033402E+03  0.00000000000E+00 0.  1.
         22    1    3    3    0    0 -0.23722637505E+02 -0.99811924435E+02  0.30152535466E+03  0.31850074301E+03  0.00000000000E+00 0.  1.
</event>
<event>
 7    1  0.5977291E-006  0.1152781E+03  0.7818608E-02  0.1266658E+00
          2   -1    0    0  502    0  0.00000000000E+00  0.00000000000E+00  0.17561440162E+03  0.17561440162E+03  0.00000000000E+00 0. -1.
          1   -1    0    0  501    0 -0.00000000000E+00 -0.00000000000E+00 -0.23019225267E+04  0.23019225267E+04  0.00000000000E+00 0. -1.
         25    2    1    2    0    0 -0.15304486499E+03 -0.12828133669E+03 -0.35590264241E+03  0.42681762288E+03  0.12501104062E+03 0.  0.
          2    1    1    2  501    0  0.60226801726E+02  0.94126359579E+02 -0.18912575921E+04  0.18945559688E+04  0.00000000000E+00 0. -1.
          1    1    1    2  502    0  0.92818063266E+02  0.34154977111E+02  0.12085210949E+03  0.15616333660E+03  0.00000000000E+00 0. -1.
         22    1    3    3    0    0 -0.93201859708E+02 -0.50517580959E+02 -0.76629914730E+02  0.13080809023E+03  0.00000000000E+00 0. -1.
         22    1    3    3    0    0 -0.59843005284E+02 -0.77763755731E+02 -0.27927272768E+03  0.29600953264E+03  0.00000000000E+00 0. -1.
</event>
<event>
 7    1  0.5977291E-006  0.6107128E+02  0.7818608E-02  0.1440364E+00
          2   -1    0    0  502    0  0.00000000000E+00  0.00000000000E+00  0.73496711215E+02  0.73496711215E+02  0.00000000000E+00 0. -1.
          1   -1    0    0  501    0 -0.00000000000E+00 -0.00000000000E+00 -0.56641558218E+03  0.56641558218E+03  0.00000000000E+00 0. -1.
         25    2    1    2    0    0 -0.21293177977E+02 -0.48830602480E+02 -0.40800487857E+03  0.43003584620E+03  0.12500008366E+03 0.  0.
          2    1    1    2  501    0 -0.35266985719E+02  0.23682097279E+02 -0.12773216351E+03  0.13461094906E+03  0.00000000000E+00 0. -1.
          1    1    1    2  502    0  0.56560163696E+02  0.25148505202E+02  0.42818171113E+02  0.75265498129E+02  0.00000000000E+00 0. -1.
         22    1    3    3    0    0  0.11277556964E+02 -0.84385070616E+02 -0.29810408666E+03  0.31002269258E+03  0.00000000000E+00 0.  1.
         22    1    3    3    0    0 -0.32570734941E+02  0.35554468135E+02 -0.10990079191E+03  0.12001315362E+03  0.00000000000E+00 0.  1.
</event>
<event>
 7    1  0.5977291E-006  0.1863806E+03  0.7818608E-02  0.1228671E+00
          2   -1    0    0  502    0  0.00000000000E+00  0.00000000000E+00  0.16157660680E+04  0.16157660680E+04  0.00000000000E+00 0. -1.
          1   -1    0    0  501    0 -0.00000000000E+00 -0.00000000000E+00 -0.47197678018E+03  0.47197678018E+03  0.00000000000E+00 0. -1.
         25    2    1    2    0    0  0.56085267666E+02  0.11590653862E+03 -0.32539902054E+02  0.18238365098E+03  0.12500027190E+03 0.  0.
          2    1    1    2  501    0 -0.13051569677E+03 -0.16568279785E+03 -0.33256648286E+03  0.39380909351E+03  0.00000000000E+00 0. -1.
          1    1    1    2  502    0  0.74430429107E+02  0.49776259232E+02  0.15088956727E+04  0.15115501037E+04  0.00000000000E+00 0. -1.
         22    1    3    3    0    0  0.47090970756E+02  0.57300206869E+02  0.43481436313E+02  0.85973882882E+02  0.00000000000E+00 0. -1.
         22    1    3    3    0    0  0.89942969096E+01  0.58606331748E+02 -0.76021338366E+02  0.96409768099E+02  0.00000000000E+00 0. -1.
</event>
<event>
 7    1  0.5977291E-006  0.5941391E+02  0.7818608E-02  0.1419255E+00
          2   -1    0    0  502    0  0.00000000000E+00  0.00000000000E+00  0.79574015352E+03  0.79574015352E+03  0.00000000000E+00 0. -1.
          1   -1    0    0  501    0 -0.00000000000E+00 -0.00000000000E+00 -0.64692449079E+03  0.64692449079E+03  0.00000000000E+00 0. -1.
         25    2    1    2    0    0  0.60693234006E+02  0.36065201404E+02  0.23728490928E+02  0.14550661888E+03  0.12499906979E+03 0.  0.
          2    1    1    2  501    0 -0.46378543998E+02  0.21797495423E+02 -0.58366169078E+03  0.58590704846E+03  0.00000000000E+00 0. -1.
          1    1    1    2  502    0 -0.14314690008E+02 -0.57862696828E+02  0.70874886259E+03  0.71125097698E+03  0.00000000000E+00 0. -1.
         22    1    3    3    0    0  0.10878574953E+02  0.63313648195E+00 -0.49173571219E+02  0.50366500387E+02  0.00000000000E+00 0.  1.
         22    1    3    3    0    0  0.49814659053E+02  0.35432064922E+02  0.72902062146E+02  0.95140118491E+02  0.00000000000E+00 0.  1.
</event>
<event>
 7    1  0.5977291E-006  0.1181844E+03  0.7818608E-02  0.1249619E+00
          2   -1    0    0  502    0  0.00000000000E+00  0.00000000000E+00  0.14432592739E+04  0.14432592739E+04  0.00000000000E+00 0. -1.
          1   -1    0    0  501    0 -0.00000000000E+00 -0.00000000000E+00 -0.10939058988E+04  0.10939058988E+04  0.00000000000E+00 0. -1.
         25    2    1    2    0    0 -0.10534189450E+03 -0.14123417136E+03  0.43813324098E+03  0.48849740739E+03  0.12499989712E+03 0.  0.
          2    1    1    2  501    0 -0.63309898752E+01  0.11393811337E+03 -0.10622858496E+04  0.10683974923E+04  0.00000000000E+00 0. -1.
          1    1    1    2  502    0  0.11167288437E+03  0.27296057989E+02  0.97350598370E+03  0.98027027303E+03  0.00000000000E+00 0. -1.
         22    1    3    3    0    0 -0.11117251108E+03 -0.98914804004E+02  0.41286822465E+03  0.43886630834E+03  0.00000000000E+00 0. -1.
         22    1    3    3    0    0  0.58306165784E+01 -0.42319367351E+02  0.25265016328E+02  0.49631099048E+02  0.00000000000E+00 0. -1.
</event>
<event>
 7    1  0.5977291E-006  0.1031720E+03  0.7818608E-02  0.1301320E+00
          2   -1    0    0  502    0  0.00000000000E+00  0.00000000000E+00  0.18440197501E+03  0.18440197501E+03  0.00000000000E+00 0. -1.
          1   -1    0    0  501    0 -0.00000000000E+00 -0.00000000000E+00 -0.10428170165E+04  0.10428170165E+04  0.00000000000E+00 0. -1.
         25    2    1    2    0    0  0.10368337349E+03  0.33950035369E+01 -0.62307843181E+02  0.17397962226E+03  0.12499949461E+03 0.  0.
          2    1    1    2  501    0 -0.71688329180E+02 -0.76306499386E+02 -0.90904569161E+03  0.91505517201E+03  0.00000000000E+00 0. -1.
          1    1    1    2  502    0 -0.31995044312E+02  0.72911495849E+02  0.11293849332E+03  0.13818419722E+03  0.00000000000E+00 0. -1.
         22    1    3    3    0    0  0.32134582716E+02  0.49836492562E+02  0.12409832930E+02  0.60583094594E+02  0.00000000000E+00 0. -1.
         22    1    3    3    0    0  0.71548790776E+02 -0.46441489025E+02 -0.74717676111E+02  0.11339652767E+03  0.00000000000E+00 0. -1.
</event>
<event>
 7    1  0.5977291E-006  0.8871312E+02  0.7818608E-02  0.1348120E+00
          2   -1    0    0  502    0  0.00000000000E+00  0.00000000000E+00  0.15916809687E+03  0.15916809687E+03  0.00000000000E+00 0. -1.
          1   -1    0    0  501    0 -0.00000000000E+00 -0.00000000000E+00 -0.77626229446E+03  0.77626229446E+03  0.00000000000E+00 0. -1.
         25    2    1    2    0    0  0.59408488296E+02 -0.28858773614E+02 -0.44453093921E+03  0.46646963984E+03  0.12499588668E+03 0.  0.
          2    1    1    2  501    0 -0.11397520934E+03  0.12899589788E+01 -0.30363940304E+03  0.32432838207E+03  0.00000000000E+00 0. -1.
          1    1    1    2  502    0  0.54566721039E+02  0.27568814635E+02  0.13107614466E+03  0.14463236942E+03  0.00000000000E+00 0. -1.
         22    1    3    3    0    0  0.86272639118E+02 -0.56248517832E+02 -0.32057100275E+03  0.33670852651E+03  0.00000000000E+00 0. -1.
         22    1    3    3    0    0 -0.26864150821E+02  0.27389744218E+02 -0.12395993646E+03  0.12976111334E+03  0.00000000000E+00 0. -1.
</event>
<event>
 7    1  0.5977291E-006  0.2367556E+03  0.7818608E-02  0.1345983E+00
          2   -1    0    0  502    0  0.00000000000E+00  0.00000000000E+00  0.18997824786E+03  0.18997824786E+03  0.00000000000E+00 0. -1.
          1   -1    0    0  501    0 -0.00000000000E+00 -0.00000000000E+00 -0.12609352959E+04  0.12609352959E+04  0.00000000000E+00 0. -1.
         25    2    1    2    0    0  0.96413773989E+02 -0.20683685668E+03 -0.15181768986E+03  0.30124890896E+03  0.12500077238E+03 0.  0.
          2    1    1    2  501    0 -0.11973726544E+03  0.20623591331E+03 -0.10192986841E+04  0.10468238018E+04  0.00000000000E+00 0. -1.
          1    1    1    2  502    0  0.23323491453E+02  0.60094336729E+00  0.10015932585E+03  0.10284083304E+03  0.00000000000E+00 0. -1.
         22    1    3    3    0    0  0.10958745414E+03 -0.16819218651E+03 -0.75077747637E+02  0.21432379685E+03  0.00000000000E+00 0.  1.
         22    1    3    3    0    0 -0.13173680150E+02 -0.38644670172E+02 -0.76739942227E+02  0.86925112105E+02  0.00000000000E+00 0.  1.
</event>
<event>
 7    1  0.5977291E-006  0.5527507E+02  0.7818608E-02  0.1480001E+00
          2   -1    0    0  502    0  0.00000000000E+00  0.00000000000E+00  0.12408893810E+04  0.12408893810E+04  0.00000000000E+00 0. -1.
          1   -1    0    0  501    0 -0.00000000000E+00 -0.00000000000E+00 -0.63100765882E+03  0.63100765882E+03  0.00000000000E+00 0. -1.
         25    2    1    2    0    0 -0.51671179442E+02  0.73000863117E+01 -0.54816862668E+03  0.56465975023E+03  0.12501435201E+03 0.  0.
          2    1    1    2  501    0  0.51504352310E+02 -0.42493508785E+02 -0.59345737667E+02  0.89332598613E+02  0.00000000000E+00 0. -1.
          1    1    1    2  502    0  0.16682713291E+00  0.35193422474E+02  0.12173960865E+04  0.12179046910E+04  0.00000000000E+00 0. -1.
         22    1    3    3    0    0 -0.51443337873E+02  0.14222495385E+02 -0.55340756699E+03  0.55597538758E+03  0.00000000000E+00 0. -1.
         22    1    3    3    0    0 -0.22784156937E+00 -0.69224090736E+01  0.52389403099E+01  0.86843626556E+01  0.00000000000E+00 0. -1.
</event>
<event>
 7    1  0.5977291E-006  0.6105271E+02  0.7818608E-02  0.1409200E+00
          2   -1    0    0  502    0  0.00000000000E+00  0.00000000000E+00  0.31930609217E+04  0.31930609217E+04  0.00000000000E+00 0. -1.
          1   -1    0    0  501    0 -0.00000000000E+00 -0.00000000000E+00 -0.10055984561E+04  0.10055984561E+04  0.00000000000E+00 0. -1.
         25    2    1    2    0    0  0.58432682913E+02  0.28887137169E+02  0.10441462011E+04  0.10536195107E+04  0.12499575569E+03 0.  0.
          2    1    1    2  501    0 -0.43390177519E+02  0.32000784748E+02 -0.99967661000E+03  0.10011294034E+04  0.00000000000E+00 0. -1.
          1    1    1    2  502    0 -0.15042505394E+02 -0.60887921917E+02  0.21429928746E+04  0.21439104638E+04  0.00000000000E+00 0. -1.
         22    1    3    3    0    0  0.11023672447E+02  0.39907285640E+02  0.10016371406E+03  0.10838303565E+03  0.00000000000E+00 0.  1.
         22    1    3    3    0    0  0.47409010466E+02 -0.11020148471E+02  0.94398248701E+03  0.94523647503E+03  0.00000000000E+00 0.  1.
</event>
<event>
 7    1  0.5977291E-006  0.6160964E+02  0.7818608E-02  0.1421073E+00
          2   -1    0    0  502    0  0.00000000000E+00  0.00000000000E+00  0.12982656908E+04  0.12982656908E+04  0.00000000000E+00 0. -1.
          1   -1    0    0  501    0 -0.00000000000E+00 -0.00000000000E+00 -0.93551318809E+03  0.93551318809E+03  0.00000000000E+00 0. -1.
         25    2    1    2    0    0 -0.57479678084E+02 -0.82964045563E+02  0.62386460589E+02  0.17234855711E+03  0.12500003369E+03 0.  0.
          2    1    1    2  501    0  0.71918136180E+01  0.48199669351E+02 -0.87906556584E+03  0.88041535616E+03  0.00000000000E+00 0. -1.
          1    1    1    2  502    0  0.50287864466E+02  0.34764376212E+02  0.11794316079E+04  0.11810149656E+04  0.00000000000E+00 0. -1.
         22    1    3    3    0    0 -0.87554305833E+01  0.31158757355E+02  0.29934644079E+02  0.44086377042E+02  0.00000000000E+00 0. -1.
         22    1    3    3    0    0 -0.48724247501E+02 -0.11412280292E+03  0.32451816511E+02  0.12826218007E+03  0.00000000000E+00 0. -1.
</event>
<event>
 7    1  0.5977291E-006  0.5211160E+02  0.7818608E-02  0.1510977E+00
          2   -1    0    0  502    0  0.00000000000E+00  0.00000000000E+00  0.27260066056E+04  0.27260066056E+04  0.00000000000E+00 0. -1.
          1   -1    0    0  501    0 -0.00000000000E+00 -0.00000000000E+00 -0.28930546894E+02  0.28930546894E+02  0.00000000000E+00 0. -1.
         25    2    1    2    0    0 -0.28607820131E+02 -0.17460038685E+02  0.34087332685E+03  0.36461392040E+03  0.12500170266E+03 0.  0.
          2    1    1    2  501    0 -0.24085912478E+02  0.18106796825E+02 -0.32269507804E+01  0.30305123041E+02  0.00000000000E+00 0. -1.
          1    1    1    2  502    0  0.52693732609E+02 -0.64675813975E+00  0.23594296827E+04  0.23600181091E+04  0.00000000000E+00 0. -1.
         22    1    3    3    0    0 -0.14051065062E+01  0.88975135641E+01 -0.89781352496E+01  0.12717978789E+02  0.00000000000E+00 0.  1.
         22    1    3    3    0    0 -0.27202713625E+02 -0.26357552249E+02  0.34985146210E+03  0.35189594161E+03  0.00000000000E+00 0.  1.
</event>
<event>
 7    1  0.5977291E-006  0.6338489E+02  0.7818608E-02  0.1514070E+00
          2   -1    0    0  502    0  0.00000000000E+00  0.00000000000E+00  0.15211157473E+04  0.15211157473E+04  0.00000000000E+00 0. -1.
          1   -1    0    0  501    0 -0.00000000000E+00 -0.00000000000E+00 -0.79614403052E+02  0.79614403052E+02  0.00000000000E+00 0. -1.
         25    2    1    2    0    0  0.40056681755E+02 -0.37788633705E+01  0.55104034948E+03  0.56647189210E+03  0.12500448082E+03 0.  0.
          2    1    1    2  501    0 -0.63980238820E+02 -0.25577739219E+00 -0.57478921110E+02  0.86007922620E+02  0.00000000000E+00 0. -1.
          1    1    1    2  502    0  0.23923557066E+02  0.40346407627E+01  0.94793991583E+03  0.94825033558E+03  0.00000000000E+00 0. -1.
         22    1    3    3    0    0 -0.41800900879E+02 -0.28536110668E+01  0.10628158207E+03  0.11424199358E+03  0.00000000000E+00 0. -1.
         22    1    3    3    0    0  0.81857582634E+02 -0.92525230369E+00  0.44475876741E+03  0.45222989852E+03  0.00000000000E+00 0. -1.
</event>
<event>
 7    1  0.5977291E-006  0.6117193E+02  0.7818608E-02  0.1474487E+00
          2   -1    0    0  502    0  0.00000000000E+00  0.00000000000E+00  0.10251724734E+03  0.10251724734E+03  0.00000000000E+00 0. -1.
          1   -1    0    0  501    0 -0.00000000000E+00 -0.00000000000E+00 -0.15888977220E+04  0.15888977220E+04  0.00000000000E+00 0. -1.
         25    2    1    2    0    0 -0.32176467163E+02  0.47040694304E+01 -0.18574739090E+03  0.22623939581E+03  0.12499887072E+03 0.  0.
          2    1    1    2  501    0 -0.24928663523E+02  0.21728676294E+02 -0.13706432434E+04  0.13710421126E+04  0.00000000000E+00 0. -1.
          1    1    1    2  502    0  0.57105130686E+02 -0.26432745725E+02  0.70010159733E+02  0.94133460911E+02  0.00000000000E+00 0. -1.
         22    1    3    3    0    0 -0.36423312339E+02 -0.50651870555E+02 -0.14349703581E+03  0.15647258213E+03  0.00000000000E+00 0.  1.
         22    1    3    3    0    0  0.42468451756E+01  0.55355939985E+02 -0.42250355083E+02  0.69766813674E+02  0.00000000000E+00 0.  1.
</event>
<event>
 7    1  0.5977291E-006  0.1221906E+03  0.7818608E-02  0.1384282E+00
          2   -1    0    0  502    0  0.00000000000E+00  0.00000000000E+00  0.54637876435E+03  0.54637876435E+03  0.00000000000E+00 0. -1.
          1   -1    0    0  501    0 -0.00000000000E+00 -0.00000000000E+00 -0.15207958981E+03  0.15207958981E+03  0.00000000000E+00 0. -1.
         25    2    1    2    0    0  0.10793259293E+03  0.92083620559E+02  0.38568323593E+02  0.19298251259E+03  0.12500358710E+03 0.  0.
          2    1    1    2  501    0 -0.32794156390E+02  0.18345689945E+01 -0.62331364398E+02  0.70455811147E+02  0.00000000000E+00 0. -1.
          1    1    1    2  502    0 -0.75138436540E+02 -0.93918189554E+02  0.41806221535E+03  0.43502003043E+03  0.00000000000E+00 0. -1.
         22    1    3    3    0    0  0.10981790249E+03  0.13687194069E+02  0.23067854490E+02  0.11304617153E+03  0.00000000000E+00 0. -1.
         22    1    3    3    0    0 -0.18853095555E+01  0.78396426490E+02  0.15500469103E+02  0.79936341053E+02  0.00000000000E+00 0. -1.
</event>
<event>
 7    1  0.5977291E-006  0.1398995E+03  0.7818608E-02  0.1373222E+00
          2   -1    0    0  502    0  0.00000000000E+00  0.00000000000E+00  0.77088751653E+03  0.77088751653E+03  0.00000000000E+00 0. -1.
          1   -1    0    0  501    0 -0.00000000000E+00 -0.00000000000E+00 -0.17447553402E+04  0.17447553402E+04  0.00000000000E+00 0. -1.
         25    2    1    2    0    0 -0.17925317819E+02 -0.12502305502E+03 -0.16744683189E+03  0.24416504265E+03  0.12500418088E+03 0.  0.
          2    1    1    2  501    0  0.48367681655E+02  0.13272250641E+03 -0.15353690723E+04  0.15418537169E+04  0.00000000000E+00 0. -1.
          1    1    1    2  502    0 -0.30442363836E+02 -0.76994513907E+01  0.72894808050E+03  0.72962409715E+03  0.00000000000E+00 0. -1.
         22    1    3    3    0    0  0.28233516887E+01  0.19199647814E+02 -0.60180435748E+02  0.63231974805E+02  0.00000000000E+00 0.  1.
         22    1    3    3    0    0 -0.20748669508E+02 -0.14422270283E+03 -0.10726639615E+03  0.18093306785E+03  0.00000000000E+00 0.  1.
</event>
<event>
 7    1  0.5977291E-006  0.8280409E+02  0.7818608E-02  0.1360375E+00
          2   -1    0    0  502    0  0.00000000000E+00  0.00000000000E+00  0.10541257427E+04  0.10541257427E+04  0.00000000000E+00 0. -1.
          1   -1    0    0  501    0 -0.00000000000E+00 -0.00000000000E+00 -0.76799701596E+03  0.76799701596E+03  0.00000000000E+00 0. -1.
         25    2    1    2    0    0  0.30627322321E+01 -0.83637285699E+02 -0.96709225731E+02  0.17883794135E+03  0.12500303611E+03 0.  0.
          2    1    1    2  501    0 -0.55744962509E+02  0.19435587667E+02 -0.62713272106E+03  0.62990530458E+03  0.00000000000E+00 0. -1.
          1    1    1    2  502    0  0.52682230277E+02  0.64201698032E+02  0.10099706735E+04  0.10133795127E+04  0.00000000000E+00 0. -1.
         22    1    3    3    0    0  0.52571474771E+02 -0.57053083761E+02 -0.13983698446E+02  0.78831200349E+02  0.00000000000E+00 0. -1.
         22    1    3    3    0    0 -0.49508742539E+02 -0.26584201937E+02 -0.82725527285E+02  0.10000674100E+03  0.00000000000E+00 0. -1.
</event>
<event>
 7    1  0.5977291E-006  0.6079306E+02  0.7818608E-02  0.1488473E+00
          2   -1    0    0  502    0  0.00000000000E+00  0.00000000000E+00  0.93491338015E+03  0.93491338015E+03  0.00000000000E+00 0. -1.
          1   -1    0    0  501    0 -0.00000000000E+00 -0.00000000000E+00 -0.12687849136E+03  0.12687849136E+03  0.00000000000E+00 0. -1.
         25    2    1    2    0    0  0.57955455096E+01 -0.44885896036E+02  0.23677314413E+03  0.27154539316E+03  0.12500818673E+03 0.  0.
          2    1    1    2  501    0  0.21543977923E+02  0.57600007357E+02 -0.10049237004E+03  0.11781604419E+03  0.00000000000E+00 0. -1.
          1    1    1    2  502    0 -0.27339523433E+02 -0.12714111321E+02  0.67175411470E+03  0.67243043416E+03  0.00000000000E+00 0. -1.
         22    1    3    3    0    0 -0.18489758107E+02 -0.47357176190E+02  0.22008790773E+02  0.55398196386E+02  0.00000000000E+00 0.  1.
         22    1    3    3    0    0  0.24285303616E+02  0.24712801535E+01  0.21476435336E+03  0.21614719677E+03  0.00000000000E+00 0.  1.
</event>
<event>
 7    1  0.5977291E-006  0.1231725E+03  0.7818608E-02  0.1383539E+00
          2   -1    0    0  502    0  0.00000000000E+00  0.00000000000E+00  0.98431927352E+03  0.98431927352E+03  0.00000000000E+00 0. -1.
          1   -1    0    0  501    0 -0.00000000000E+00 -0.00000000000E+00 -0.43916609926E+02  0.43916609926E+02  0.00000000000E+00 0. -1.
         25    2    1    2    0    0 -0.41510250906E+02  0.13265750320E+03  0.69908703558E+03  0.72364956674E+03  0.12499959218E+03 0.  0.
          2    1    1    2  501    0  0.59486393189E+02 -0.10524529230E+03  0.92550646045E+02  0.15225250280E+03  0.00000000000E+00 0. -1.
          1    1    1    2  502    0 -0.17976142283E+02 -0.27412210895E+02  0.14876498197E+03  0.15233381390E+03  0.00000000000E+00 0. -1.
         22    1    3    3    0    0 -0.27691657190E+02  0.91299646146E+02  0.18912936625E+03  0.21183099500E+03  0.00000000000E+00 0. -1.
         22    1    3    3    0    0 -0.13818593716E+02  0.41357857050E+02  0.50995766934E+03  0.51181857175E+03  0.00000000000E+00 0. -1.
</event>
<event>
 7    1  0.5977291E-006  0.2053522E+03  0.7818608E-02  0.1251239E+00
          2   -1    0    0  502    0  0.00000000000E+00  0.00000000000E+00  0.62684986897E+02  0.62684986897E+02  0.00000000000E+00 0. -1.
          1   -1    0    0  501    0 -0.00000000000E+00 -0.00000000000E+00 -0.31843608144E+04  0.31843608144E+04  0.00000000000E+00 0. -1.
         25    2    1    2    0    0  0.17856929944E+03  0.13807219463E+03 -0.20039742711E+04  0.20205169116E+04  0.12499914138E+03 0.  0.
          2    1    1    2  501    0  0.11531049855E+02 -0.63584636866E+02 -0.97568282452E+03  0.97782050767E+03  0.00000000000E+00 0. -1.
          1    1    1    2  502    0 -0.19010034929E+03 -0.74487557764E+02 -0.14201873186E+03  0.24870838197E+03  0.00000000000E+00 0. -1.
         22    1    3    3    0    0  0.12762336382E+03  0.10353780920E+03 -0.17992839513E+04  0.18067735161E+04  0.00000000000E+00 0.  1.
         22    1    3    3    0    0  0.50945935623E+02  0.34534385426E+02 -0.20469031981E+03  0.21374339559E+03  0.00000000000E+00 0.  1.
</event>
<event>
 7    1  0.5977291E-006  0.7931142E+02  0.7818608E-02  0.1380041E+00
          2   -1    0    0  502    0  0.00000000000E+00  0.00000000000E+00  0.31214352068E+04  0.31214352068E+04  0.00000000000E+00 0. -1.
          1   -1    0    0  501    0 -0.00000000000E+00 -0.00000000000E+00 -0.31663157480E+02  0.31663157480E+02  0.00000000000E+00 0. -1.
         25    2    1    2    0    0 -0.11653403070E+02  0.28694790956E+02  0.81373878547E+03  0.82386605685E+03  0.12500110329E+03 0.  0.
          2    1    1    2  501    0  0.25316576128E+02 -0.79259711737E+02  0.39533180206E+02  0.92118962590E+02  0.00000000000E+00 0. -1.
          1    1    1    2  502    0 -0.13663173058E+02  0.50564920781E+02  0.22365000836E+04  0.22371133448E+04  0.00000000000E+00 0. -1.
         22    1    3    3    0    0  0.15153671656E+02 -0.42638071511E+01  0.72808418450E+03  0.72825434673E+03  0.00000000000E+00 0. -1.
         22    1    3    3    0    0 -0.26807074726E+02  0.32958598107E+02  0.85654600968E+02  0.95611710117E+02  0.00000000000E+00 0. -1.
</event>
<event>
 7    1  0.5977291E-006  0.9539416E+02  0.7818608E-02  0.1368362E+00
          2   -1    0    0  502    0  0.00000000000E+00  0.00000000000E+00  0.28653427460E+03  0.28653427460E+03  0.00000000000E+00 0. -1.
          1   -1    0    0  501    0 -0.00000000000E+00 -0.00000000000E+00 -0.19638373855E+03  0.19638373855E+03  0.00000000000E+00 0. -1.
         25    2    1    2    0    0  0.68507714105E+02 -0.68038377664E+01  0.11929665578E+03  0.18599979972E+03  0.12499853724E+03 0.  0.
          2    1    1    2  501    0 -0.83798007931E+02  0.52238838189E+02 -0.14277179139E+03  0.17359374057E+03  0.00000000000E+00 0. -1.
          1    1    1    2  502    0  0.15290293826E+02 -0.45435000422E+02  0.11362567165E+03  0.12332447286E+03  0.00000000000E+00 0. -1.
         22    1    3    3    0    0 -0.42779691217E+01 -0.27004131973E+02 -0.15538426934E+02  0.31447843726E+02  0.00000000000E+00 0.  1.
         22    1    3    3    0    0  0.72785683227E+02  0.20200294206E+02  0.13483508272E+03  0.15455195599E+03  0.00000000000E+00 0.  1.
</event>
<event>
 7    1  0.5977291E-006  0.9956444E+02  0.7818608E-02  0.1300293E+00
          2   -1    0    0  502    0  0.00000000000E+00  0.00000000000E+00  0.72455313753E+02  0.72455313753E+02  0.00000000000E+00 0. -1.
          1   -1    0    0  501    0 -0.00000000000E+00 -0.00000000000E+00 -0.16486751277E+04  0.16486751277E+04  0.00000000000E+00 0. -1.
         25    2    1    2    0    0 -0.56655158274E+02  0.94420932588E+01 -0.35487313943E+03  0.38060339842E+03  0.12500016688E+03 0.  0.
          2    1    1    2  501    0  0.60900238602E+02 -0.92625297898E+02 -0.12481240464E+04  0.12530370785E+04  0.00000000000E+00 0. -1.
          1    1    1    2  502    0 -0.42450803280E+01  0.83183204639E+02  0.26777371920E+02  0.87489964499E+02  0.00000000000E+00 0. -1.
         22    1    3    3    0    0 -0.68310418348E+02 -0.26663724396E+02 -0.10622653755E+03  0.12907883147E+03  0.00000000000E+00 0. -1.
         22    1    3    3    0    0  0.11655260073E+02  0.36105817655E+02 -0.24864660188E+03  0.25152456696E+03  0.00000000000E+00 0. -1.
</event>
<event>
 7    1  0.5977291E-006  0.1154721E+03  0.7818608E-02  0.1429731E+00
          2   -1    0    0  502    0  0.00000000000E+00  0.00000000000E+00  0.87015618389E+03  0.87015618389E+03  0.00000000000E+00 0. -1.
          1   -1    0    0  501    0 -0.00000000000E+00 -0.00000000000E+00 -0.44209557798E+03  0.44209557798E+03  0.00000000000E+00 0. -1.
         25    2    1    2    0    0  0.10156971419E+03  0.41807516360E+02 -0.41605420922E+02  0.17152349434E+03  0.12500009118E+03 0.  0.
          2    1    1    2  501    0 -0.11470702157E+03 -0.21318341417E+02 -0.32519695254E+03  0.34549273569E+03  0.00000000000E+00 0. -1.
          1    1    1    2  502    0  0.13137307377E+02 -0.20489174943E+02  0.79486297936E+03  0.79523553183E+03  0.00000000000E+00 0. -1.
         22    1    3    3    0    0  0.83774967371E+02  0.77051351289E+02 -0.59203848318E+02  0.12829751186E+03  0.00000000000E+00 0.  1.
         22    1    3    3    0    0  0.17794746819E+02 -0.35243834929E+02  0.17598427395E+02  0.43225982483E+02  0.00000000000E+00 0.  1.
</event>
<event>
 7    1  0.5977291E-006  0.1288644E+03  0.7818608E-02  0.1254358E+00
          2   -1    0    0  502    0  0.00000000000E+00  0.00000000000E+00  0.38043633322E+04  0.38043633322E+04  0.00000000000E+00 0. -1.
          1   -1    0    0  501    0 -0.00000000000E+00 -0.00000000000E+00 -0.58239278177E+03  0.58239278177E+03  0.00000000000E+00 0. -1.
         25    2    1    2    0    0  0.33897812697E+02  0.16024142592E+03  0.76344444885E+03  0.79075860805E+03  0.12500149376E+03 0.  0.
          2    1    1    2  501    0  0.55692912411E+02 -0.11619407723E+03 -0.56060192962E+03  0.57521933867E+03  0.00000000000E+00 0. -1.
          1    1    1    2  502    0 -0.89590725108E+02 -0.44047348683E+02  0.30191280312E+04  0.30207781672E+04  0.00000000000E+00 0. -1.
         22    1    3    3    0    0  0.68318417119E+02  0.81869280210E+02  0.55964972375E+03  0.56971729696E+03  0.00000000000E+00 0.  1.
         22    1    3    3    0    0 -0.34420604422E+02  0.78372145707E+02  0.20379472510E+03  0.22104131109E+03  0.00000000000E+00 0.  1.
</event>
<event>
 7    1  0.5977291E-006  0.7780666E+02  0.7818608E-02  0.1368797E+00
          2   -1    0    0  502    0  0.00000000000E+00  0.00000000000E+00  0.48964834787E+03  0.48964834787E+03  0.00000000000E+00 0. -1.
          1   -1    0    0  501    0 -0.00000000000E+00 -0.00000000000E+00 -0.65609348723E+02  0.65609348723E+02  0.00000000000E+00 0. -1.
         25    2    1    2    0    0  0.18980701435E+02 -0.18526591906E+02  0.28887102068E+03  0.31585430233E+03  0.12495588052E+03 0.  0.
          2    1    1    2  501    0  0.54433558269E+02 -0.55595546522E+02  0.13223692410E+02  0.78922386557E+02  0.00000000000E+00 0. -1.
          1    1    1    2  502    0 -0.73414259704E+02  0.74122138427E+02  0.12194428606E+03  0.16048100771E+03  0.00000000000E+00 0. -1.
         22    1    3    3    0    0  0.51449603987E+02 -0.32732182261E+02  0.64732496724E+02  0.88931173602E+02  0.00000000000E+00 0. -1.
         22    1    3    3    0    0 -0.32468902552E+02  0.14205590355E+02  0.22413852395E+03  0.22692312872E+03  0.00000000000E+00 0. -1.
</event>
<event>
 7    1  0.5977291E-006  0.8786742E+02  0.7818608E-02  0.1417660E+00
          2   -1    0    0  502    0  0.00000000000E+00  0.00000000000E+00  0.23229952497E+03  0.23229952497E+03  0.00000000000E+00 0. -1.
          1   -1    0    0  501    0 -0.00000000000E+00 -0.00000000000E+00 -0.30170020895E+03  0.30170020895E+03  0.00000000000E+00 0. -1.
         25    2    1    2    0    0  0.74265077687E+02  0.96268520486E+02  0.15821968824E+03  0.23545729827E+03  0.12499495895E+03 0.  0.
          2    1    1    2  501    0 -0.54550947682E+02 -0.67252347513E+02 -0.24466770003E+03  0.25953991519E+03  0.00000000000E+00 0. -1.
          1    1    1    2  502    0 -0.19714130005E+02 -0.29016172973E+02  0.17047327812E+02  0.39002520450E+02  0.00000000000E+00 0. -1.
         22    1    3    3    0    0 -0.35093483663E+02  0.18713575880E+02  0.44223600680E+02  0.59476696066E+02  0.00000000000E+00 0. -1.
         22    1    3    3    0    0  0.10935856135E+03  0.77554944606E+02  0.11399608756E+03  0.17598060221E+03  0.00000000000E+00 0. -1.
</event>
<event>
 7    1  0.5977291E-006  0.8371689E+02  0.7818608E-02  0.1362905E+00
          2   -1    0    0  502    0  0.00000000000E+00  0.00000000000E+00  0.52575949494E+03  0.52575949494E+03  0.00000000000E+00 0. -1.
          1   -1    0    0  501    0 -0.00000000000E+00 -0.00000000000E+00 -0.35033062033E+03  0.35033062033E+03  0.00000000000E+00 0. -1.
         25    2    1    2    0    0 -0.12518478822E+03 -0.48884170614E+02  0.12658389709E+03  0.22295069282E+03  0.12499053999E+03 0.  0.
          2    1    1    2  501    0  0.56278021913E+02  0.10041705284E+02 -0.29491070374E+03  0.30040035749E+03  0.00000000000E+00 0. -1.
          1    1    1    2  502    0  0.68906766309E+02  0.38842465330E+02  0.34375568126E+03  0.35273906497E+03  0.00000000000E+00 0. -1.
         22    1    3    3    0    0 -0.80522942646E+02  0.33504070077E+02  0.79770235297E+02  0.11819372844E+03  0.00000000000E+00 0. -1.
         22    1    3    3    0    0 -0.44661845576E+02 -0.82388240691E+02  0.46813661794E+02  0.10475696437E+03  0.00000000000E+00 0. -1.
</event>
<event>
 7    1  0.5977291E-006  0.9289264E+02  0.7818608E-02  0.1299829E+00
          2   -1    0    0  502    0  0.00000000000E+00  0.00000000000E+00  0.19969930792E+04  0.19969930792E+04  0.00000000000E+00 0. -1.
          1   -1    0    0  501    0 -0.00000000000E+00 -0.00000000000E+00 -0.21785756574E+03  0.21785756574E+03  0.00000000000E+00 0. -1.
         25    2    1    2    0    0  0.81580713182E+01  0.25073761909E+00  0.20753404404E+03  0.24240189630E+03  0.12498673089E+03 0.  0.
          2    1    1    2  501    0 -0.91804785050E+02 -0.32521910456E+02 -0.18738196432E+03  0.21118189735E+03  0.00000000000E+00 0. -1.
          1    1    1    2  502    0  0.83646713732E+02  0.32271172837E+02  0.17589834337E+04  0.17612668513E+04  0.00000000000E+00 0. -1.
         22    1    3    3    0    0  0.35702670079E+02  0.27785060550E+02  0.17644427031E+02  0.48559407387E+02  0.00000000000E+00 0.  1.
         22    1    3    3    0    0 -0.27544598761E+02 -0.27534322931E+02  0.18988961701E+03  0.19384248891E+03  0.00000000000E+00 0.  1.
</event>
<event>
 7    1  0.5977291E-006  0.8355977E+02  0.7818608E-02  0.1444697E+00
          2   -1    0    0  502    0  0.00000000000E+00  0.00000000000E+00  0.97141097542E+02  0.97141097542E+02  0.00000000000E+00 0. -1.
          1   -1    0    0  501    0 -0.00000000000E+00 -0.00000000000E+00 -0.37486260430E+03  0.37486260430E+03  0.00000000000E+00 0. -1.
         25    2    1    2    0    0  0.66716919505E+02  0.73617169654E+01 -0.65531731071E+02  0.15628348480E+03  0.12499911047E+03 0.  0.
          2    1    1    2  501    0  0.17582564191E+02  0.24384009886E+02 -0.22298007837E+03  0.22499742632E+03  0.00000000000E+00 0. -1.
          1    1    1    2  502    0 -0.84299483696E+02 -0.31745726852E+02  0.10790302683E+02  0.90722790724E+02  0.00000000000E+00 0. -1.
         22    1    3    3    0    0  0.51325952243E+02  0.41653754371E+02 -0.89827450726E+02  0.11152739363E+03  0.00000000000E+00 0.  1.
         22    1    3    3    0    0  0.15390967262E+02 -0.34292037405E+02  0.24295719655E+02  0.44756091163E+02  0.00000000000E+00 0.  1.
</event>
<event>
 7    1  0.5977291E-006  0.1796277E+03  0.7818608E-02  0.1303372E+00
          2   -1    0    0  502    0  0.00000000000E+00  0.00000000000E+00  0.12798636871E+04  0.12798636871E+04  0.00000000000E+00 0. -1.
          1   -1    0    0  501    0 -0.00000000000E+00 -0.00000000000E+00 -0.79188126841E+02  0.79188126841E+02  0.00000000000E+00 0. -1.
         25    2    1    2    0    0  0.71524233260E+02  0.16313998022E+03  0.10448956510E+04  0.10673145441E+04  0.12499218162E+03 0.  0.
          2    1    1    2  501    0 -0.38147327377E+02  0.23640236766E+02 -0.20647946253E+01  0.44925969742E+02  0.00000000000E+00 0. -1.
          1    1    1    2  502    0 -0.33376905883E+02 -0.18678021698E+03  0.15784470381E+03  0.24681130003E+03  0.00000000000E+00 0. -1.
         22    1    3    3    0    0  0.59917052491E+01 -0.20074907865E+02  0.65228391585E+02  0.68510185566E+02  0.00000000000E+00 0. -1.
         22    1    3    3    0    0  0.65532528011E+02  0.18321488808E+03  0.97966725946E+03  0.99880435857E+03  0.00000000000E+00 0. -1.
</event>
<event>
 7    1  0.5977291E-006  0.4147016E+02  0.7818608E-02  0.1556384E+00
          2   -1    0    0  502    0  0.00000000000E+00  0.00000000000E+00  0.37099190630E+02  0.37099190630E+02  0.00000000000E+00 0. -1.
          1   -1    0    0  501    0 -0.00000000000E+00 -0.00000000000E+00 -0.27505280608E+04  0.27505280608E+04  0.00000000000E+00 0. -1.
         25    2    1    2    0    0 -0.20152139970E+02 -0.39902567686E+01 -0.18885482420E+04  0.18927917756E+04  0.12499685007E+03 0.  0.
          2    1    1    2  501    0  0.45432630031E+02  0.16266344945E+02 -0.85341911767E+03  0.85478237479E+03  0.00000000000E+00 0. -1.
          1    1    1    2  502    0 -0.25280490061E+02 -0.12276088176E+02  0.28538489509E+02  0.40053101029E+02  0.00000000000E+00 0. -1.
         22    1    3    3    0    0 -0.34879729699E+01  0.24951862052E+02 -0.78679251913E+02  0.82614684270E+02  0.00000000000E+00 0.  1.
         22    1    3    3    0    0 -0.16664167001E+02 -0.28942118821E+02 -0.18098689901E+04  0.18101770914E+04  0.00000000000E+00 0.  1.
</event>
<event>
 7    1  0.5977291E-006  0.1039421E+03  0.7818608E-02  0.1419318E+00
          2   -1    0    0  502    0  0.00000000000E+00  0.00000000000E+00  0.15682970663E+03  0.15682970663E+03  0.00000000000E+00 0. -1.
          1   -1    0    0  501    0 -0.00000000000E+00 -0.00000000000E+00 -0.24200718972E+04  0.24200718972E+04  0.00000000000E+00 0. -1.
         25    2    1    2    0    0  0.90647820460E+02 -0.29150045477E+02 -0.52072940704E+03  0.54392119185E+03  0.12499758028E+03 0.  0.
          2    1    1    2  501    0  0.13677379469E+02  0.25886936688E+02 -0.18688639180E+04  0.18690932422E+04  0.00000000000E+00 0. -1.
          1    1    1    2  502    0 -0.10432519993E+03  0.32631087888E+01  0.12635113448E+03  0.16388716973E+03  0.00000000000E+00 0. -1.
         22    1    3    3    0    0 -0.21036399646E+02 -0.25894718667E+02 -0.23095188964E+03  0.23334918447E+03  0.00000000000E+00 0. -1.
         22    1    3    3    0    0  0.11168422011E+03 -0.32553268097E+01 -0.28977751741E+03  0.31057200738E+03  0.00000000000E+00 0. -1.
</event>
<event>
 7    1  0.5977291E-006  0.2987466E+02  0.7818608E-02  0.1612236E+00
          2   -1    0    0  502    0  0.00000000000E+00  0.00000000000E+00  0.73347666466E+03  0.73347666466E+03  0.00000000000E+00 0. -1.
          1   -1    0    0  501    0 -0.00000000000E+00 -0.00000000000E+00 -0.54681099448E+02  0.54681099448E+02  0.00000000000E+00 0. -1.
         25    2    1    2    0    0  0.12396161669E+02  0.97343497844E+01  0.35621762327E+03  0.37784087267E+03  0.12499723014E+03 0.  0.
          2    1    1    2  501    0 -0.18005706754E+02  0.21027693880E+02 -0.38758641714E+02  0.47629840364E+02  0.00000000000E+00 0. -1.
          1    1    1    2  502    0  0.56095450843E+01 -0.30762043664E+02  0.36133658366E+03  0.36268705107E+03  0.00000000000E+00 0. -1.
         22    1    3    3    0    0  0.15721157028E+02 -0.30601216824E+02  0.32476952306E+03  0.32658663836E+03  0.00000000000E+00 0. -1.
         22    1    3    3    0    0 -0.33249953591E+01  0.40335566609E+02  0.31448100213E+02  0.51254234311E+02  0.00000000000E+00 0. -1.
</event>
<event>
 7    1  0.5977291E-006  0.1083742E+03  0.7818608E-02  0.1263912E+00
          2   -1    0    0  502    0  0.00000000000E+00  0.00000000000E+00  0.54226860349E+03  0.54226860349E+03  0.00000000000E+00 0. -1.
          1   -1    0    0  501    0 -0.00000000000E+00 -0.00000000000E+00 -0.34970532471E+03  0.34970532471E+03  0.00000000000E+00 0. -1.
         25    2    1    2    0    0 -0.15242403231E+02 -0.54134226128E+01  0.59292200029E+02  0.13929208310E+03  0.12500033372E+03 0.  0.
          2    1    1    2  501    0  0.59755072829E+02  0.10387464323E+03 -0.29108349340E+03  0.31478597549E+03  0.00000000000E+00 0. -1.
          1    1    1    2  502    0 -0.44512669598E+02 -0.98461220618E+02  0.42435457215E+03  0.43789586961E+03  0.00000000000E+00 0. -1.
         22    1    3    3    0    0 -0.20140422380E+02  0.57410886001E+02  0.16229598828E+02  0.62968613794E+02  0.00000000000E+00 0.  1.
         22    1    3    3    0    0  0.48980191489E+01 -0.62824308614E+02  0.43062601201E+02  0.76323469304E+02  0.00000000000E+00 0.  1.
</event>
<event>
 7    1  0.5977291E-006  0.8009869E+02  0.7818608E-02  0.1466382E+00
          2   -1    0    0  502    0  0.00000000000E+00  0.00000000000E+00  0.39326925584E+03  0.39326925584E+03  0.00000000000E+00 0. -1.
          1   -1    0    0  501    0 -0.00000000000E+00 -0.00000000000E+00 -0.78371906442E+03  0.78371906442E+03  0.00000000000E+00 0. -1.
         25    2    1    2    0    0 -0.96926679041E+01 -0.53243195939E+02 -0.20347821961E+03  0.24485998118E+03  0.12499695517E+03 0.  0.
          2    1    1    2  501    0 -0.93195583619E+01 -0.25088713791E+02 -0.55486391601E+03  0.55550901255E+03  0.00000000000E+00 0. -1.
          1    1    1    2  502    0  0.19012226266E+02  0.78331909730E+02  0.36789232704E+03  0.37661932654E+03  0.00000000000E+00 0. -1.
         22    1    3    3    0    0 -0.57910974960E+02 -0.11110535512E+02 -0.15088227868E+03  0.16199563895E+03  0.00000000000E+00 0. -1.
         22    1    3    3    0    0  0.48218307056E+02 -0.42132660427E+02 -0.52595940935E+02  0.82864342228E+02  0.00000000000E+00 0. -1.
</event>
<event>
 7    1  0.5977291E-006  0.7902786E+02  0.7818608E-02  0.1378259E+00
          2   -1    0    0  502    0  0.00000000000E+00  0.00000000000E+00  0.98555725289E+02  0.98555725289E+02  0.00000000000E+00 0. -1.
          1   -1    0    0  501    0 -0.00000000000E+00 -0.00000000000E+00 -0.13815019601E+04  0.13815019601E+04  0.00000000000E+00 0. -1.
         25    2    1    2    0    0 -0.76232608843E+02  0.94157848061E+02 -0.69191503625E+03  0.71347641078E+03  0.12500024140E+03 0.  0.
          2    1    1    2  501    0  0.10237152270E+02 -0.52344857374E+02 -0.66013038362E+03  0.66228159174E+03  0.00000000000E+00 0. -1.
          1    1    1    2  502    0  0.65995456573E+02 -0.41812990687E+02  0.69099185036E+02  0.10429968289E+03  0.00000000000E+00 0. -1.
         22    1    3    3    0    0 -0.86500507625E+02  0.21507770522E+02 -0.24784693428E+03  0.26338759432E+03  0.00000000000E+00 0. -1.
         22    1    3    3    0    0  0.10267898782E+02  0.72650077539E+02 -0.44406810197E+03  0.45008881646E+03  0.00000000000E+00 0. -1.
</event>
<event>
 7    1  0.5977291E-006  0.5359083E+02  0.7818608E-02  0.1514097E+00
          2   -1    0    0  502    0  0.00000000000E+00  0.00000000000E+00  0.28222614070E+03  0.28222614070E+03  0.00000000000E+00 0. -1.
          1   -1    0    0  501    0 -0.00000000000E+00 -0.00000000000E+00 -0.25173072969E+03  0.25173072969E+03  0.00000000000E+00 0. -1.
         25    2    1    2    0    0  0.15305262724E+02 -0.70685845703E+02  0.33776231054E+02  0.14830931417E+03  0.12499631608E+03 0.  0.
          2    1    1    2  501    0  0.12351777807E+02  0.25895108007E+02 -0.18974158559E+03  0.19189839065E+03  0.00000000000E+00 0. -1.
          1    1    1    2  502    0 -0.27657040531E+02  0.44790737696E+02  0.18646076554E+03  0.19374916557E+03  0.00000000000E+00 0. -1.
         22    1    3    3    0    0  0.64606334288E+02 -0.92826606302E+01  0.98519528345E+01  0.66009144770E+02  0.00000000000E+00 0.  1.
         22    1    3    3    0    0 -0.49301071564E+02 -0.61403185073E+02  0.23924278219E+02  0.82300169397E+02  0.00000000000E+00 0.  1.
</event>
<event>
 7    1  0.5977291E-006  0.1424360E+03  0.7818608E-02  0.1330485E+00
          2   -1    0    0  502    0  0.00000000000E+00  0.00000000000E+00  0.25647612357E+04  0.25647612357E+04  0.00000000000E+00 0. -1.
          1   -1    0    0  501    0 -0.00000000000E+00 -0.00000000000E+00 -0.11818447338E+03  0.11818447338E+03  0.00000000000E+00 0. -1.
         25    2    1    2    0    0  0.14349186622E+03 -0.54875563909E+02  0.23119126287E+03  0.30442694966E+03  0.12500049786E+03 0.  0.
          2    1    1    2  501    0 -0.14065970124E+03  0.10596707436E+02 -0.20196235817E+02  0.14249677085E+03  0.00000000000E+00 0. -1.
          1    1    1    2  502    0 -0.28321649806E+01  0.44278856474E+02  0.22355817353E+04  0.22360219886E+04  0.00000000000E+00 0. -1.
         22    1    3    3    0    0  0.11530115890E+03  0.20837542524E+02  0.14148757229E+03  0.18370436450E+03  0.00000000000E+00 0. -1.
         22    1    3    3    0    0  0.28190707327E+02 -0.75713106434E+02  0.89703690582E+02  0.12072258517E+03  0.00000000000E+00 0. -1.
</event>
<event>
 7    1  0.5977291E-006  0.1305769E+03  0.7818608E-02  0.1336958E+00
          2   -1    0    0  502    0  0.00000000000E+00  0.00000000000E+00  0.46753640461E+03  0.46753640461E+03  0.00000000000E+00 0. -1.
          1   -1    0    0  501    0 -0.00000000000E+00 -0.00000000000E+00 -0.16405031746E+04  0.16405031746E+04  0.00000000000E+00 0. -1.
         25    2    1    2    0    0  0.12125986056E+03  0.94916936129E+02 -0.58441529091E+03  0.61715314097E+03  0.12499435431E+03 0.  0.
          2    1    1    2  501    0 -0.59954814002E+00 -0.45731017049E+02 -0.10297929143E+04  0.10308079995E+04  0.00000000000E+00 0. -1.
          1    1    1    2  502    0 -0.12066031242E+03 -0.49185919080E+02  0.44124143526E+03  0.46007843877E+03  0.00000000000E+00 0. -1.
         22    1    3    3    0    0  0.15058522787E+02  0.71664918706E+02 -0.12340323411E+03  0.14349556742E+03  0.00000000000E+00 0.  1.
         22    1    3    3    0    0  0.10620133778E+03  0.23252017422E+02 -0.46101205680E+03  0.47365757354E+03  0.00000000000E+00 0.  1.
</event>
<event>
 7    1  0.5977291E-006  0.3694190E+02  0.7818608E-02  0.1537581E+00
          2   -1    0    0  502    0  0.00000000000E+00  0.00000000000E+00  0.82268541752E+03  0.82268541752E+03  0.00000000000E+00 0. -1.
          1   -1    0    0  501    0 -0.00000000000E+00 -0.00000000000E+00 -0.13352027784E+03  0.13352027784E+03  0.00000000000E+00 0. -1.
         25    2    1    2    0    0  0.21604813730E+02  0.59310874339E+02  0.51632994733E+03  0.53498309059E+03  0.12500297964E+03 0.  0.
          2    1    1    2  501    0 -0.27756992225E+02 -0.24230792110E+02 -0.12035936899E+03  0.12587279137E+03  0.00000000000E+00 0. -1.
          1    1    1    2  502    0  0.61521784948E+01 -0.35080082229E+02  0.29319456135E+03  0.29534981340E+03  0.00000000000E+00 0. -1.
         22    1    3    3    0    0  0.32168323118E+02 -0.21036714618E+02  0.32407485529E+03  0.32634622138E+03  0.00000000000E+00 0.  1.
         22    1    3    3    0    0 -0.10563509388E+02  0.80347588957E+02  0.19225509203E+03  0.20863686921E+03  0.00000000000E+00 0.  1.
</event>
<event>
 7    1  0.5977291E-006  0.1545437E+03  0.7818608E-02  0.1202158E+00
          2   -1    0    0  502    0  0.00000000000E+00  0.00000000000E+00  0.38967753615E+04  0.38967753615E+04  0.00000000000E+00 0. -1.
          1   -1    0    0  501    0 -0.00000000000E+00 -0.00000000000E+00 -0.10827132114E+03  0.10827132114E+03  0.00000000000E+00 0. -1.
         25    2    1    2    0    0  0.97446971399E+02 -0.58483427319E+02  0.50745710255E+03  0.53484008229E+03  0.12499991674E+03 0.  0.
          2    1    1    2  501    0 -0.15003365394E+03 -0.74449443417E+02 -0.17646641740E+02  0.16841680707E+03  0.00000000000E+00 0. -1.
          1    1    1    2  502    0  0.52586682543E+02  0.13293287074E+03  0.32986935796E+04  0.33017897933E+04  0.00000000000E+00 0. -1.
         22    1    3    3    0    0  0.31311724837E+02 -0.76320323335E+00  0.37270259680E+03  0.37401635293E+03  0.00000000000E+00 0. -1.
         22    1    3    3    0    0  0.66135246562E+02 -0.57720224086E+02  0.13475450575E+03  0.16082372936E+03  0.00000000000E+00 0. -1.
</event>
<event>
 7    1  0.5977291E-006  0.1145447E+03  0.7818608E-02  0.1292135E+00
          2   -1    0    0  502    0  0.00000000000E+00  0.00000000000E+00  0.39817831712E+03  0.39817831712E+03  0.00000000000E+00 0. -1.
          1   -1    0    0  501    0 -0.00000000000E+00 -0.00000000000E+00 -0.45257461166E+03  0.45257461166E+03  0.00000000000E+00 0. -1.
         25    2    1    2    0    0 -0.92887787724E+02  0.13599872034E+03 -0.35857141647E+02  0.20984393044E+03  0.12499978998E+03 0.  0.
          2    1    1    2  501    0  0.94062525058E+02 -0.57919593688E+02 -0.31527680458E+03  0.33406870769E+03  0.00000000000E+00 0. -1.
          1    1    1    2  502    0 -0.11747373340E+01 -0.78079126654E+02  0.29673765169E+03  0.30684029064E+03  0.00000000000E+00 0. -1.
         22    1    3    3    0    0 -0.10950458511E+03  0.55488683189E+02 -0.34922667654E+02  0.12763166080E+03  0.00000000000E+00 0. -1.
         22    1    3    3    0    0  0.16616797390E+02  0.80510037154E+02 -0.93447399360E+00  0.82212269642E+02  0.00000000000E+00 0. -1.
</event>
<event>
 7    1  0.5977291E-006  0.5377792E+02  0.7818608E-02  0.1456336E+00
          2   -1    0    0  502    0  0.00000000000E+00  0.00000000000E+00  0.40715181458E+03  0.40715181458E+03  0.00000000000E+00 0. -1.
          1   -1    0    0  501    0 -0.00000000000E+00 -0.00000000000E+00 -0.50679258030E+02  0.50679258030E+02  0.00000000000E+00 0. -1.
         25    2    1    2    0    0 -0.20940498256E+02 -0.52469672463E+02  0.18631857587E+03  0.23136880805E+03  0.12500137051E+03 0.  0.
          2    1    1    2  501    0 -0.30417681739E+02  0.30215666240E+02 -0.44513017928E+01  0.43104940973E+02  0.00000000000E+00 0. -1.
          1    1    1    2  502    0  0.51358179995E+02  0.22254006224E+02  0.17460528247E+03  0.18335732358E+03  0.00000000000E+00 0. -1.
         22    1    3    3    0    0 -0.67412469020E+02 -0.87675048339E+01  0.63762014423E+02  0.93203565402E+02  0.00000000000E+00 0. -1.
         22    1    3    3    0    0  0.46471970764E+02 -0.43702167629E+02  0.12255656145E+03  0.13816524265E+03  0.00000000000E+00 0. -1.
</event>
<event>
 7    1  0.5977291E-006  0.7448085E+02  0.7818608E-02  0.1358811E+00
          2   -1    0    0  502    0  0.00000000000E+00  0.00000000000E+00  0.23941832822E+04  0.23941832822E+04  0.00000000000E+00 0. -1.
          1   -1    0    0  501    0 -0.00000000000E+00 -0.00000000000E+00 -0.14742182747E+02  0.14742182747E+02  0.00000000000E+00 0. -1.
         25    2    1    2    0    0 -0.37498587058E+02  0.61401828571E+02  0.12774252354E+04  0.12855413423E+04  0.12499992889E+03 0.  0.
          2    1    1    2  501    0 -0.37400359463E+02 -0.64409708259E+02  0.14112039723E+03  0.15956930758E+03  0.00000000000E+00 0. -1.
          1    1    1    2  502    0  0.74898946521E+02  0.30078796879E+01  0.96089546684E+03  0.96381481506E+03  0.00000000000E+00 0. -1.
         22    1    3    3    0    0 -0.19815331424E+02 -0.13865612695E+02  0.89764891550E+03  0.89797465336E+03  0.00000000000E+00 0. -1.
         22    1    3    3    0    0 -0.17683255634E+02  0.75267441266E+02  0.37977631988E+03  0.38756668895E+03  0.00000000000E+00 0. -1.
</event>
<event>
 7    1  0.6014476E-006  0.6664398E+02  0.7818608E-02  0.1384202E+00
          2   -1    0    0  502    0  0.00000000000E+00  0.00000000000E+00  0.11917417714E+04  0.11917417714E+04  0.00000000000E+00 0. -1.
          1   -1    0    0  501    0 -0.00000000000E+00 -0.00000000000E+00 -0.44074948263E+03  0.44074948263E+03  0.00000000000E+00 0. -1.
         25    2    1    2    0    0  0.34376056644E+02  0.91318555853E+02 -0.13606623101E+03  0.20895113157E+03  0.12500305697E+03 0.  0.
          2    1    1    2  501    0  0.18527106753E+02 -0.62463433065E+02 -0.26348435160E+03  0.27142022344E+03  0.00000000000E+00 0. -1.
          1    1    1    2  502    0 -0.52903163397E+02 -0.28855122788E+02  0.11505428714E+04  0.11521198990E+04  0.00000000000E+00 0. -1.
         22    1    3    3    0    0 -0.44333552804E+02  0.28529740711E+02 -0.22903658728E+02  0.57480323524E+02  0.00000000000E+00 0. -1.
         22    1    3    3    0    0  0.78709609448E+02  0.62788815142E+02 -0.11316257228E+03  0.15147080805E+03  0.00000000000E+00 0. -1.
</event>
<event>
 7    1  0.5977291E-006  0.1330181E+03  0.7818608E-02  0.1349938E+00
          2   -1    0    0  502    0  0.00000000000E+00  0.00000000000E+00  0.48830961020E+02  0.48830961020E+02  0.00000000000E+00 0. -1.
          1   -1    0    0  501    0 -0.00000000000E+00 -0.00000000000E+00 -0.28588486787E+04  0.28588486787E+04  0.00000000000E+00 0. -1.
         25    2    1    2    0    0  0.77796300163E+02 -0.99130636320E+02 -0.21348941842E+03  0.27763637021E+03  0.12500029965E+03 0.  0.
          2    1    1    2  501    0 -0.21266812724E+02 -0.34048513148E+02 -0.22975258542E+04  0.22978765479E+04  0.00000000000E+00 0. -1.
          1    1    1    2  502    0 -0.56529487438E+02  0.13317914947E+03 -0.29900244503E+03  0.33216672160E+03  0.00000000000E+00 0. -1.
         22    1    3    3    0    0  0.97243790409E+02 -0.11464815207E+03 -0.19691271834E+03  0.24774013036E+03  0.00000000000E+00 0.  1.
         22    1    3    3    0    0 -0.19447490247E+02  0.15517515750E+02 -0.16576700083E+02  0.29896239857E+02  0.00000000000E+00 0.  1.
</event>
<event>
 7    1  0.5977291E-006  0.7069013E+02  0.7818608E-02  0.1381729E+00
          2   -1    0    0  502    0  0.00000000000E+00  0.00000000000E+00  0.77028875174E+02  0.77028875174E+02  0.00000000000E+00 0. -1.
          1   -1    0    0  501    0 -0.00000000000E+00 -0.00000000000E+00 -0.15872732063E+04  0.15872732063E+04  0.00000000000E+00 0. -1.
         25    2    1    2    0    0 -0.13994429747E+02  0.58890392744E+02 -0.90794473091E+03  0.91850749322E+03  0.12501383240E+03 0.  0.
          2    1    1    2  501    0  0.57902161013E+02 -0.26703726808E+01 -0.65471363481E+03  0.65727447443E+03  0.00000000000E+00 0. -1.
          1    1    1    2  502    0 -0.43907731267E+02 -0.56220020063E+02  0.52414034619E+02  0.88520113793E+02  0.00000000000E+00 0. -1.
         22    1    3    3    0    0  0.20817019368E+02 -0.13266932146E+02 -0.59363206105E+03  0.59414508640E+03  0.00000000000E+00 0.  1.
         22    1    3    3    0    0 -0.34811449114E+02  0.72157324890E+02 -0.31431266986E+03  0.32436240682E+03  0.00000000000E+00 0.  1.
</event>
<event>
 7    1  0.5977291E-006  0.2464604E+02  0.7818608E-02  0.1685057E+00
          2   -1    0    0  502    0  0.00000000000E+00  0.00000000000E+00  0.15794136762E+04  0.15794136762E+04  0.00000000000E+00 0. -1.
          1   -1    0    0  501    0 -0.00000000000E+00 -0.00000000000E+00 -0.59029565061E+02  0.59029565061E+02  0.00000000000E+00 0. -1.
         25    2    1    2    0    0  0.32885491178E+02 -0.12873104873E+02  0.10281075651E+04  0.10362804028E+04  0.12499894154E+03 0.  0.
          2    1    1    2  501    0 -0.12333957178E+02  0.21328503332E+02 -0.51942837834E+02  0.57489911779E+02  0.00000000000E+00 0. -1.
          1    1    1    2  502    0 -0.20551534000E+02 -0.84553984592E+01  0.54421938383E+03  0.54467292667E+03  0.00000000000E+00 0. -1.
         22    1    3    3    0    0  0.37218202329E+02 -0.64649041661E+02  0.48642472783E+03  0.49211148028E+03  0.00000000000E+00 0. -1.
         22    1    3    3    0    0 -0.43327111507E+01  0.51775936788E+02  0.54168283730E+03  0.54416892252E+03  0.00000000000E+00 0. -1.
</event>
<event>
 7    1  0.5977291E-006  0.7489032E+02  0.7818608E-02  0.1493747E+00
          2   -1    0    0  502    0  0.00000000000E+00  0.00000000000E+00  0.11052957699E+04  0.11052957699E+04  0.00000000000E+00 0. -1.
          1   -1    0    0  501    0 -0.00000000000E+00 -0.00000000000E+00 -0.21409986219E+03  0.21409986219E+03  0.00000000000E+00 0. -1.
         25    2    1    2    0    0 -0.12863854609E+02  0.84076111514E+02  0.92861066303E+02  0.17743086655E+03  0.12499705391E+03 0.  0.
          2    1    1    2  501    0 -0.84553801299E+01 -0.73968520811E+02 -0.16359838885E+03  0.17974222754E+03  0.00000000000E+00 0. -1.
          1    1    1    2  502    0  0.21319234739E+02 -0.10107590703E+02  0.96193323024E+03  0.96222253798E+03  0.00000000000E+00 0. -1.
         22    1    3    3    0    0  0.22552932787E+02  0.98462201906E+02  0.95636097605E+02  0.13910321041E+03  0.00000000000E+00 0. -1.
         22    1    3    3    0    0 -0.35416787396E+02 -0.14386090392E+02 -0.27750313015E+01  0.38327656137E+02  0.00000000000E+00 0. -1.
</event>
<event>
 7    1  0.5977291E-006  0.1405311E+03  0.7818608E-02  0.1338093E+00
          2   -1    0    0  502    0  0.00000000000E+00  0.00000000000E+00  0.38377045160E+03  0.38377045160E+03  0.00000000000E+00 0. -1.
          1   -1    0    0  501    0 -0.00000000000E+00 -0.00000000000E+00 -0.97486293713E+03  0.97486293713E+03  0.00000000000E+00 0. -1.
         25    2    1    2    0    0 -0.56254497370E+02 -0.86724985095E+02  0.12428616658E+02  0.16268234645E+03  0.12500113527E+03 0.  0.
          2    1    1    2  501    0  0.91249970150E+02  0.11008890442E+03 -0.89252170346E+03  0.90390326643E+03  0.00000000000E+00 0. -1.
          1    1    1    2  502    0 -0.34995472780E+02 -0.23363919321E+02  0.28900060128E+03  0.29204777585E+03  0.00000000000E+00 0. -1.
         22    1    3    3    0    0 -0.22827536420E+01  0.23219386635E+02 -0.25406587767E+02  0.34494138369E+02  0.00000000000E+00 0.  1.
         22    1    3    3    0    0 -0.53971743728E+02 -0.10994437173E+03  0.37835204425E+02  0.12818820808E+03  0.00000000000E+00 0.  1.
</event>
<event>
 7    1  0.5977291E-006  0.1018962E+03  0.7818608E-02  0.1324663E+00
          2   -1    0    0  502    0  0.00000000000E+00  0.00000000000E+00  0.10684834995E+04  0.10684834995E+04  0.00000000000E+00 0. -1.
          1   -1    0    0  501    0 -0.00000000000E+00 -0.00000000000E+00 -0.93036722068E+03  0.93036722068E+03  0.00000000000E+00 0. -1.
         25    2    1    2    0    0  0.15194204158E+02 -0.10242519651E+03 -0.30765898085E+02  0.16520597376E+03  0.12499875424E+03 0.  0.
          2    1    1    2  501    0 -0.73087069129E+02  0.72231659538E+02 -0.82813799812E+03  0.83448887125E+03  0.00000000000E+00 0. -1.
          1    1    1    2  502    0  0.57892864971E+02  0.30193536971E+02  0.99702017505E+03  0.99915587520E+03  0.00000000000E+00 0. -1.
         22    1    3    3    0    0 -0.47107141185E+02 -0.84014950813E+02 -0.92148036139E+01  0.96760050209E+02  0.00000000000E+00 0.  1.
         22    1    3    3    0    0  0.62301345343E+02 -0.18410245695E+02 -0.21551094471E+02  0.68445923552E+02  0.00000000000E+00 0.  1.
</event>
<event>
 7    1  0.5977291E-006  0.1252540E+03  0.7818608E-02  0.1403727E+00
          2   -1    0    0  502    0  0.00000000000E+00  0.00000000000E+00  0.18259328721E+04  0.18259328721E+04  0.00000000000E+00 0. -1.
          1   -1    0    0  501    0 -0.00000000000E+00 -0.00000000000E+00 -0.11462984356E+04  0.11462984356E+04  0.00000000000E+00 0. -1.
         25    2    1    2    0    0  0.12291573968E+03 -0.15478282149E+02  0.64801645224E+02  0.18754205891E+03  0.12499965743E+03 0.  0.
          2    1    1    2  501    0  0.19340373487E+01  0.27364094291E+02 -0.10824408401E+04  0.10827883941E+04  0.00000000000E+00 0. -1.
          1    1    1    2  502    0 -0.12484977703E+03 -0.11885812141E+02  0.16972736314E+04  0.17019008547E+04  0.00000000000E+00 0. -1.
         22    1    3    3    0    0  0.46535626179E+02  0.37728037412E+02 -0.18423696788E+02  0.62676964781E+02  0.00000000000E+00 0. -1.
         22    1    3    3    0    0  0.76380113501E+02 -0.53206319561E+02  0.83225342012E+02  0.12486509413E+03  0.00000000000E+00 0. -1.
</event>
<event>
 7    1  0.5977291E-006  0.9342054E+02  0.7818608E-02  0.1317793E+00
          2   -1    0    0  502    0  0.00000000000E+00  0.00000000000E+00  0.15031446379E+03  0.15031446379E+03  0.00000000000E+00 0. -1.
          1   -1    0    0  501    0 -0.00000000000E+00 -0.00000000000E+00 -0.40524201514E+03  0.40524201514E+03  0.00000000000E+00 0. -1.
         25    2    1    2    0    0  0.70239256318E+02  0.10594440929E+03 -0.20253074389E+02  0.17942052754E+03  0.12499507067E+03 0.  0.
          2    1    1    2  501    0  0.42201270779E+01 -0.92206147590E+02 -0.27519282901E+03  0.29026001492E+03  0.00000000000E+00 0. -1.
          1    1    1    2  502    0 -0.74459383396E+02 -0.13738261701E+02  0.40518352053E+02  0.85875936463E+02  0.00000000000E+00 0. -1.
         22    1    3    3    0    0  0.30609305868E+02  0.32608060579E+02  0.52366643424E+02  0.68865670431E+02  0.00000000000E+00 0. -1.
         22    1    3    3    0    0  0.39629950450E+02  0.73336348712E+02 -0.72619717812E+02  0.11055485711E+03  0.00000000000E+00 0. -1.
</event>
<event>
 7    1  0.5977291E-006  0.1595400E+03  0.7818608E-02  0.1312058E+00
          2   -1    0    0  502    0  0.00000000000E+00  0.00000000000E+00  0.18620558922E+04  0.18620558922E+04  0.00000000000E+00 0. -1.
          1   -1    0    0  501    0 -0.00000000000E+00 -0.00000000000E+00 -0.32787274961E+03  0.32787274961E+03  0.00000000000E+00 0. -1.
         25    2    1    2    0    0  0.60094128558E+02 -0.10181572360E+03  0.36495723158E+03  0.40347940001E+03  0.12499639789E+03 0.  0.
          2    1    1    2  501    0 -0.65008725020E+02  0.14824243704E+03 -0.28698614459E+03  0.32948900081E+03  0.00000000000E+00 0. -1.
          1    1    1    2  502    0  0.49145964616E+01 -0.46426713439E+02  0.14562120556E+04  0.14569602410E+04  0.00000000000E+00 0. -1.
         22    1    3    3    0    0  0.10395483459E+02 -0.22646902703E+02 -0.18132250288E+01  0.24984716596E+02  0.00000000000E+00 0. -1.
         22    1    3    3    0    0  0.49698645099E+02 -0.79168820902E+02  0.36677045661E+03  0.37849468341E+03  0.00000000000E+00 0. -1.
</event>
<event>
 7    1  0.5977291E-006  0.3608033E+03  0.7818608E-02  0.1192405E+00
          2   -1    0    0  502    0  0.00000000000E+00  0.00000000000E+00  0.31584918602E+04  0.31584918602E+04  0.00000000000E+00 0. -1.
          1   -1    0    0  501    0 -0.00000000000E+00 -0.00000000000E+00 -0.47684984372E+03  0.47684984372E+03  0.00000000000E+00 0. -1.
         25    2    1    2    0    0  0.21779860300E+03  0.22015173443E+03  0.42574869458E+03  0.54110034625E+03  0.12499846455E+03 0.  0.
          2    1    1    2  501    0 -0.28384554033E+03 -0.23677923134E+03 -0.33715060859E+03  0.50030313614E+03  0.00000000000E+00 0. -1.
          1    1    1    2  502    0  0.66046937332E+02  0.16627496913E+02  0.25930439305E+04  0.25939382215E+04  0.00000000000E+00 0. -1.
         22    1    3    3    0    0  0.12542209472E+03  0.15812001632E+03  0.17638858569E+03  0.26804024803E+03  0.00000000000E+00 0.  1.
         22    1    3    3    0    0  0.92376508276E+02  0.62031718110E+02  0.24936010889E+03  0.27306009822E+03  0.00000000000E+00 0.  1.
</event>
<event>
 7    1  0.5977291E-006  0.4794684E+02  0.7818608E-02  0.1509251E+00
          2   -1    0    0  502    0  0.00000000000E+00  0.00000000000E+00  0.27972880776E+03  0.27972880776E+03  0.00000000000E+00 0. -1.
          1   -1    0    0  501    0 -0.00000000000E+00 -0.00000000000E+00 -0.32212889911E+03  0.32212889911E+03  0.00000000000E+00 0. -1.
         25    2    1    2    0    0  0.37502854036E+02  0.29917725930E+02 -0.19502746147E+03  0.23657250122E+03  0.12501721170E+03 0.  0.
          2    1    1    2  501    0 -0.50451524746E+02  0.58312932272E+00 -0.99196423334E+02  0.11129073093E+03  0.00000000000E+00 0. -1.
          1    1    1    2  502    0  0.12948670710E+02 -0.30500855253E+02  0.25182379345E+03  0.25399447472E+03  0.00000000000E+00 0. -1.
         22    1    3    3    0    0  0.26991225294E+02  0.71817261306E+02 -0.17033296366E+03  0.18681424938E+03  0.00000000000E+00 0.  1.
         22    1    3    3    0    0  0.10511628742E+02 -0.41899535376E+02 -0.24694497809E+02  0.49758251834E+02  0.00000000000E+00 0.  1.
</event>
<event>
 7    1  0.5977291E-006  0.4616988E+02  0.7818608E-02  0.1494780E+00
          2   -1    0    0  502    0  0.00000000000E+00  0.00000000000E+00  0.47630247997E+03  0.47630247997E+03  0.00000000000E+00 0. -1.
          1   -1    0    0  501    0 -0.00000000000E+00 -0.00000000000E+00 -0.89964088694E+03  0.89964088694E+03  0.00000000000E+00 0. -1.
         25    2    1    2    0    0 -0.30172871470E+02  0.14550773562E+02  0.14059003975E+03  0.19107713221E+03  0.12499113566E+03 0.  0.
          2    1    1    2  501    0  0.40728769413E+02  0.21951588160E+02 -0.87261953698E+03  0.87384527303E+03  0.00000000000E+00 0. -1.
          1    1    1    2  502    0 -0.10555897943E+02 -0.36502361722E+02  0.30869109026E+03  0.31102096167E+03  0.00000000000E+00 0. -1.
         22    1    3    3    0    0 -0.64627745381E+02  0.48593939027E+02  0.91657319309E+02  0.12222594064E+03  0.00000000000E+00 0. -1.
         22    1    3    3    0    0  0.34454873911E+02 -0.34043165464E+02  0.48932720436E+02  0.68851191568E+02  0.00000000000E+00 0. -1.
</event>
<event>
 7    1  0.5977291E-006  0.8865253E+02  0.7818608E-02  0.1356939E+00
          2   -1    0    0  502    0  0.00000000000E+00  0.00000000000E+00  0.92905225193E+03  0.92905225193E+03  0.00000000000E+00 0. -1.
          1   -1    0    0  501    0 -0.00000000000E+00 -0.00000000000E+00 -0.85767586962E+02  0.85767586962E+02  0.00000000000E+00 0. -1.
         25    2    1    2    0    0  0.55437956582E+02 -0.18966098984E+02  0.11343316814E+03  0.17867534846E+03  0.12499886629E+03 0.  0.
          2    1    1    2  501    0 -0.67940531483E+02  0.74331666665E+02 -0.33407763245E+01  0.10075848983E+03  0.00000000000E+00 0. -1.
          1    1    1    2  502    0  0.12502574901E+02 -0.55365567681E+02  0.73319227315E+03  0.73538600060E+03  0.00000000000E+00 0. -1.
         22    1    3    3    0    0  0.10836061271E+02  0.52279684774E+02  0.52311570103E+02  0.74746812846E+02  0.00000000000E+00 0.  1.
         22    1    3    3    0    0  0.44601895311E+02 -0.71245783758E+02  0.61121598040E+02  0.10392853562E+03  0.00000000000E+00 0.  1.
</event>
<event>
 7    1  0.5977291E-006  0.1284155E+03  0.7818608E-02  0.1405709E+00
          2   -1    0    0  502    0  0.00000000000E+00  0.00000000000E+00  0.72660575463E+03  0.72660575463E+03  0.00000000000E+00 0. -1.
          1   -1    0    0  501    0 -0.00000000000E+00 -0.00000000000E+00 -0.18446479554E+04  0.18446479554E+04  0.00000000000E+00 0. -1.
         25    2    1    2    0    0 -0.13373126065E+03  0.46907715029E+02  0.36738269057E+03  0.41313323175E+03  0.12499856814E+03 0.  0.
          2    1    1    2  501    0  0.12652456728E+03 -0.21569550160E+02 -0.18189920737E+04  0.18235147040E+04  0.00000000000E+00 0. -1.
          1    1    1    2  502    0  0.72066933710E+01 -0.25338164870E+02  0.33356718235E+03  0.33460577426E+03  0.00000000000E+00 0. -1.
         22    1    3    3    0    0 -0.38081311031E+02  0.59562830225E+02  0.66120168120E+02  0.96797694324E+02  0.00000000000E+00 0.  1.
         22    1    3    3    0    0 -0.95649949620E+02 -0.12655115196E+02  0.30126252245E+03  0.31633553743E+03  0.00000000000E+00 0.  1.
</event>
<event>
 7    1  0.5977291E-006  0.1214709E+03  0.7818608E-02  0.1420720E+00
          2   -1    0    0  502    0  0.00000000000E+00  0.00000000000E+00  0.45448401628E+02  0.45448401628E+02  0.00000000000E+00 0. -1.
          1   -1    0    0  501    0 -0.00000000000E+00 -0.00000000000E+00 -0.27577114852E+04  0.27577114852E+04  0.00000000000E+00 0. -1.
         25    2    1    2    0    0 -0.12391747993E+03 -0.64883767962E+02 -0.23338376819E+03  0.29942939319E+03  0.12499813229E+03 0.  0.
          2    1    1    2  501    0  0.99393864348E+02  0.68469609677E+02 -0.24758175431E+04  0.24787576999E+04  0.00000000000E+00 0. -1.
          1    1    1    2  502    0  0.24523615578E+02 -0.35858417155E+01 -0.30617722957E+01  0.24972793825E+02  0.00000000000E+00 0. -1.
         22    1    3    3    0    0  0.14881482461E+02  0.19963248406E+02 -0.32150590479E+02  0.40665098983E+02  0.00000000000E+00 0.  1.
         22    1    3    3    0    0 -0.13879896239E+03 -0.84847016367E+02 -0.20123317771E+03  0.25876429421E+03  0.00000000000E+00 0.  1.
</event>
<event>
 7    1  0.5977291E-006  0.2732382E+02  0.7818608E-02  0.1682087E+00
          2   -1    0    0  502    0  0.00000000000E+00  0.00000000000E+00  0.68216942570E+03  0.68216942570E+03  0.00000000000E+00 0. -1.
          1   -1    0    0  501    0 -0.00000000000E+00 -0.00000000000E+00 -0.96026570879E+03  0.96026570879E+03  0.00000000000E+00 0. -1.
         25    2    1    2    0    0 -0.40629837960E+01  0.87835768014E+01  0.56181876634E+01  0.12549967795E+03  0.12499978430E+03 0.  0.
          2    1    1    2  501    0  0.23916946917E+02 -0.13340149772E+02 -0.89994838015E+03  0.90036496316E+03  0.00000000000E+00 0. -1.
          1    1    1    2  502    0 -0.19853963121E+02  0.45565729706E+01  0.61623390940E+03  0.61657049338E+03  0.00000000000E+00 0. -1.
         22    1    3    3    0    0 -0.16911830509E+00  0.66438261470E+02 -0.54558414968E+01  0.66662113637E+02  0.00000000000E+00 0.  1.
         22    1    3    3    0    0 -0.38938654909E+01 -0.57654684668E+02  0.11074029160E+02  0.58837564315E+02  0.00000000000E+00 0.  1.
</event>
<event>
 7    1  0.5977291E-006  0.1323311E+03  0.7818608E-02  0.1390363E+00
          2   -1    0    0  502    0  0.00000000000E+00  0.00000000000E+00  0.25349888903E+03  0.25349888903E+03  0.00000000000E+00 0. -1.
          1   -1    0    0  501    0 -0.00000000000E+00 -0.00000000000E+00 -0.12796600315E+04  0.12796600315E+04  0.00000000000E+00 0. -1.
         25    2    1    2    0    0 -0.85272352959E+02  0.12973137971E+03 -0.73431982961E+02  0.21240939608E+03  0.12499556137E+03 0.  0.
          2    1    1    2  501    0  0.83761245265E+02 -0.10089422217E+03 -0.11317970074E+04  0.11393682707E+04  0.00000000000E+00 0. -1.
          1    1    1    2  502    0  0.15111076943E+01 -0.28837157537E+02  0.17906784785E+03  0.18138125381E+03  0.00000000000E+00 0. -1.
         22    1    3    3    0    0 -0.57988929760E+02  0.68737918013E+02  0.25091031399E+02  0.93365824605E+02  0.00000000000E+00 0. -1.
         22    1    3    3    0    0 -0.27283423199E+02  0.60993461693E+02 -0.98523014360E+02  0.11904357147E+03  0.00000000000E+00 0. -1.
</event>
<event>
 7    1  0.5977291E-006  0.2558233E+03  0.7818608E-02  0.1118223E+00
          2   -1    0    0  502    0  0.00000000000E+00  0.00000000000E+00  0.10868468793E+04  0.10868468793E+04  0.00000000000E+00 0. -1.
          1   -1    0    0  501    0 -0.00000000000E+00 -0.00000000000E+00 -0.90059335861E+03  0.90059335861E+03  0.00000000000E+00 0. -1.
         25    2    1    2    0    0  0.90456812232E+01 -0.54480650629E+02 -0.10169955851E+03  0.17034848011E+03  0.12500335528E+03 0.  0.
          2    1    1    2  501    0  0.19918471898E+02 -0.22876199499E+03 -0.72729050585E+03  0.76267966786E+03  0.00000000000E+00 0. -1.
          1    1    1    2  502    0 -0.28964153121E+02  0.28324264562E+03  0.10152435851E+04  0.10544120900E+04  0.00000000000E+00 0. -1.
         22    1    3    3    0    0  0.41599892656E+02  0.50856152238E+01  0.67067779620E+01  0.42442848889E+02  0.00000000000E+00 0.  1.
         22    1    3    3    0    0 -0.32554211433E+02 -0.59566265853E+02 -0.10840633647E+03  0.12790563122E+03  0.00000000000E+00 0.  1.
</event>
<event>
 7    1  0.5977291E-006  0.7313305E+02  0.7818608E-02  0.1499581E+00
          2   -1    0    0  502    0  0.00000000000E+00  0.00000000000E+00  0.81150535675E+02  0.81150535675E+02  0.00000000000E+00 0. -1.
          1   -1    0    0  501    0 -0.00000000000E+00 -0.00000000000E+00 -0.18476372092E+04  0.18476372092E+04  0.00000000000E+00 0. -1.
         25    2    1    2    0    0 -0.85373861088E+02 -0.11182250148E+02 -0.64353391671E+02  0.16485960888E+03  0.12499437086E+03 0.  0.
          2    1    1    2  501    0  0.16397641561E+02  0.16422441057E+02 -0.16941331288E+04  0.16942920756E+04  0.00000000000E+00 0. -1.
          1    1    1    2  502    0  0.68976219528E+02 -0.52401909087E+01 -0.80001530382E+01  0.69636060412E+02  0.00000000000E+00 0. -1.
         22    1    3    3    0    0 -0.11644596861E+03 -0.18275919221E+02 -0.61255352378E+02  0.13283783732E+03  0.00000000000E+00 0. -1.
         22    1    3    3    0    0  0.31072107521E+02  0.70936690726E+01 -0.30980392932E+01  0.32021771565E+02  0.00000000000E+00 0. -1.
</event>
<event>
 7    1  0.5977291E-006  0.1052435E+03  0.7818608E-02  0.1353749E+00
          2   -1    0    0  502    0  0.00000000000E+00  0.00000000000E+00  0.21870000392E+03  0.21870000392E+03  0.00000000000E+00 0. -1.
          1   -1    0    0  501    0 -0.00000000000E+00 -0.00000000000E+00 -0.87461275002E+03  0.87461275002E+03  0.00000000000E+00 0. -1.
         25    2    1    2    0    0  0.51394606940E+02 -0.57445947111E+02  0.72611173036E+02  0.16382712856E+03  0.12500201254E+03 0.  0.
          2    1    1    2  501    0 -0.30368256874E+02  0.10183843133E+03 -0.81935797800E+03  0.82622078964E+03  0.00000000000E+00 0. -1.
          1    1    1    2  502    0 -0.21026350066E+02 -0.44392484215E+02  0.90834058863E+02  0.10326483575E+03  0.00000000000E+00 0. -1.
         22    1    3    3    0    0 -0.25832279608E+02  0.17182725748E+02 -0.48642636244E+01  0.31404041054E+02  0.00000000000E+00 0. -1.
         22    1    3    3    0    0  0.77226886548E+02 -0.74628672859E+02  0.77475436661E+02  0.13242308751E+03  0.00000000000E+00 0. -1.
</event>
<event>
 7    1  0.5977291E-006  0.9630911E+02  0.7818608E-02  0.1426292E+00
          2   -1    0    0  502    0  0.00000000000E+00  0.00000000000E+00  0.17096719628E+03  0.17096719628E+03  0.00000000000E+00 0. -1.
          1   -1    0    0  501    0 -0.00000000000E+00 -0.00000000000E+00 -0.16299470229E+04  0.16299470229E+04  0.00000000000E+00 0. -1.
         25    2    1    2    0    0 -0.71236852002E+02 -0.15043799144E+02  0.72759122238E+02  0.16196006891E+03  0.12504466832E+03 0.  0.
          2    1    1    2  501    0  0.96622211111E+02 -0.85864508557E+00 -0.15795671164E+04  0.15825197831E+04  0.00000000000E+00 0. -1.
          1    1    1    2  502    0 -0.25385359108E+02  0.15902444230E+02  0.47828167484E+02  0.56434367140E+02  0.00000000000E+00 0. -1.
         22    1    3    3    0    0 -0.14507890387E+02  0.52114979979E+02  0.12928389441E+02  0.55620079785E+02  0.00000000000E+00 0. -1.
         22    1    3    3    0    0 -0.56728961616E+02 -0.67158779124E+02  0.59830732797E+02  0.10633998912E+03  0.00000000000E+00 0. -1.
</event>
<event>
 7    1  0.5977291E-006  0.8131903E+02  0.7818608E-02  0.1413798E+00
          2   -1    0    0  502    0  0.00000000000E+00  0.00000000000E+00  0.64952947828E+03  0.64952947828E+03  0.00000000000E+00 0. -1.
          1   -1    0    0  501    0 -0.00000000000E+00 -0.00000000000E+00 -0.83618736074E+03  0.83618736074E+03  0.00000000000E+00 0. -1.
         25    2    1    2    0    0  0.76790642602E+02 -0.46206536243E+02  0.38234644609E+03  0.41212375346E+03  0.12500134617E+03 0.  0.
          2    1    1    2  501    0  0.32567209675E+01  0.38918373281E+02 -0.81441693446E+03  0.81535280042E+03  0.00000000000E+00 0. -1.
          1    1    1    2  502    0 -0.80047363570E+02  0.72881629620E+01  0.24541260591E+03  0.25824028515E+03  0.00000000000E+00 0. -1.
         22    1    3    3    0    0  0.42720599055E+01  0.38121347397E+02  0.14535794749E+03  0.15033436241E+03  0.00000000000E+00 0.  1.
         22    1    3    3    0    0  0.72518582697E+02 -0.84327883640E+02  0.23698849860E+03  0.26178939105E+03  0.00000000000E+00 0.  1.
</event>
<event>
 7    1  0.5977291E-006  0.1108780E+03  0.7818608E-02  0.1350722E+00
          2   -1    0    0  502    0  0.00000000000E+00  0.00000000000E+00  0.63469009834E+02  0.63469009834E+02  0.00000000000E+00 0. -1.
          1   -1    0    0  501    0 -0.00000000000E+00 -0.00000000000E+00 -0.25409997370E+04  0.25409997370E+04  0.00000000000E+00 0. -1.
         25    2    1    2    0    0 -0.86972797999E+02  0.61932737705E+02 -0.14190114417E+04  0.14285038718E+04  0.12501963187E+03 0.  0.
          2    1    1    2  501    0  0.32408607855E+02  0.35189806239E+02 -0.10633828331E+04  0.10644584022E+04  0.00000000000E+00 0. -1.
          1    1    1    2  502    0  0.54564190145E+02 -0.97122543944E+02  0.48635476573E+01  0.11150647284E+03  0.00000000000E+00 0. -1.
         22    1    3    3    0    0  0.94567955738E+01 -0.25471368189E+02 -0.44602862702E+03  0.44685541029E+03  0.00000000000E+00 0. -1.
         22    1    3    3    0    0 -0.96429593573E+02  0.87404105894E+02 -0.97298281470E+03  0.98164846149E+03  0.00000000000E+00 0. -1.
</event>
<event>
 7    1  0.5977291E-006  0.7150058E+02  0.7818608E-02  0.1388122E+00
          2   -1    0    0  502    0  0.00000000000E+00  0.00000000000E+00  0.29771299055E+04  0.29771299055E+04  0.00000000000E+00 0. -1.
          1   -1    0    0  501    0 -0.00000000000E+00 -0.00000000000E+00 -0.39455712943E+03  0.39455712943E+03  0.00000000000E+00 0. -1.
         25    2    1    2    0    0 -0.69178301088E+01  0.16070003633E+02  0.45449171804E+03  0.47169272237E+03  0.12500080474E+03 0.  0.
          2    1    1    2  501    0  0.31173028878E+02 -0.64781294758E+02 -0.38231144923E+03  0.38901210533E+03  0.00000000000E+00 0. -1.
          1    1    1    2  502    0 -0.24255198769E+02  0.48711291125E+02  0.25103925073E+04  0.25109822073E+04  0.00000000000E+00 0. -1.
         22    1    3    3    0    0 -0.22728287055E+02  0.66467591411E+02  0.30972748746E+03  0.31759350156E+03  0.00000000000E+00 0. -1.
         22    1    3    3    0    0  0.15810456946E+02 -0.50397587778E+02  0.14476423057E+03  0.15409922082E+03  0.00000000000E+00 0. -1.
</event>
<event>
 7    1  0.5977291E-006  0.1600461E+03  0.7818608E-02  0.1266631E+00
          2   -1    0    0  502    0  0.00000000000E+00  0.00000000000E+00  0.71941872967E+03  0.71941872967E+03  0.00000000000E+00 0. -1.
          1   -1    0    0  501    0 -0.00000000000E+00 -0.00000000000E+00 -0.67906939416E+03  0.67906939416E+03  0.00000000000E+00 0. -1.
         25    2    1    2    0    0  0.11258395990E+03  0.61959540467E+02 -0.24607380683E+03  0.30445264051E+03  0.12499983689E+03 0.  0.
          2    1    1    2  501    0 -0.17938026390E+02  0.68961158106E+02 -0.39109000866E+03  0.39752837508E+03  0.00000000000E+00 0. -1.
          1    1    1    2  502    0 -0.94645933509E+02 -0.13092069857E+03  0.67751315100E+03  0.69650710824E+03  0.00000000000E+00 0. -1.
         22    1    3    3    0    0  0.85038550086E+02  0.88381354059E+02 -0.11571277903E+03  0.16861869996E+03  0.00000000000E+00 0.  1.
         22    1    3    3    0    0  0.27545409813E+02 -0.26421813592E+02 -0.13036102780E+03  0.13583394054E+03  0.00000000000E+00 0.  1.
</event>
<event>
 7    1  0.5977291E-006  0.1936378E+03  0.7818608E-02  0.1274820E+00
          2   -1    0    0  502    0  0.00000000000E+00  0.00000000000E+00  0.86607964970E+03  0.86607964970E+03  0.00000000000E+00 0. -1.
          1   -1    0    0  501    0 -0.00000000000E+00 -0.00000000000E+00 -0.11082587497E+04  0.11082587497E+04  0.00000000000E+00 0. -1.
         25    2    1    2    0    0  0.20340066009E+03  0.10482266608E+03  0.43828340091E+03  0.50997755978E+03  0.12500060850E+03 0.  0.
          2    1    1    2  501    0 -0.49828696223E+02 -0.21868798157E+02 -0.10522415181E+04  0.10536476430E+04  0.00000000000E+00 0. -1.
          1    1    1    2  502    0 -0.15357196387E+03 -0.82953867920E+02  0.37177901714E+03  0.41071319662E+03  0.00000000000E+00 0. -1.
         22    1    3    3    0    0  0.11148198685E+03  0.13950115905E+01  0.12499777812E+03  0.16749514616E+03  0.00000000000E+00 0. -1.
         22    1    3    3    0    0  0.91918673236E+02  0.10342765449E+03  0.31328562278E+03  0.34248241363E+03  0.00000000000E+00 0. -1.
</event>
<event>
 7    1  0.5977291E-006  0.4362267E+02  0.7818608E-02  0.1588370E+00
          2   -1    0    0  502    0  0.00000000000E+00  0.00000000000E+00  0.10337858217E+04  0.10337858217E+04  0.00000000000E+00 0. -1.
          1   -1    0    0  501    0 -0.00000000000E+00 -0.00000000000E+00 -0.66734414782E+03  0.66734414782E+03  0.00000000000E+00 0. -1.
         25    2    1    2    0    0  0.50104155216E+02 -0.29313857356E+02 -0.20343967350E+03  0.24573141290E+03  0.12500599158E+03 0.  0.
          2    1    1    2  501    0 -0.73845356045E+01  0.20601540791E+02 -0.44201846835E+03  0.44255991821E+03  0.00000000000E+00 0. -1.
          1    1    1    2  502    0 -0.42719619612E+02  0.87123165642E+01  0.10118998157E+04  0.10128386384E+04  0.00000000000E+00 0. -1.
         22    1    3    3    0    0 -0.21471177967E+02 -0.48726843158E+02 -0.41134358763E+02  0.67285601716E+02  0.00000000000E+00 0. -1.
         22    1    3    3    0    0  0.71575333183E+02  0.19412985802E+02 -0.16230531474E+03  0.17844581119E+03  0.00000000000E+00 0. -1.
</event>
<event>
 7    1  0.5977291E-006  0.7519326E+02  0.7818608E-02  0.1360767E+00
          2   -1    0    0  502    0  0.00000000000E+00  0.00000000000E+00  0.15116647816E+04  0.15116647816E+04  0.00000000000E+00 0. -1.
          1   -1    0    0  501    0 -0.00000000000E+00 -0.00000000000E+00 -0.81168213886E+02  0.81168213886E+02  0.00000000000E+00 0. -1.
         25    2    1    2    0    0  0.55138466982E+02 -0.79951834901E+02  0.80229204643E+03  0.81775929104E+03  0.12500073548E+03 0.  0.
          2    1    1    2  501    0  0.94419935725E+01  0.74650294588E+02 -0.52207649651E+02  0.91583057422E+02  0.00000000000E+00 0. -1.
          1    1    1    2  502    0 -0.64580460555E+02  0.53015403126E+01  0.68041217088E+03  0.68349064697E+03  0.00000000000E+00 0. -1.
         22    1    3    3    0    0  0.22197991176E+02 -0.33334643248E+02  0.53677956540E+02  0.66972175349E+02  0.00000000000E+00 0. -1.
         22    1    3    3    0    0  0.32940475807E+02 -0.46617191653E+02  0.74861408989E+03  0.75078711569E+03  0.00000000000E+00 0. -1.
</event>
<event>
 7    1  0.5977291E-006  0.2846380E+02  0.7818608E-02  0.1640818E+00
          2   -1    0    0  502    0  0.00000000000E+00  0.00000000000E+00  0.62260532901E+03  0.62260532901E+03  0.00000000000E+00 0. -1.
          1   -1    0    0  501    0 -0.00000000000E+00 -0.00000000000E+00 -0.27695729367E+03  0.27695729367E+03  0.00000000000E+00 0. -1.
         25    2    1    2    0    0 -0.48336196437E+02 -0.21490878134E+02  0.18352172392E+02  0.13696727960E+03  0.12499995088E+03 0.  0.
          2    1    1    2  501    0  0.22185327327E+02  0.10641312854E+02 -0.21658494301E+03  0.21797812694E+03  0.00000000000E+00 0. -1.
          1    1    1    2  502    0  0.26150869109E+02  0.10849565280E+02  0.54388080596E+03  0.54461721614E+03  0.00000000000E+00 0. -1.
         22    1    3    3    0    0 -0.61599950108E+02 -0.57405620861E+02  0.39744256586E+02  0.93110499361E+02  0.00000000000E+00 0.  1.
         22    1    3    3    0    0  0.13263753671E+02  0.35914742727E+02 -0.21392084194E+02  0.43856780237E+02  0.00000000000E+00 0.  1.
</event>
<event>
 7    1  0.5977291E-006  0.6420236E+02  0.7818608E-02  0.1394133E+00
          2   -1    0    0  502    0  0.00000000000E+00  0.00000000000E+00  0.73689271715E+03  0.73689271715E+03  0.00000000000E+00 0. -1.
          1   -1    0    0  501    0 -0.00000000000E+00 -0.00000000000E+00 -0.10104178654E+04  0.10104178654E+04  0.00000000000E+00 0. -1.
         25    2    1    2    0    0  0.13718443289E+02 -0.69602024143E+02 -0.87798549823E+02  0.16841968850E+03  0.12499587463E+03 0.  0.
          2    1    1    2  501    0  0.40718444223E+02  0.50325351581E+02 -0.87992077567E+03  0.88229881796E+03  0.00000000000E+00 0. -1.
          1    1    1    2  502    0 -0.54436887512E+02  0.19276672562E+02  0.69419417722E+03  0.69659207612E+03  0.00000000000E+00 0. -1.
         22    1    3    3    0    0  0.59746185528E+02 -0.66050446316E+00 -0.47051683904E+02  0.76051981628E+02  0.00000000000E+00 0.  1.
         22    1    3    3    0    0 -0.46027742239E+02 -0.68941519680E+02 -0.40746865919E+02  0.92367706876E+02  0.00000000000E+00 0.  1.
</event>
<event>
 7    1  0.5977291E-006  0.1264829E+03  0.7818608E-02  0.1276920E+00
          2   -1    0    0  502    0  0.00000000000E+00  0.00000000000E+00  0.10894107581E+04  0.10894107581E+04  0.00000000000E+00 0. -1.
          1   -1    0    0  501    0 -0.00000000000E+00 -0.00000000000E+00 -0.38665759920E+03  0.38665759920E+03  0.00000000000E+00 0. -1.
         25    2    1    2    0    0 -0.80164675938E+02  0.16851061768E+03 -0.13291019997E+03  0.26098229545E+03  0.12499773495E+03 0.  0.
          2    1    1    2  501    0  0.24135141746E+02 -0.10912025814E+03 -0.17145575009E+03  0.20466267379E+03  0.00000000000E+00 0. -1.
          1    1    1    2  502    0  0.56029534192E+02 -0.59390359536E+02  0.10071191089E+04  0.10104233880E+04  0.00000000000E+00 0. -1.
         22    1    3    3    0    0 -0.10790377139E+03  0.14266006746E+03 -0.13327478979E+03  0.22306341772E+03  0.00000000000E+00 0. -1.
         22    1    3    3    0    0  0.27739095452E+02  0.25850550216E+02  0.36458982114E+00  0.37918877736E+02  0.00000000000E+00 0. -1.
</event>
<event>
 7    1  0.5977291E-006  0.1184803E+03  0.7818608E-02  0.1373984E+00
          2   -1    0    0  502    0  0.00000000000E+00  0.00000000000E+00  0.36395447921E+03  0.36395447921E+03  0.00000000000E+00 0. -1.
          1   -1    0    0  501    0 -0.00000000000E+00 -0.00000000000E+00 -0.58229284505E+03  0.58229284505E+03  0.00000000000E+00 0. -1.
         25    2    1    2    0    0 -0.55048762574E+02  0.95853770352E+02 -0.45648052581E+03  0.48602253321E+03  0.12500048317E+03 0.  0.
          2    1    1    2  501    0 -0.33077343931E+02 -0.16232883303E+02 -0.97478331743E+02  0.10420960772E+03  0.00000000000E+00 0. -1.
          1    1    1    2  502    0  0.88126106504E+02 -0.79620887049E+02  0.33562049171E+03  0.35601518333E+03  0.00000000000E+00 0. -1.
         22    1    3    3    0    0  0.35405244069E+02  0.33091088856E+02 -0.77771664675E+02  0.91635054949E+02  0.00000000000E+00 0. -1.
         22    1    3    3    0    0 -0.90454006642E+02  0.62762681496E+02 -0.37870886113E+03  0.39438747826E+03  0.00000000000E+00 0. -1.
</event>
<event>
 7    1  0.5977291E-006  0.5544330E+02  0.7818608E-02  0.1439492E+00
          2   -1    0    0  502    0  0.00000000000E+00  0.00000000000E+00  0.59163349865E+03  0.59163349865E+03  0.00000000000E+00 0. -1.
          1   -1    0    0  501    0 -0.00000000000E+00 -0.00000000000E+00 -0.48287132619E+03  0.48287132619E+03  0.00000000000E+00 0. -1.
         25    2    1    2    0    0 -0.19830112341E+02  0.30160502115E+02 -0.14474527568E+03  0.19462590433E+03  0.12500063425E+03 0.  0.
          2    1    1    2  501    0  0.42218519591E+02  0.20877638541E+02 -0.31003258964E+03  0.31358967749E+03  0.00000000000E+00 0. -1.
          1    1    1    2  502    0 -0.22388407250E+02 -0.51038140656E+02  0.56354003778E+03  0.56628924302E+03  0.00000000000E+00 0. -1.
         22    1    3    3    0    0 -0.18178879093E+02  0.10286020630E+02 -0.16493204921E+03  0.16624937510E+03  0.00000000000E+00 0. -1.
         22    1    3    3    0    0 -0.16512332479E+01  0.19874481485E+02  0.20186773532E+02  0.28376529230E+02  0.00000000000E+00 0. -1.
</event>
<event>
 7    1  0.5977291E-006  0.1220174E+03  0.7818608E-02  0.1374427E+00
          2   -1    0    0  502    0  0.00000000000E+00  0.00000000000E+00  0.46088019159E+03  0.46088019159E+03  0.00000000000E+00 0. -1.
          1   -1    0    0  501    0 -0.00000000000E+00 -0.00000000000E+00 -0.13333636394E+04  0.13333636394E+04  0.00000000000E+00 0. -1.
         25    2    1    2    0    0 -0.30953782262E+02 -0.90584917318E+02 -0.10837954229E+03  0.19113755996E+03  0.12499471092E+03 0.  0.
          2    1    1    2  501    0 -0.31838653348E+02 -0.16032911572E+02 -0.11742046261E+04  0.11747456142E+04  0.00000000000E+00 0. -1.
          1    1    1    2  502    0  0.62792435610E+02  0.10661782889E+03  0.41010072052E+03  0.42836065690E+03  0.00000000000E+00 0. -1.
         22    1    3    3    0    0  0.43981303341E+01  0.30540756384E+02 -0.26918662778E+02  0.40947475585E+02  0.00000000000E+00 0. -1.
         22    1    3    3    0    0 -0.35351912596E+02 -0.12112567370E+03 -0.81460879516E+02  0.15019008438E+03  0.00000000000E+00 0. -1.
</event>
<event>
 7    1  0.5977291E-006  0.8438903E+02  0.7818608E-02  0.1328579E+00
          2   -1    0    0  502    0  0.00000000000E+00  0.00000000000E+00  0.29593802237E+03  0.29593802237E+03  0.00000000000E+00 0. -1.
          1   -1    0    0  501    0 -0.00000000000E+00 -0.00000000000E+00 -0.56891381219E+03  0.56891381219E+03  0.00000000000E+00 0. -1.
         25    2    1    2    0    0  0.11465570888E+03 -0.21386561161E+02 -0.67303301930E+02  0.18373481893E+03  0.12500173062E+03 0.  0.
          2    1    1    2  501    0 -0.41969080564E+02  0.63547453115E+02 -0.43253725981E+03  0.43919035012E+03  0.00000000000E+00 0. -1.
          1    1    1    2  502    0 -0.72686628312E+02 -0.42160891953E+02  0.22686477192E+03  0.24192666551E+03  0.00000000000E+00 0. -1.
         22    1    3    3    0    0  0.10149611271E+03  0.59884733552E+01 -0.97526916088E+02  0.14088584766E+03  0.00000000000E+00 0.  1.
         22    1    3    3    0    0  0.13159596168E+02 -0.27375034517E+02  0.30223614158E+02  0.42848971270E+02  0.00000000000E+00 0.  1.
</event>
<event>
 7    1  0.5977291E-006  0.5785208E+02  0.7818608E-02  0.1511612E+00
          2   -1    0    0  502    0  0.00000000000E+00  0.00000000000E+00  0.11763227662E+04  0.11763227662E+04  0.00000000000E+00 0. -1.
          1   -1    0    0  501    0 -0.00000000000E+00 -0.00000000000E+00 -0.18094054164E+03  0.18094054164E+03  0.00000000000E+00 0. -1.
         25    2    1    2    0    0 -0.42665401206E+02  0.58826845922E+02  0.13580940872E+03  0.19836851199E+03  0.12499974717E+03 0.  0.
          2    1    1    2  501    0  0.26801366610E+02 -0.34818417556E+01 -0.14761199705E+03  0.15006577940E+03  0.00000000000E+00 0. -1.
          1    1    1    2  502    0  0.15864034596E+02 -0.55345004166E+02  0.10071848129E+04  0.10088290164E+04  0.00000000000E+00 0. -1.
         22    1    3    3    0    0 -0.10986680109E+02 -0.35563172062E+02  0.69207332619E+02  0.78581812369E+02  0.00000000000E+00 0.  1.
         22    1    3    3    0    0 -0.31678721097E+02  0.94390017984E+02  0.66602076099E+02  0.11978669962E+03  0.00000000000E+00 0.  1.
</event>
<event>
 7    1  0.5977291E-006  0.3746721E+02  0.7818608E-02  0.1563929E+00
          2   -1    0    0  502    0  0.00000000000E+00  0.00000000000E+00  0.65264586395E+03  0.65264586395E+03  0.00000000000E+00 0. -1.
          1   -1    0    0  501    0 -0.00000000000E+00 -0.00000000000E+00 -0.25321734550E+03  0.25321734550E+03  0.00000000000E+00 0. -1.
         25    2    1    2    0    0 -0.49741046422E+01  0.64382084983E+02 -0.20158137757E+02  0.14213496987E+03  0.12500481814E+03 0.  0.
          2    1    1    2  501    0 -0.65445450184E+01 -0.28922516215E+02 -0.17020018318E+03  0.17276413218E+03  0.00000000000E+00 0. -1.
          1    1    1    2  502    0  0.11518649661E+02 -0.35459568769E+02  0.58978683939E+03  0.59096410739E+03  0.00000000000E+00 0. -1.
         22    1    3    3    0    0 -0.20004124860E+01 -0.37826696045E+02 -0.11152142378E+02  0.39487097429E+02  0.00000000000E+00 0.  1.
         22    1    3    3    0    0 -0.29736921562E+01  0.10220878103E+03 -0.90059953783E+01  0.10264787244E+03  0.00000000000E+00 0.  1.
</event>
<event>
 7    1  0.5977291E-006  0.1465593E+03  0.7818608E-02  0.1274261E+00
          2   -1    0    0  502    0  0.00000000000E+00  0.00000000000E+00  0.13039437834E+04  0.13039437834E+04  0.00000000000E+00 0. -1.
          1   -1    0    0  501    0 -0.00000000000E+00 -0.00000000000E+00 -0.22510331710E+03  0.22510331710E+03  0.00000000000E+00 0. -1.
         25    2    1    2    0    0 -0.12862754541E+02  0.13696297956E+03  0.13364193128E+03  0.22892938232E+03  0.12499675224E+03 0.  0.
          2    1    1    2  501    0 -0.59402842922E+02 -0.13854192954E+03 -0.14403326751E+03  0.20849015838E+03  0.00000000000E+00 0. -1.
          1    1    1    2  502    0  0.72265597463E+02  0.15789499879E+01  0.10892318026E+04  0.10916275598E+04  0.00000000000E+00 0. -1.
         22    1    3    3    0    0 -0.24504630801E+02  0.22858598486E+02 -0.18592545966E+02  0.38323298670E+02  0.00000000000E+00 0.  1.
         22    1    3    3    0    0  0.11641876260E+02  0.11410438107E+03  0.15223447724E+03  0.19060608365E+03  0.00000000000E+00 0.  1.
</event>
<event>
 7    1  0.5977291E-006  0.4796364E+02  0.7818608E-02  0.1475849E+00
          2   -1    0    0  502    0  0.00000000000E+00  0.00000000000E+00  0.18491975479E+03  0.18491975479E+03  0.00000000000E+00 0. -1.
          1   -1    0    0  501    0 -0.00000000000E+00 -0.00000000000E+00 -0.21093534826E+04  0.21093534826E+04  0.00000000000E+00 0. -1.
         25    2    1    2    0    0  0.45906514059E+02  0.13437309097E+02 -0.19320120305E+03  0.23502974169E+03  0.12499722119E+03 0.  0.
          2    1    1    2  501    0 -0.64746467100E+01 -0.41264355352E+02 -0.18914519243E+04  0.18919130661E+04  0.00000000000E+00 0. -1.
          1    1    1    2  502    0 -0.39431867349E+02  0.27827046255E+02  0.16021939953E+03  0.16733042954E+03  0.00000000000E+00 0. -1.
         22    1    3    3    0    0 -0.25551672660E+02  0.39521319223E+02 -0.32380641815E+02  0.57125551316E+02  0.00000000000E+00 0. -1.
         22    1    3    3    0    0  0.71458186720E+02 -0.26084010126E+02 -0.16082056124E+03  0.17790419037E+03  0.00000000000E+00 0. -1.
</event>
<event>
 7    1  0.5977291E-006  0.4439712E+02  0.7818608E-02  0.1567645E+00
          2   -1    0    0  502    0  0.00000000000E+00  0.00000000000E+00  0.43506935649E+03  0.43506935649E+03  0.00000000000E+00 0. -1.
          1   -1    0    0  501    0 -0.00000000000E+00 -0.00000000000E+00 -0.14021215874E+03  0.14021215874E+03  0.00000000000E+00 0. -1.
         25    2    1    2    0    0 -0.31767393474E+02  0.59496113650E+02  0.51781585628E+02  0.15117718751E+03  0.12499701831E+03 0.  0.
          2    1    1    2  501    0  0.22662206942E+02 -0.36808089968E+02 -0.84872782510E+02  0.95245998980E+02  0.00000000000E+00 0. -1.
          1    1    1    2  502    0  0.91051865321E+01 -0.22688023682E+02  0.32794839463E+03  0.32885832873E+03  0.00000000000E+00 0. -1.
         22    1    3    3    0    0 -0.72013497159E+02  0.32092397495E+02  0.63341655947E+02  0.10113372893E+03  0.00000000000E+00 0.  1.
         22    1    3    3    0    0  0.40246103685E+02  0.27403716155E+02 -0.11560070319E+02  0.50043458581E+02  0.00000000000E+00 0.  1.
</event>
<event>
 7    1  0.5977291E-006  0.1320514E+03  0.7818608E-02  0.1408448E+00
          2   -1    0    0  502    0  0.00000000000E+00  0.00000000000E+00  0.81874199383E+03  0.81874199383E+03  0.00000000000E+00 0. -1.
          1   -1    0    0  501    0 -0.00000000000E+00 -0.00000000000E+00 -0.37066983729E+03  0.37066983729E+03  0.00000000000E+00 0. -1.
         25    2    1    2    0    0 -0.10110763308E+03  0.98226504823E+02  0.49231836429E+03  0.52713690184E+03  0.12499896702E+03 0.  0.
          2    1    1    2  501    0 -0.15816406919E+01 -0.25023908883E+02 -0.33991306554E+03  0.34083660268E+03  0.00000000000E+00 0. -1.
          1    1    1    2  502    0  0.10268927377E+03 -0.73202595940E+02  0.29566685780E+03  0.32143832659E+03  0.00000000000E+00 0. -1.
         22    1    3    3    0    0 -0.82067050361E+02  0.12587605160E+03  0.34964860542E+03  0.38057053012E+03  0.00000000000E+00 0.  1.
         22    1    3    3    0    0 -0.19040582721E+02 -0.27649546774E+02  0.14266975886E+03  0.14656637173E+03  0.00000000000E+00 0.  1.
</event>
<event>
 7    1  0.5977291E-006  0.1046195E+03  0.7818608E-02  0.1346241E+00
          2   -1    0    0  502    0  0.00000000000E+00  0.00000000000E+00  0.87960685629E+03  0.87960685629E+03  0.00000000000E+00 0. -1.
          1   -1    0    0  501    0 -0.00000000000E+00 -0.00000000000E+00 -0.53681704887E+03  0.53681704887E+03  0.00000000000E+00 0. -1.
         25    2    1    2    0    0 -0.11480826212E+03 -0.55674739897E+02  0.58357546442E+02  0.18791438423E+03  0.12500239542E+03 0.  0.
          2    1    1    2  501    0  0.47260928257E+02 -0.23276532826E+02 -0.46698265144E+03  0.46994487875E+03  0.00000000000E+00 0. -1.
          1    1    1    2  502    0  0.67547333859E+02  0.78951272723E+02  0.75141491242E+03  0.75856464219E+03  0.00000000000E+00 0. -1.
         22    1    3    3    0    0 -0.44073067938E+02 -0.88509557772E+02  0.19479949886E+02  0.10077621536E+03  0.00000000000E+00 0. -1.
         22    1    3    3    0    0 -0.70735194178E+02  0.32834817875E+02  0.38877596555E+02  0.87138168871E+02  0.00000000000E+00 0. -1.
</event>
<event>
 7    1  0.5977291E-006  0.5355320E+02  0.7818608E-02  0.1534762E+00
          2   -1    0    0  502    0  0.00000000000E+00  0.00000000000E+00  0.34508337039E+03  0.34508337039E+03  0.00000000000E+00 0. -1.
          1   -1    0    0  501    0 -0.00000000000E+00 -0.00000000000E+00 -0.17767865546E+04  0.17767865546E+04  0.00000000000E+00 0. -1.
         25    2    1    2    0    0 -0.36652794302E+02  0.15114973187E+02  0.11015763682E+03  0.17126692286E+03  0.12500305665E+03 0.  0.
          2    1    1    2  501    0 -0.19860111880E+01  0.24946643297E+02 -0.17423508472E+04  0.17425305604E+04  0.00000000000E+00 0. -1.
          1    1    1    2  502    0  0.38638805490E+02 -0.40061616484E+02  0.20049002617E+03  0.20807244171E+03  0.00000000000E+00 0. -1.
         22    1    3    3    0    0  0.82444945810E+01  0.24594154226E+02  0.12130327412E+03  0.12404567072E+03  0.00000000000E+00 0. -1.
         22    1    3    3    0    0 -0.44897288883E+02 -0.94791810387E+01 -0.11145637301E+02  0.47221252133E+02  0.00000000000E+00 0. -1.
</event>
<event>
 7    1  0.5977291E-006  0.9701603E+02  0.7818608E-02  0.1315126E+00
          2   -1    0    0  502    0  0.00000000000E+00  0.00000000000E+00  0.95900808059E+03  0.95900808059E+03  0.00000000000E+00 0. -1.
          1   -1    0    0  501    0 -0.00000000000E+00 -0.00000000000E+00 -0.74469670608E+03  0.74469670608E+03  0.00000000000E+00 0. -1.
         25    2    1    2    0    0 -0.18014419128E+02 -0.93260339709E+02  0.15342760344E+03  0.21951816311E+03  0.12500473662E+03 0.  0.
          2    1    1    2  501    0  0.81399415159E+02  0.53774857432E+02 -0.70648683837E+03  0.71319089512E+03  0.00000000000E+00 0. -1.
          1    1    1    2  502    0 -0.63384996032E+02  0.39485482277E+02  0.76737060945E+03  0.77099572845E+03  0.00000000000E+00 0. -1.
         22    1    3    3    0    0 -0.28239495378E+02  0.21226758518E+02  0.66872744850E+02  0.75630737007E+02  0.00000000000E+00 0. -1.
         22    1    3    3    0    0  0.10225076250E+02 -0.11448709823E+03  0.86554858588E+02  0.14388742610E+03  0.00000000000E+00 0. -1.
</event>
<event>
 7    1  0.5977291E-006  0.1825476E+03  0.7818608E-02  0.1318048E+00
          2   -1    0    0  502    0  0.00000000000E+00  0.00000000000E+00  0.79989764558E+02  0.79989764558E+02  0.00000000000E+00 0. -1.
          1   -1    0    0  501    0 -0.00000000000E+00 -0.00000000000E+00 -0.31098579924E+04  0.31098579924E+04  0.00000000000E+00 0. -1.
         25    2    1    2    0    0 -0.13033972041E+02  0.19712565552E+03 -0.89634615054E+03  0.92633142894E+03  0.12500034466E+03 0.  0.
          2    1    1    2  501    0 -0.20731361382E+02 -0.17829753638E+03 -0.21887520977E+04  0.21961000765E+04  0.00000000000E+00 0. -1.
          1    1    1    2  502    0  0.33765333423E+02 -0.18828119137E+02  0.55230020414E+02  0.67416251500E+02  0.00000000000E+00 0. -1.
         22    1    3    3    0    0  0.13230686175E+02  0.19607474363E+03 -0.66308358931E+03  0.69159251193E+03  0.00000000000E+00 0. -1.
         22    1    3    3    0    0 -0.26264658216E+02  0.10509118813E+01 -0.23326256123E+03  0.23473891701E+03  0.00000000000E+00 0. -1.
</event>
<event>
 7    1  0.5977291E-006  0.4233692E+02  0.7818608E-02  0.1577059E+00
          2   -1    0    0  502    0  0.00000000000E+00  0.00000000000E+00  0.13088149467E+03  0.13088149467E+03  0.00000000000E+00 0. -1.
          1   -1    0    0  501    0 -0.00000000000E+00 -0.00000000000E+00 -0.54168732879E+03  0.54168732879E+03  0.00000000000E+00 0. -1.
         25    2    1    2    0    0  0.49286117186E+02 -0.38888928949E+02 -0.10575465630E+03  0.17535962022E+03  0.12500191571E+03 0.  0.
          2    1    1    2  501    0 -0.11450899725E+02  0.21290883478E+02 -0.39621370477E+03  0.39695053177E+03  0.00000000000E+00 0. -1.
          1    1    1    2  502    0 -0.37835217461E+02  0.17598045471E+02  0.91162526958E+02  0.10025867148E+03  0.00000000000E+00 0. -1.
         22    1    3    3    0    0  0.55884916900E+02  0.26275441171E+02 -0.15193533908E+02  0.63595331733E+02  0.00000000000E+00 0.  1.
         22    1    3    3    0    0 -0.65987997140E+01 -0.65164370120E+02 -0.90561122395E+02  0.11176428848E+03  0.00000000000E+00 0.  1.
</event>
<event>
 7    1  0.5977291E-006  0.3654501E+02  0.7818608E-02  0.1535576E+00
          2   -1    0    0  502    0  0.00000000000E+00  0.00000000000E+00  0.13478541176E+04  0.13478541176E+04  0.00000000000E+00 0. -1.
          1   -1    0    0  501    0 -0.00000000000E+00 -0.00000000000E+00 -0.76027730932E+02  0.76027730932E+02  0.00000000000E+00 0. -1.
         25    2    1    2    0    0 -0.21286754322E+02  0.31283724242E+02  0.10805716361E+04  0.10884354887E+04  0.12499982051E+03 0.  0.
          2    1    1    2  501    0  0.35773819546E+02  0.71297871100E+01 -0.65745893842E+02  0.75187250157E+02  0.00000000000E+00 0. -1.
          1    1    1    2  502    0 -0.14487065224E+02 -0.38413511352E+02  0.25700064446E+03  0.26025910967E+03  0.00000000000E+00 0. -1.
         22    1    3    3    0    0 -0.12179088062E+02 -0.12309819286E+02  0.18167014789E+02  0.25097853757E+02  0.00000000000E+00 0.  1.
         22    1    3    3    0    0 -0.91076662599E+01  0.43593543528E+02  0.10624046213E+04  0.10633376350E+04  0.00000000000E+00 0.  1.
</event>
<event>
 7    1  0.5977291E-006  0.6775325E+02  0.7818608E-02  0.1376913E+00
          2   -1    0    0  502    0  0.00000000000E+00  0.00000000000E+00  0.13121314147E+04  0.13121314147E+04  0.00000000000E+00 0. -1.
          1   -1    0    0  501    0 -0.00000000000E+00 -0.00000000000E+00 -0.24565932038E+03  0.24565932038E+03  0.00000000000E+00 0. -1.
         25    2    1    2    0    0  0.87910780559E+02 -0.72877484577E+02  0.23126431980E+03  0.28661302389E+03  0.12499762701E+03 0.  0.
          2    1    1    2  501    0 -0.61786796010E+02  0.11789832886E+02 -0.21237288629E+03  0.22149232752E+03  0.00000000000E+00 0. -1.
          1    1    1    2  502    0 -0.26123984549E+02  0.61087651691E+02  0.10475806609E+04  0.10496853837E+04  0.00000000000E+00 0. -1.
         22    1    3    3    0    0  0.38042507814E+02  0.15077676017E+02  0.82440208836E+01  0.41743653352E+02  0.00000000000E+00 0. -1.
         22    1    3    3    0    0  0.49868272745E+02 -0.87955160594E+02  0.22302029891E+03  0.24486937054E+03  0.00000000000E+00 0. -1.
</event>
<event>
 7    1  0.5977291E-006  0.5521729E+02  0.7818608E-02  0.1514736E+00
          2   -1    0    0  502    0  0.00000000000E+00  0.00000000000E+00  0.64663465241E+03  0.64663465241E+03  0.00000000000E+00 0. -1.
          1   -1    0    0  501    0 -0.00000000000E+00 -0.00000000000E+00 -0.26465552463E+03  0.26465552463E+03  0.00000000000E+00 0. -1.
         25    2    1    2    0    0 -0.32453430280E+02  0.53523091711E+02  0.65012386999E+02  0.15417194223E+03  0.12499772328E+03 0.  0.
          2    1    1    2  501    0 -0.14089112532E+02 -0.23878692891E+02 -0.21777705189E+03  0.21953482502E+03  0.00000000000E+00 0. -1.
          1    1    1    2  502    0  0.46542542813E+02 -0.29644398820E+02  0.53474379267E+03  0.53758340979E+03  0.00000000000E+00 0. -1.
         22    1    3    3    0    0  0.14232927124E+02  0.79097375300E+02  0.16275996687E+02  0.81999262570E+02  0.00000000000E+00 0. -1.
         22    1    3    3    0    0 -0.46686357404E+02 -0.25574283590E+02  0.48736390313E+02  0.72172679661E+02  0.00000000000E+00 0. -1.
</event>
<event>
 7    1  0.5977291E-006  0.3403986E+02  0.7818608E-02  0.1620638E+00
          2   -1    0    0  502    0  0.00000000000E+00  0.00000000000E+00  0.19630609788E+03  0.19630609788E+03  0.00000000000E+00 0. -1.
          1   -1    0    0  501    0 -0.00000000000E+00 -0.00000000000E+00 -0.77703491573E+02  0.77703491573E+02  0.00000000000E+00 0. -1.
         25    2    1    2    0    0  0.12226816439E+02 -0.13298934934E+02  0.28209418370E+02  0.12940634949E+03  0.12499550109E+03 0.  0.
          2    1    1    2  501    0 -0.85002482319E+01  0.36119293652E+02 -0.12491520707E+02  0.39152211731E+02  0.00000000000E+00 0. -1.
          1    1    1    2  502    0 -0.37265682071E+01 -0.22820358717E+02  0.10288470864E+03  0.10545102823E+03  0.00000000000E+00 0. -1.
         22    1    3    3    0    0 -0.38896639771E+02  0.26566663608E+02 -0.17319516328E+02  0.50186670009E+02  0.00000000000E+00 0. -1.
         22    1    3    3    0    0  0.51123456210E+02 -0.39865598543E+02  0.45528934698E+02  0.79219679479E+02  0.00000000000E+00 0. -1.
</event>
<event>
 7    1  0.5977291E-006  0.8012671E+02  0.7818608E-02  0.1359344E+00
          2   -1    0    0  502    0  0.00000000000E+00  0.00000000000E+00  0.29515996337E+04  0.29515996337E+04  0.00000000000E+00 0. -1.
          1   -1    0    0  501    0 -0.00000000000E+00 -0.00000000000E+00 -0.16919226768E+03  0.16919226768E+03  0.00000000000E+00 0. -1.
         25    2    1    2    0    0 -0.55618015420E+02 -0.20252608728E+02  0.19107543431E+03  0.23587884963E+03  0.12500191321E+03 0.  0.
          2    1    1    2  501    0  0.30504965488E+02  0.76434868157E+02 -0.13488109302E+03  0.15800554182E+03  0.00000000000E+00 0. -1.
          1    1    1    2  502    0  0.25113049932E+02 -0.56182259429E+02  0.27262130247E+04  0.27269075099E+04  0.00000000000E+00 0. -1.
         22    1    3    3    0    0  0.22196568566E+02 -0.14920417017E+02  0.14026383825E+03  0.14279093396E+03  0.00000000000E+00 0. -1.
         22    1    3    3    0    0 -0.77814583986E+02 -0.53321917107E+01  0.50811596052E+02  0.93087915664E+02  0.00000000000E+00 0. -1.
</event>
<event>
 7    1  0.5977291E-006  0.5628067E+02  0.7818608E-02  0.1476299E+00
          2   -1    0    0  502    0  0.00000000000E+00  0.00000000000E+00  0.12954216924E+04  0.12954216924E+04  0.00000000000E+00 0. -1.
          1   -1    0    0  501    0 -0.00000000000E+00 -0.00000000000E+00 -0.46466614867E+03  0.46466614867E+03  0.00000000000E+00 0. -1.
         25    2    1    2    0    0  0.40717778908E+02 -0.36086960169E+01  0.83396649407E+03  0.84427233806E+03  0.12499882947E+03 0.  0.
          2    1    1    2  501    0  0.13081439851E+02 -0.32983652198E+02 -0.45650187167E+03  0.45787880953E+03  0.00000000000E+00 0. -1.
          1    1    1    2  502    0 -0.53799218759E+02  0.36592348215E+02  0.45329092135E+03  0.45793669351E+03  0.00000000000E+00 0. -1.
         22    1    3    3    0    0  0.77282756767E+02  0.14234699445E+02  0.35563266146E+03  0.36421125883E+03  0.00000000000E+00 0.  1.
         22    1    3    3    0    0 -0.36564977859E+02 -0.17843395462E+02  0.47833383261E+03  0.48006107922E+03  0.00000000000E+00 0.  1.
</event>
<event>
 7    1  0.5977291E-006  0.6893843E+02  0.7818608E-02  0.1414685E+00
          2   -1    0    0  502    0  0.00000000000E+00  0.00000000000E+00  0.22838094847E+03  0.22838094847E+03  0.00000000000E+00 0. -1.
          1   -1    0    0  501    0 -0.00000000000E+00 -0.00000000000E+00 -0.82822344741E+03  0.82822344741E+03  0.00000000000E+00 0. -1.
         25    2    1    2    0    0  0.74933842028E+02  0.23558372353E+02 -0.49839195626E+02  0.15581732777E+03  0.12500006649E+03 0.  0.
          2    1    1    2  501    0 -0.90865240980E+01 -0.44841271199E+02 -0.71781250316E+03  0.71926913893E+03  0.00000000000E+00 0. -1.
          1    1    1    2  502    0 -0.65847317930E+02  0.21282898846E+02  0.16780919985E+03  0.18151792918E+03  0.00000000000E+00 0. -1.
         22    1    3    3    0    0  0.10069399927E+03  0.52500621441E+01 -0.49931370037E+01  0.10095432659E+03  0.00000000000E+00 0.  1.
         22    1    3    3    0    0 -0.25760157238E+02  0.18308310209E+02 -0.44846058622E+02  0.54863001172E+02  0.00000000000E+00 0.  1.
</event>
<event>
 7    1  0.5977291E-006  0.5868424E+02  0.7818608E-02  0.1433502E+00
          2   -1    0    0  502    0  0.00000000000E+00  0.00000000000E+00  0.98979837710E+03  0.98979837710E+03  0.00000000000E+00 0. -1.
          1   -1    0    0  501    0 -0.00000000000E+00 -0.00000000000E+00 -0.40720672332E+02  0.40720672332E+02  0.00000000000E+00 0. -1.
         25    2    1    2    0    0 -0.73135925792E+02  0.68277579734E+02  0.46152090632E+03  0.48850518315E+03  0.12500030182E+03 0.  0.
          2    1    1    2  501    0  0.37708188847E+02 -0.27286310395E+02 -0.47023973482E+01  0.46782077571E+02  0.00000000000E+00 0. -1.
          1    1    1    2  502    0  0.35427736945E+02 -0.40991269339E+02  0.49225919579E+03  0.49523178871E+03  0.00000000000E+00 0. -1.
         22    1    3    3    0    0  0.97309113100E+01  0.61108368001E+02  0.10046220334E+03  0.11798973504E+03  0.00000000000E+00 0. -1.
         22    1    3    3    0    0 -0.82866837102E+02  0.71692117323E+01  0.36105870299E+03  0.37051544812E+03  0.00000000000E+00 0. -1.
</event>
<event>
 7    1  0.5977291E-006  0.3067901E+03  0.7818608E-02  0.1190115E+00
          2   -1    0    0  502    0  0.00000000000E+00  0.00000000000E+00  0.89999631840E+03  0.89999631840E+03  0.00000000000E+00 0. -1.
          1   -1    0    0  501    0 -0.00000000000E+00 -0.00000000000E+00 -0.48422748040E+03  0.48422748040E+03  0.00000000000E+00 0. -1.
         25    2    1    2    0    0 -0.18813156295E+03 -0.25315357377E+03  0.37969917168E+03  0.50919190290E+03  0.12499886446E+03 0.  0.
          2    1    1    2  501    0 -0.51044902223E+02  0.64361956143E+02 -0.36342549945E+03  0.37259379637E+03  0.00000000000E+00 0. -1.
          1    1    1    2  502    0  0.23917646517E+03  0.18879161763E+03  0.39949516578E+03  0.50243809953E+03  0.00000000000E+00 0. -1.
         22    1    3    3    0    0  0.13474242371E+02 -0.84269378668E+00  0.47174591512E+01  0.14301040561E+02  0.00000000000E+00 0. -1.
         22    1    3    3    0    0 -0.20160580532E+03 -0.25231087998E+03  0.37498171253E+03  0.49489086234E+03  0.00000000000E+00 0. -1.
</event>
<event>
 7    1  0.5977291E-006  0.1245368E+03  0.7818608E-02  0.1292743E+00
          2   -1    0    0  502    0  0.00000000000E+00  0.00000000000E+00  0.97981896039E+03  0.97981896039E+03  0.00000000000E+00 0. -1.
          1   -1    0    0  501    0 -0.00000000000E+00 -0.00000000000E+00 -0.14839662866E+04  0.14839662866E+04  0.00000000000E+00 0. -1.
         25    2    1    2    0    0 -0.39006087177E+02  0.18268113523E+03 -0.26599068336E+03  0.34823452354E+03  0.12498947051E+03 0.  0.
          2    1    1    2  501    0  0.40356644167E+02 -0.58920349836E+02 -0.11716819861E+04  0.11738564405E+04  0.00000000000E+00 0. -1.
          1    1    1    2  502    0 -0.13505569897E+01 -0.12376078540E+03  0.93352534327E+03  0.94169428294E+03  0.00000000000E+00 0. -1.
         22    1    3    3    0    0  0.38455296752E+02  0.34334491404E+02 -0.32424470076E+02  0.60901669993E+02  0.00000000000E+00 0.  1.
         22    1    3    3    0    0 -0.77461383929E+02  0.14834664383E+03 -0.23356621329E+03  0.28733285354E+03  0.00000000000E+00 0.  1.
</event>
<event>
 7    1  0.5977291E-006  0.9021697E+02  0.7818608E-02  0.1372150E+00
          2   -1    0    0  502    0  0.00000000000E+00  0.00000000000E+00  0.14316757351E+04  0.14316757351E+04  0.00000000000E+00 0. -1.
          1   -1    0    0  501    0 -0.00000000000E+00 -0.00000000000E+00 -0.20933898315E+04  0.20933898315E+04  0.00000000000E+00 0. -1.
         25    2    1    2    0    0  0.82399244209E+02  0.47480111545E+02 -0.56243993701E+02  0.16683362604E+03  0.12500430197E+03 0.  0.
          2    1    1    2  501    0 -0.90362580713E+02  0.99588700671E+00 -0.19803819703E+04  0.19824427195E+04  0.00000000000E+00 0. -1.
          1    1    1    2  502    0  0.79633365047E+01 -0.48475998552E+02  0.13749118676E+04  0.13757892211E+04  0.00000000000E+00 0. -1.
         22    1    3    3    0    0  0.53557588884E+02 -0.36560417755E+02 -0.69344790732E+01  0.65216305273E+02  0.00000000000E+00 0.  1.
         22    1    3    3    0    0  0.28841655325E+02  0.84040529300E+02 -0.49309514628E+02  0.10161732077E+03  0.00000000000E+00 0.  1.
</event>
<event>
 7    1  0.5977291E-006  0.1894681E+03  0.7818608E-02  0.1252111E+00
          2   -1    0    0  502    0  0.00000000000E+00  0.00000000000E+00  0.90970116393E+03  0.90970116393E+03  0.00000000000E+00 0. -1.
          1   -1    0    0  501    0 -0.00000000000E+00 -0.00000000000E+00 -0.30612960370E+03  0.30612960370E+03  0.00000000000E+00 0. -1.
         25    2    1    2    0    0 -0.49148951245E+02  0.15569437102E+03  0.24000664055E+03  0.31604567345E+03  0.12500129449E+03 0.  0.
          2    1    1    2  501    0 -0.68698796924E+02  0.10073752694E+02 -0.24682287510E+03  0.25640307499E+03  0.00000000000E+00 0. -1.
          1    1    1    2  502    0  0.11784774817E+03 -0.16576812372E+03  0.61038779478E+03  0.64338201918E+03  0.00000000000E+00 0. -1.
         22    1    3    3    0    0 -0.79781348451E+02  0.85463122014E+02  0.19448668668E+03  0.22692307084E+03  0.00000000000E+00 0. -1.
         22    1    3    3    0    0  0.30632397206E+02  0.70231249010E+02  0.45519953869E+02  0.89122602612E+02  0.00000000000E+00 0. -1.
</event>
<event>
 7    1  0.5977291E-006  0.1893243E+03  0.7818608E-02  0.1294753E+00
          2   -1    0    0  502    0  0.00000000000E+00  0.00000000000E+00  0.46439487449E+03  0.46439487449E+03  0.00000000000E+00 0. -1.
          1   -1    0    0  501    0 -0.00000000000E+00 -0.00000000000E+00 -0.17340921505E+04  0.17340921505E+04  0.00000000000E+00 0. -1.
         25    2    1    2    0    0 -0.25784862862E+01 -0.18593204864E+03 -0.10791054836E+04  0.11021212338E+04  0.12500077604E+03 0.  0.
          2    1    1    2  501    0  0.46081928757E+02  0.15080532525E+01 -0.62276928611E+03  0.62447370009E+03  0.00000000000E+00 0. -1.
          1    1    1    2  502    0 -0.43503442471E+02  0.18442399539E+03  0.43217749368E+03  0.47189209108E+03  0.00000000000E+00 0. -1.
         22    1    3    3    0    0  0.59445465130E+02 -0.88761869272E+02 -0.44684848710E+03  0.45944096812E+03  0.00000000000E+00 0. -1.
         22    1    3    3    0    0 -0.62023951416E+02 -0.97170179373E+02 -0.63225699651E+03  0.64268026572E+03  0.00000000000E+00 0. -1.
</event>
<event>
 7    1  0.5977291E-006  0.3060008E+02  0.7818608E-02  0.1648036E+00
          2   -1    0    0  502    0  0.00000000000E+00  0.00000000000E+00  0.62782161837E+02  0.62782161837E+02  0.00000000000E+00 0. -1.
          1   -1    0    0  501    0 -0.00000000000E+00 -0.00000000000E+00 -0.58919651705E+03  0.58919651705E+03  0.00000000000E+00 0. -1.
         25    2    1    2    0    0 -0.38808138065E+02  0.33310492467E+02 -0.19124246843E+03  0.23412843419E+03  0.12500712571E+03 0.  0.
          2    1    1    2  501    0  0.19485702102E+02 -0.22860415468E+02 -0.37294564062E+03  0.37415336700E+03  0.00000000000E+00 0. -1.
          1    1    1    2  502    0  0.19322435963E+02 -0.10450076999E+02  0.37773753840E+02  0.43696877692E+02  0.00000000000E+00 0. -1.
         22    1    3    3    0    0 -0.74208148525E+02  0.43337842095E+02 -0.81709109362E+02  0.11858075905E+03  0.00000000000E+00 0. -1.
         22    1    3    3    0    0  0.35400010459E+02 -0.10027349628E+02 -0.10953335907E+03  0.11554767514E+03  0.00000000000E+00 0. -1.
</event>
<event>
 7    1  0.5977291E-006  0.1027310E+03  0.7818608E-02  0.1338312E+00
          2   -1    0    0  502    0  0.00000000000E+00  0.00000000000E+00  0.19921095336E+04  0.19921095336E+04  0.00000000000E+00 0. -1.
          1   -1    0    0  501    0 -0.00000000000E+00 -0.00000000000E+00 -0.85992874255E+03  0.85992874255E+03  0.00000000000E+00 0. -1.
         25    2    1    2    0    0 -0.53257698907E+02  0.83113334677E+02  0.62223781469E+03  0.64230338465E+03  0.12501812269E+03 0.  0.
          2    1    1    2  501    0 -0.70579594032E+00 -0.10282658704E+03 -0.84617520176E+03  0.85240030339E+03  0.00000000000E+00 0. -1.
          1    1    1    2  502    0  0.53963494847E+02  0.19713252360E+02  0.13561181782E+04  0.13573345882E+04  0.00000000000E+00 0. -1.
         22    1    3    3    0    0 -0.27744927706E+02  0.80708921719E+02  0.17878266460E+03  0.19810843551E+03  0.00000000000E+00 0.  1.
         22    1    3    3    0    0 -0.25512771201E+02  0.24044129579E+01  0.44345515009E+03  0.44419494913E+03  0.00000000000E+00 0.  1.
</event>
<event>
 7    1  0.5977291E-006  0.1355156E+03  0.7818608E-02  0.1284675E+00
          2   -1    0    0  502    0  0.00000000000E+00  0.00000000000E+00  0.34405197283E+03  0.34405197283E+03  0.00000000000E+00 0. -1.
          1   -1    0    0  501    0 -0.00000000000E+00 -0.00000000000E+00 -0.63771317011E+03  0.63771317011E+03  0.00000000000E+00 0. -1.
         25    2    1    2    0    0  0.74634612867E+02  0.89628256855E+02 -0.12668810309E+02  0.17143441027E+03  0.12500283359E+03 0.  0.
          2    1    1    2  501    0 -0.49710592077E+02  0.50402027046E+02 -0.52399951481E+03  0.52875986876E+03  0.00000000000E+00 0. -1.
          1    1    1    2  502    0 -0.24924020790E+02 -0.14003028390E+03  0.24300712784E+03  0.28157086391E+03  0.00000000000E+00 0. -1.
         22    1    3    3    0    0  0.49816337593E+02  0.59527767277E+02  0.53743058272E+02  0.94411539976E+02  0.00000000000E+00 0.  1.
         22    1    3    3    0    0  0.24818275274E+02  0.30100489578E+02 -0.66411868581E+02  0.77022870298E+02  0.00000000000E+00 0.  1.
</event>
<event>
 7    1  0.5977291E-006  0.6651352E+02  0.7818608E-02  0.1398578E+00
          2   -1    0    0  502    0  0.00000000000E+00  0.00000000000E+00  0.11767453982E+03  0.11767453982E+03  0.00000000000E+00 0. -1.
          1   -1    0    0  501    0 -0.00000000000E+00 -0.00000000000E+00 -0.99665771157E+03  0.99665771157E+03  0.00000000000E+00 0. -1.
         25    2    1    2    0    0 -0.16773937328E+02  0.44081043941E+01 -0.12999108772E+03  0.18117365282E+03  0.12500165292E+03 0.  0.
          2    1    1    2  501    0 -0.48258260560E+02  0.23792247986E+02 -0.82642865365E+03  0.82817827208E+03  0.00000000000E+00 0. -1.
          1    1    1    2  502    0  0.65032197888E+02 -0.28200352380E+02  0.77436569612E+02  0.10498032649E+03  0.00000000000E+00 0. -1.
         22    1    3    3    0    0 -0.44552085763E+02 -0.47890099007E+02 -0.53906606346E+02  0.84760085750E+02  0.00000000000E+00 0. -1.
         22    1    3    3    0    0  0.27778148435E+02  0.52298203401E+02 -0.76084481377E+02  0.96413567073E+02  0.00000000000E+00 0. -1.
</event>
<event>
 7    1  0.5977291E-006  0.1029586E+03  0.7818608E-02  0.1353582E+00
          2   -1    0    0  502    0  0.00000000000E+00  0.00000000000E+00  0.11156770228E+04  0.11156770228E+04  0.00000000000E+00 0. -1.
          1   -1    0    0  501    0 -0.00000000000E+00 -0.00000000000E+00 -0.15954203116E+04  0.15954203116E+04  0.00000000000E+00 0. -1.
         25    2    1    2    0    0  0.25177080828E+02  0.13080065592E+03  0.17746623710E+03  0.25468126753E+03  0.12500234291E+03 0.  0.
          2    1    1    2  501    0 -0.39864911575E+02 -0.30643636681E+02 -0.15535570783E+04  0.15543705605E+04  0.00000000000E+00 0. -1.
          1    1    1    2  502    0  0.14687830747E+02 -0.10015701924E+03  0.89634755240E+03  0.90204550638E+03  0.00000000000E+00 0. -1.
         22    1    3    3    0    0 -0.15499420150E+02 -0.52481343467E+01  0.81898919662E+02  0.83517710583E+02  0.00000000000E+00 0.  1.
         22    1    3    3    0    0  0.40676500978E+02  0.13604879027E+03  0.95567317433E+02  0.17116355695E+03  0.00000000000E+00 0.  1.
</event>
<event>
 7    1  0.5977291E-006  0.9725033E+02  0.7818608E-02  0.1325641E+00
          2   -1    0    0  502    0  0.00000000000E+00  0.00000000000E+00  0.20195920590E+04  0.20195920590E+04  0.00000000000E+00 0. -1.
          1   -1    0    0  501    0 -0.00000000000E+00 -0.00000000000E+00 -0.32062735378E+03  0.32062735378E+03  0.00000000000E+00 0. -1.
         25    2    1    2    0    0 -0.36744270055E+02  0.10138553199E+02  0.33130085359E+03  0.35614420010E+03  0.12500201612E+03 0.  0.
          2    1    1    2  501    0  0.70816010079E+02 -0.68781335882E+02 -0.29959325134E+03  0.31543921078E+03  0.00000000000E+00 0. -1.
          1    1    1    2  502    0 -0.34071740024E+02  0.58642782683E+02  0.16672571029E+04  0.16686360019E+04  0.00000000000E+00 0. -1.
         22    1    3    3    0    0 -0.25162207922E+02 -0.56272279918E+02  0.13042035684E+03  0.14425385844E+03  0.00000000000E+00 0.  1.
         22    1    3    3    0    0 -0.11582062133E+02  0.66410833118E+02  0.20088049674E+03  0.21189034166E+03  0.00000000000E+00 0.  1.
</event>
<event>
 7    1  0.5977291E-006  0.6028384E+02  0.7818608E-02  0.1444039E+00
          2   -1    0    0  502    0  0.00000000000E+00  0.00000000000E+00  0.19768511750E+04  0.19768511750E+04  0.00000000000E+00 0. -1.
          1   -1    0    0  501    0 -0.00000000000E+00 -0.00000000000E+00 -0.18961239422E+02  0.18961239422E+02  0.00000000000E+00 0. -1.
         25    2    1    2    0    0 -0.17012098666E+02 -0.96542167750E+02  0.72713079764E+03  0.74428210047E+03  0.12500738599E+03 0.  0.
          2    1    1    2  501    0  0.14517032856E+02  0.39276580140E+02  0.35497500816E+02  0.54895050366E+02  0.00000000000E+00 0. -1.
          1    1    1    2  502    0  0.24950658101E+01  0.57265587609E+02  0.11952616371E+04  0.11966352636E+04  0.00000000000E+00 0. -1.
         22    1    3    3    0    0  0.19326513915E+02  0.50234588509E+01  0.38569575857E+03  0.38621233468E+03  0.00000000000E+00 0.  1.
         22    1    3    3    0    0 -0.36338612581E+02 -0.10156562660E+03  0.34143503906E+03  0.35806976579E+03  0.00000000000E+00 0.  1.
</event>
<event>
 7    1  0.5977291E-006  0.7951336E+02  0.7818608E-02  0.1464257E+00
          2   -1    0    0  502    0  0.00000000000E+00  0.00000000000E+00  0.44436169019E+02  0.44436169019E+02  0.00000000000E+00 0. -1.
          1   -1    0    0  501    0 -0.00000000000E+00 -0.00000000000E+00 -0.37737690182E+04  0.37737690182E+04  0.00000000000E+00 0. -1.
         25    2    1    2    0    0 -0.53351940428E+02  0.56341306955E+02 -0.13170137373E+03  0.19746074628E+03  0.12499888825E+03 0.  0.
          2    1    1    2  501    0  0.31654685476E+02 -0.73036417398E+02 -0.35918899885E+04  0.35927719141E+04  0.00000000000E+00 0. -1.
          1    1    1    2  502    0  0.21697254952E+02  0.16695110443E+02 -0.57414869756E+01  0.27972526841E+02  0.00000000000E+00 0. -1.
         22    1    3    3    0    0  0.24187864596E+02 -0.20971187500E+02 -0.55455895103E+02  0.64032802536E+02  0.00000000000E+00 0.  1.
         22    1    3    3    0    0 -0.77539805025E+02  0.77312494455E+02 -0.76245478624E+02  0.13342794375E+03  0.00000000000E+00 0.  1.
</event>
<event>
 7    1  0.5977291E-006  0.1587574E+03  0.7818608E-02  0.1276281E+00
          2   -1    0    0  502    0  0.00000000000E+00  0.00000000000E+00  0.11093434500E+04  0.11093434500E+04  0.00000000000E+00 0. -1.
          1   -1    0    0  501    0 -0.00000000000E+00 -0.00000000000E+00 -0.65248399211E+03  0.65248399211E+03  0.00000000000E+00 0. -1.
         25    2    1    2    0    0 -0.80194863144E+02  0.66935459269E+02  0.66021520428E+02  0.17577103174E+03  0.12500017063E+03 0.  0.
          2    1    1    2  501    0  0.14488356910E+03 -0.76882968561E+02 -0.58523853834E+03  0.60778810964E+03  0.00000000000E+00 0. -1.
          1    1    1    2  502    0 -0.64688705959E+02  0.99475092918E+01  0.97607647584E+03  0.97826830078E+03  0.00000000000E+00 0. -1.
         22    1    3    3    0    0  0.18438979149E+02 -0.22722819072E+02  0.16365773256E+02  0.33528510150E+02  0.00000000000E+00 0.  1.
         22    1    3    3    0    0 -0.98633842293E+02  0.89658278341E+02  0.49655747173E+02  0.14224252159E+03  0.00000000000E+00 0.  1.
</event>
<event>
 7    1  0.5977291E-006  0.2631119E+03  0.7818608E-02  0.1260237E+00
          2   -1    0    0  502    0  0.00000000000E+00  0.00000000000E+00  0.54834991189E+03  0.54834991189E+03  0.00000000000E+00 0. -1.
          1   -1    0    0  501    0 -0.00000000000E+00 -0.00000000000E+00 -0.65447354986E+03  0.65447354986E+03  0.00000000000E+00 0. -1.
         25    2    1    2    0    0 -0.60931894162E+02 -0.27719791221E+03  0.20714344123E+03  0.37294072293E+03  0.12499999726E+03 0.  0.
          2    1    1    2  501    0  0.17863266076E+02  0.26064889941E+03 -0.53926709611E+03  0.59922111610E+03  0.00000000000E+00 0. -1.
          1    1    1    2  502    0  0.43068628086E+02  0.16549012802E+02  0.22600001691E+03  0.23066162271E+03  0.00000000000E+00 0. -1.
         22    1    3    3    0    0  0.36498842944E+02 -0.64523549828E+02  0.68957169995E+02  0.10124497673E+03  0.00000000000E+00 0. -1.
         22    1    3    3    0    0 -0.97430737107E+02 -0.21267436238E+03  0.13818627124E+03  0.27169574621E+03  0.00000000000E+00 0. -1.
</event>
<event>
 7    1  0.5977291E-006  0.7700850E+02  0.7818608E-02  0.1445078E+00
          2   -1    0    0  502    0  0.00000000000E+00  0.00000000000E+00  0.30738953472E+03  0.30738953472E+03  0.00000000000E+00 0. -1.
          1   -1    0    0  501    0 -0.00000000000E+00 -0.00000000000E+00 -0.31793927084E+03  0.31793927084E+03  0.00000000000E+00 0. -1.
         25    2    1    2    0    0 -0.64463636291E+02  0.22403460217E+02  0.23698269790E+03  0.27649056114E+03  0.12501502254E+03 0.  0.
          2    1    1    2  501    0  0.76927925023E+02  0.76411069332E+01 -0.28726734546E+03  0.29748751223E+03  0.00000000000E+00 0. -1.
          1    1    1    2  502    0 -0.12464288732E+02 -0.30044567150E+02  0.39734911443E+02  0.51350732188E+02  0.00000000000E+00 0. -1.
         22    1    3    3    0    0 -0.30262359469E+02 -0.50697223960E+02  0.74420311034E+02  0.94996850539E+02  0.00000000000E+00 0. -1.
         22    1    3    3    0    0 -0.34201276822E+02  0.73100684176E+02  0.16256238686E+03  0.18149371060E+03  0.00000000000E+00 0. -1.
</event>
<event>
 7    1  0.5977291E-006  0.1212785E+03  0.7818608E-02  0.1340093E+00
          2   -1    0    0  502    0  0.00000000000E+00  0.00000000000E+00  0.42679858303E+03  0.42679858303E+03  0.00000000000E+00 0. -1.
          1   -1    0    0  501    0 -0.00000000000E+00 -0.00000000000E+00 -0.13203203247E+04  0.13203203247E+04  0.00000000000E+00 0. -1.
         25    2    1    2    0    0 -0.87226504524E+02  0.22855902108E+02  0.17425811141E+03  0.23263974513E+03  0.12499802506E+03 0.  0.
          2    1    1    2  501    0  0.12131090095E+03  0.10826614416E+02 -0.12856476977E+04  0.12914037141E+04  0.00000000000E+00 0. -1.
          1    1    1    2  502    0 -0.34084396425E+02 -0.33682516524E+02  0.21786784461E+03  0.22307544848E+03  0.00000000000E+00 0. -1.
         22    1    3    3    0    0 -0.77909983602E+02  0.46353120633E+02  0.18434044035E+03  0.20542632569E+03  0.00000000000E+00 0. -1.
         22    1    3    3    0    0 -0.93165209223E+01 -0.23497218525E+02 -0.10082328944E+02  0.27213419436E+02  0.00000000000E+00 0. -1.
</event>
<event>
 7    1  0.5977291E-006  0.8133425E+02  0.7818608E-02  0.1360083E+00
          2   -1    0    0  502    0  0.00000000000E+00  0.00000000000E+00  0.17315583289E+04  0.17315583289E+04  0.00000000000E+00 0. -1.
          1   -1    0    0  501    0 -0.00000000000E+00 -0.00000000000E+00 -0.12173179681E+03  0.12173179681E+03  0.00000000000E+00 0. -1.
         25    2    1    2    0    0  0.40159900901E+02  0.71298921157E+02  0.53669056515E+03  0.55709821816E+03  0.12500123262E+03 0.  0.
          2    1    1    2  501    0  0.19521317348E+02 -0.79559865763E+02 -0.95603605737E+02  0.12590037133E+03  0.00000000000E+00 0. -1.
          1    1    1    2  502    0 -0.59681218249E+02  0.82609446059E+01  0.11687395727E+04  0.11702915362E+04  0.00000000000E+00 0. -1.
         22    1    3    3    0    0  0.83692097801E+02  0.28996026629E+02  0.32981010041E+03  0.34149647015E+03  0.00000000000E+00 0.  1.
         22    1    3    3    0    0 -0.43532196900E+02  0.42302894529E+02  0.20688046474E+03  0.21560174800E+03  0.00000000000E+00 0.  1.
</event>
<event>
 7    1  0.5977291E-006  0.8201216E+02  0.7818608E-02  0.1440525E+00
          2   -1    0    0  502    0  0.00000000000E+00  0.00000000000E+00  0.10168635039E+04  0.10168635039E+04  0.00000000000E+00 0. -1.
          1   -1    0    0  501    0 -0.00000000000E+00 -0.00000000000E+00 -0.25724535390E+04  0.25724535390E+04  0.00000000000E+00 0. -1.
         25    2    1    2    0    0  0.10039630888E+03 -0.11813811752E+02  0.17188009014E+03  0.23534485048E+03  0.12500179309E+03 0.  0.
          2    1    1    2  501    0 -0.80915259874E+02 -0.13061558842E+02 -0.25397529237E+04  0.25410751263E+04  0.00000000000E+00 0. -1.
          1    1    1    2  502    0 -0.19481049009E+02  0.24875370594E+02  0.81228279854E+03  0.81289706614E+03  0.00000000000E+00 0. -1.
         22    1    3    3    0    0 -0.14974882315E+02  0.16581051560E+02 -0.43908095207E+01  0.22769663577E+02  0.00000000000E+00 0. -1.
         22    1    3    3    0    0  0.11537119120E+03 -0.28394863312E+02  0.17627089966E+03  0.21257518690E+03  0.00000000000E+00 0. -1.
</event>
<event>
 7    1  0.5977291E-006  0.8817641E+02  0.7818608E-02  0.1410685E+00
          2   -1    0    0  502    0  0.00000000000E+00  0.00000000000E+00  0.20339898820E+04  0.20339898820E+04  0.00000000000E+00 0. -1.
          1   -1    0    0  501    0 -0.00000000000E+00 -0.00000000000E+00 -0.83873946575E+03  0.83873946575E+03  0.00000000000E+00 0. -1.
         25    2    1    2    0    0 -0.87199827154E+02 -0.66793672868E+02  0.37214641832E+03  0.40765472783E+03  0.12499686341E+03 0.  0.
          2    1    1    2  501    0  0.36670996744E+02 -0.41031978397E+01 -0.81941727145E+03  0.82024768393E+03  0.00000000000E+00 0. -1.
          1    1    1    2  502    0  0.50528830411E+02  0.70896870708E+02  0.16425212694E+04  0.16448269360E+04  0.00000000000E+00 0. -1.
         22    1    3    3    0    0 -0.93362039137E+01  0.19090891226E+02  0.39184669483E+01  0.21609748137E+02  0.00000000000E+00 0.  1.
         22    1    3    3    0    0 -0.77863623241E+02 -0.85884564095E+02  0.36822795137E+03  0.38604497969E+03  0.00000000000E+00 0.  1.
</event>
<event>
 7    1  0.5977291E-006  0.9489988E+02  0.7818608E-02  0.1332405E+00
          2   -1    0    0  502    0  0.00000000000E+00  0.00000000000E+00  0.22484130174E+04  0.22484130174E+04  0.00000000000E+00 0. -1.
          1   -1    0    0  501    0 -0.00000000000E+00 -0.00000000000E+00 -0.10738221321E+04  0.10738221321E+04  0.00000000000E+00 0. -1.
         25    2    1    2    0    0 -0.25431710859E+02 -0.15674572311E+03  0.25828525416E+02  0.20373377290E+03  0.12499737543E+03 0.  0.
          2    1    1    2  501    0  0.18374450046E+02  0.62850580881E+02 -0.98274055432E+03  0.98491969878E+03  0.00000000000E+00 0. -1.
          1    1    1    2  502    0  0.70572608129E+01  0.93895142229E+02  0.21315029142E+04  0.21335816778E+04  0.00000000000E+00 0. -1.
         22    1    3    3    0    0 -0.22331580397E+01 -0.16909393515E+03  0.40142976594E+02  0.17380795284E+03  0.00000000000E+00 0.  1.
         22    1    3    3    0    0 -0.23198552819E+02  0.12348212045E+02 -0.14314451178E+02  0.29925820058E+02  0.00000000000E+00 0.  1.
</event>
<event>
 7    1  0.5977291E-006  0.1113605E+03  0.7818608E-02  0.1446911E+00
          2   -1    0    0  502    0  0.00000000000E+00  0.00000000000E+00  0.50937507687E+03  0.50937507687E+03  0.00000000000E+00 0. -1.
          1   -1    0    0  501    0 -0.00000000000E+00 -0.00000000000E+00 -0.70571872471E+02  0.70571872471E+02  0.00000000000E+00 0. -1.
         25    2    1    2    0    0 -0.21770063269E+02  0.11472467433E+03  0.22907126722E+03  0.28589154503E+03  0.12499857398E+03 0.  0.
          2    1    1    2  501    0  0.40363815540E+02 -0.10261384747E+03  0.31822142464E+02  0.11476710351E+03  0.00000000000E+00 0. -1.
          1    1    1    2  502    0 -0.18593752272E+02 -0.12110826862E+02  0.17790979471E+03  0.17928830080E+03  0.00000000000E+00 0. -1.
         22    1    3    3    0    0  0.36604269163E+02  0.72320311727E+02  0.56385934084E+02  0.98739422582E+02  0.00000000000E+00 0. -1.
         22    1    3    3    0    0 -0.58374332432E+02  0.42404362602E+02  0.17268533314E+03  0.18715212245E+03  0.00000000000E+00 0. -1.
</event>
<event>
 7    1  0.5977291E-006  0.3084766E+02  0.7818608E-02  0.1619329E+00
          2   -1    0    0  502    0  0.00000000000E+00  0.00000000000E+00  0.11261478488E+03  0.11261478488E+03  0.00000000000E+00 0. -1.
          1   -1    0    0  501    0 -0.00000000000E+00 -0.00000000000E+00 -0.92931025492E+03  0.92931025492E+03  0.00000000000E+00 0. -1.
         25    2    1    2    0    0  0.11289003816E+01  0.88074465319E+01 -0.16733220828E+03  0.20905355749E+03  0.12499790575E+03 0.  0.
          2    1    1    2  501    0  0.19026244926E+02 -0.24772490724E+02 -0.73897962819E+03  0.73963948325E+03  0.00000000000E+00 0. -1.
          1    1    1    2  502    0 -0.20155145308E+02  0.15965044192E+02  0.89616366430E+02  0.93231999070E+02  0.00000000000E+00 0. -1.
         22    1    3    3    0    0 -0.40279296372E+02  0.14074173108E+02 -0.68279076168E+01  0.43210234752E+02  0.00000000000E+00 0. -1.
         22    1    3    3    0    0  0.41408196753E+02 -0.52667265758E+01 -0.16050430066E+03  0.16584332274E+03  0.00000000000E+00 0. -1.
</event>
<event>
 7    1  0.5977291E-006  0.1466037E+03  0.7818608E-02  0.1239161E+00
          2   -1    0    0  502    0  0.00000000000E+00  0.00000000000E+00  0.17868347820E+04  0.17868347820E+04  0.00000000000E+00 0. -1.
          1   -1    0    0  501    0 -0.00000000000E+00 -0.00000000000E+00 -0.15861510790E+04  0.15861510790E+04  0.00000000000E+00 0. -1.
         25    2    1    2    0    0 -0.14696661748E+02  0.51391605975E+02  0.30514969978E+02  0.13933076388E+03  0.12499923736E+03 0.  0.
          2    1    1    2  501    0 -0.65750182155E+02  0.78270437314E+02 -0.15266101940E+04  0.15300287685E+04  0.00000000000E+00 0. -1.
          1    1    1    2  502    0  0.80446843903E+02 -0.12966204329E+03  0.16967789271E+04  0.17036263286E+04  0.00000000000E+00 0. -1.
         22    1    3    3    0    0  0.37813365403E+02  0.70535449610E+02  0.16641052834E+02  0.81743653541E+02  0.00000000000E+00 0.  1.
         22    1    3    3    0    0 -0.52510027151E+02 -0.19143843635E+02  0.13873917144E+02  0.57587110341E+02  0.00000000000E+00 0.  1.
</event>
<event>
 7    1  0.5977291E-006  0.2191007E+03  0.7818608E-02  0.1148348E+00
          2   -1    0    0  502    0  0.00000000000E+00  0.00000000000E+00  0.11452733943E+04  0.11452733943E+04  0.00000000000E+00 0. -1.
          1   -1    0    0  501    0 -0.00000000000E+00 -0.00000000000E+00 -0.16405601350E+03  0.16405601350E+03  0.00000000000E+00 0. -1.
         25    2    1    2    0    0  0.52391536524E+02  0.15323507801E+03  0.51409024446E+03  0.55329939897E+03  0.12500233284E+03 0.  0.
          2    1    1    2  501    0  0.21610883877E+03 -0.36084568445E+02  0.18038175794E+02  0.21984199340E+03  0.00000000000E+00 0. -1.
          1    1    1    2  502    0 -0.26850037529E+03 -0.11715050956E+03  0.44908896055E+03  0.53618801545E+03  0.00000000000E+00 0. -1.
         22    1    3    3    0    0  0.49383683718E+02  0.13910694248E+03  0.26141869440E+03  0.30021529515E+03  0.00000000000E+00 0.  1.
         22    1    3    3    0    0  0.30078528063E+01  0.14128135532E+02  0.25267155006E+03  0.25308410381E+03  0.00000000000E+00 0.  1.
</event>
<event>
 7    1  0.5977291E-006  0.1605244E+03  0.7818608E-02  0.1230907E+00
          2   -1    0    0  502    0  0.00000000000E+00  0.00000000000E+00  0.45595037457E+03  0.45595037457E+03  0.00000000000E+00 0. -1.
          1   -1    0    0  501    0 -0.00000000000E+00 -0.00000000000E+00 -0.67700392572E+03  0.67700392572E+03  0.00000000000E+00 0. -1.
         25    2    1    2    0    0 -0.14864359455E+03 -0.10136594980E+03 -0.58793991067E+03  0.62742996340E+03  0.12500018574E+03 0.  0.
          2    1    1    2  501    0  0.47406385102E+02  0.10982172940E+03 -0.52883186542E+01  0.11973363734E+03  0.00000000000E+00 0. -1.
          1    1    1    2  502    0  0.10123720945E+03 -0.84557796027E+01  0.37217467817E+03  0.38579069955E+03  0.00000000000E+00 0. -1.
         22    1    3    3    0    0 -0.10928912408E+03 -0.17121300707E+02 -0.43139345174E+03  0.44535105455E+03  0.00000000000E+00 0. -1.
         22    1    3    3    0    0 -0.39354470467E+02 -0.84244649091E+02 -0.15654645893E+03  0.18207890886E+03  0.00000000000E+00 0. -1.
</event>
<event>
 7    1  0.5977291E-006  0.3851992E+02  0.7818608E-02  0.1535075E+00
          2   -1    0    0  502    0  0.00000000000E+00  0.00000000000E+00  0.55125795292E+03  0.55125795292E+03  0.00000000000E+00 0. -1.
          1   -1    0    0  501    0 -0.00000000000E+00 -0.00000000000E+00 -0.95725058653E+03  0.95725058653E+03  0.00000000000E+00 0. -1.
         25    2    1    2    0    0  0.38096542397E+02  0.55066631775E+02  0.92648221160E+02  0.16938896589E+03  0.12500099361E+03 0.  0.
          2    1    1    2  501    0 -0.32316723067E+02 -0.20830018572E+02 -0.91775983970E+03  0.91856484998E+03  0.00000000000E+00 0. -1.
          1    1    1    2  502    0 -0.57798193303E+01 -0.34236613203E+02  0.41911898492E+03  0.42055472357E+03  0.00000000000E+00 0. -1.
         22    1    3    3    0    0  0.55229296873E+02  0.76268196209E+02  0.10361096135E+03  0.14000837224E+03  0.00000000000E+00 0.  1.
         22    1    3    3    0    0 -0.17132754476E+02 -0.21201564434E+02 -0.10962740191E+02  0.29380593644E+02  0.00000000000E+00 0.  1.
</event>
<event>
 7    1  0.5977291E-006  0.1339773E+03  0.7818608E-02  0.1429630E+00
          2   -1    0    0  502    0  0.00000000000E+00  0.00000000000E+00  0.28674150152E+03  0.28674150152E+03  0.00000000000E+00 0. -1.
          1   -1    0    0  501    0 -0.00000000000E+00 -0.00000000000E+00 -0.18720344061E+03  0.18720344061E+03  0.00000000000E+00 0. -1.
         25    2    1    2    0    0 -0.10306346464E+03 -0.66864527458E+02 -0.39170012751E+02  0.17959127366E+03  0.12500317157E+03 0.  0.
          2    1    1    2  501    0 -0.12232378196E+01 -0.20957754758E+02 -0.54203154012E+02  0.58126635032E+02  0.00000000000E+00 0. -1.
          1    1    1    2  502    0  0.10428670246E+03  0.87822282216E+02  0.19291122767E+03  0.23622703343E+03  0.00000000000E+00 0. -1.
         22    1    3    3    0    0 -0.82821561517E+01 -0.56492474330E+02  0.27373990793E+02  0.63319263565E+02  0.00000000000E+00 0. -1.
         22    1    3    3    0    0 -0.94781308487E+02 -0.10372053128E+02 -0.66544003544E+02  0.11627201010E+03  0.00000000000E+00 0. -1.
</event>
<event>
 7    1  0.5977291E-006  0.9411853E+02  0.7818608E-02  0.1370912E+00
          2   -1    0    0  502    0  0.00000000000E+00  0.00000000000E+00  0.97701671627E+02  0.97701671627E+02  0.00000000000E+00 0. -1.
          1   -1    0    0  501    0 -0.00000000000E+00 -0.00000000000E+00 -0.90191822289E+03  0.90191822289E+03  0.00000000000E+00 0. -1.
         25    2    1    2    0    0  0.12759066264E+03  0.44564684833E+02 -0.13697336855E+03  0.22945740138E+03  0.12499442800E+03 0.  0.
          2    1    1    2  501    0 -0.90379383084E+02 -0.14924387559E+02 -0.70406791986E+03  0.71000197606E+03  0.00000000000E+00 0. -1.
          1    1    1    2  502    0 -0.37211279553E+02 -0.29640297274E+02  0.36824737151E+02  0.60160517075E+02  0.00000000000E+00 0. -1.
         22    1    3    3    0    0  0.93614941670E+02  0.88313200607E+02 -0.95956153809E+02  0.16053212189E+03  0.00000000000E+00 0.  1.
         22    1    3    3    0    0  0.33975720968E+02 -0.43748515773E+02 -0.41017214743E+02  0.68925279491E+02  0.00000000000E+00 0.  1.
</event>
<event>
 7    1  0.5977291E-006  0.6103265E+02  0.7818608E-02  0.1448603E+00
          2   -1    0    0  502    0  0.00000000000E+00  0.00000000000E+00  0.14993900595E+04  0.14993900595E+04  0.00000000000E+00 0. -1.
          1   -1    0    0  501    0 -0.00000000000E+00 -0.00000000000E+00 -0.44827062872E+03  0.44827062872E+03  0.00000000000E+00 0. -1.
         25    2    1    2    0    0  0.61666056483E+02  0.25848146147E+02  0.58282198966E+02  0.15327374912E+03  0.12500079308E+03 0.  0.
          2    1    1    2  501    0 -0.29997406067E+02  0.26437735087E+02 -0.39910505431E+03  0.40110303238E+03  0.00000000000E+00 0. -1.
          1    1    1    2  502    0 -0.31668650416E+02 -0.52285881234E+02  0.13919422861E+04  0.13932839067E+04  0.00000000000E+00 0. -1.
         22    1    3    3    0    0 -0.78627474949E+01 -0.36853441372E+02 -0.80483797682E+01  0.38532782874E+02  0.00000000000E+00 0. -1.
         22    1    3    3    0    0  0.69528803978E+02  0.62701587519E+02  0.66330578735E+02  0.11474096625E+03  0.00000000000E+00 0. -1.
</event>
<event>
 7    1  0.5977291E-006  0.4713522E+02  0.7818608E-02  0.1527016E+00
          2   -1    0    0  502    0  0.00000000000E+00  0.00000000000E+00  0.13722449273E+04  0.13722449273E+04  0.00000000000E+00 0. -1.
          1   -1    0    0  501    0 -0.00000000000E+00 -0.00000000000E+00 -0.39201269968E+02  0.39201269968E+02  0.00000000000E+00 0. -1.
         25    2    1    2    0    0 -0.36366211957E+02  0.11750143044E+02  0.98528962030E+03  0.99392194268E+03  0.12499850015E+03 0.  0.
          2    1    1    2  501    0  0.44224440757E+02  0.17121449522E+02 -0.17869752728E+02  0.50678133910E+02  0.00000000000E+00 0. -1.
          1    1    1    2  502    0 -0.78582288007E+01 -0.28871592567E+02  0.36562378975E+03  0.36684612067E+03  0.00000000000E+00 0. -1.
         22    1    3    3    0    0 -0.14782490073E+02 -0.88540636189E+01  0.14075139797E+02  0.22249180111E+02  0.00000000000E+00 0.  1.
         22    1    3    3    0    0 -0.21583721884E+02  0.20604206663E+02  0.97121448050E+03  0.97167276257E+03  0.00000000000E+00 0.  1.
</event>
<event>
 7    1  0.5977291E-006  0.6316012E+02  0.7818608E-02  0.1440347E+00
          2   -1    0    0  502    0  0.00000000000E+00  0.00000000000E+00  0.21205402540E+03  0.21205402540E+03  0.00000000000E+00 0. -1.
          1   -1    0    0  501    0 -0.00000000000E+00 -0.00000000000E+00 -0.12634522140E+03  0.12634522140E+03  0.00000000000E+00 0. -1.
         25    2    1    2    0    0  0.21112149680E+01 -0.44732336787E+02  0.67823950845E+02  0.14909882972E+03  0.12499973413E+03 0.  0.
          2    1    1    2  501    0 -0.42706457458E+02  0.51030258371E+02 -0.67352479631E+02  0.94679909646E+02  0.00000000000E+00 0. -1.
          1    1    1    2  502    0  0.40595242490E+02 -0.62979215841E+01  0.85237332784E+02  0.94620507446E+02  0.00000000000E+00 0. -1.
         22    1    3    3    0    0  0.43068266383E+02 -0.94151794208E+01 -0.18031096240E+02  0.47630259335E+02  0.00000000000E+00 0.  1.
         22    1    3    3    0    0 -0.40957051415E+02 -0.35317157366E+02  0.85855047086E+02  0.10146857038E+03  0.00000000000E+00 0.  1.
</event>
<event>
 7    1  0.5977291E-006  0.4407687E+02  0.7818608E-02  0.1569542E+00
          2   -1    0    0  502    0  0.00000000000E+00  0.00000000000E+00  0.31056556152E+03  0.31056556152E+03  0.00000000000E+00 0. -1.
          1   -1    0    0  501    0 -0.00000000000E+00 -0.00000000000E+00 -0.13737937631E+04  0.13737937631E+04  0.00000000000E+00 0. -1.
         25    2    1    2    0    0 -0.27770852352E+02  0.57197152676E+02  0.61511107732E+02  0.15313643328E+03  0.12499766521E+03 0.  0.
          2    1    1    2  501    0  0.77780960828E+01 -0.43325937856E+02 -0.13268864732E+04  0.13276164161E+04  0.00000000000E+00 0. -1.
          1    1    1    2  502    0  0.19992756269E+02 -0.13871214820E+02  0.20214716385E+03  0.20360647523E+03  0.00000000000E+00 0. -1.
         22    1    3    3    0    0 -0.19241228107E+01  0.93431602518E+02  0.54200432689E+02  0.10803172451E+03  0.00000000000E+00 0. -1.
         22    1    3    3    0    0 -0.25846729541E+02 -0.36234449841E+02  0.73106750428E+01  0.45104708766E+02  0.00000000000E+00 0. -1.
</event>
<event>
 7    1  0.5977291E-006  0.5236008E+02  0.7818608E-02  0.1470524E+00
          2   -1    0    0  502    0  0.00000000000E+00  0.00000000000E+00  0.23460256402E+04  0.23460256402E+04  0.00000000000E+00 0. -1.
          1   -1    0    0  501    0 -0.00000000000E+00 -0.00000000000E+00 -0.20511786493E+03  0.20511786493E+03  0.00000000000E+00 0. -1.
         25    2    1    2    0    0 -0.16458653508E+02  0.17757960693E+02  0.60690025022E+03  0.62011183221E+03  0.12499815315E+03 0.  0.
          2    1    1    2  501    0 -0.28715909089E+01 -0.52483203838E+02 -0.19480038715E+03  0.20176700313E+03  0.00000000000E+00 0. -1.
          1    1    1    2  502    0  0.19330244417E+02  0.34725243144E+02  0.17288079122E+04  0.17292646697E+04  0.00000000000E+00 0. -1.
         22    1    3    3    0    0 -0.70200179966E+02  0.21440495930E+02  0.34117938661E+03  0.34898586501E+03  0.00000000000E+00 0.  1.
         22    1    3    3    0    0  0.53741526458E+02 -0.36825352364E+01  0.26572086361E+03  0.27112596720E+03  0.00000000000E+00 0.  1.
</event>
<event>
 7    1  0.5977291E-006  0.6934737E+02  0.7818608E-02  0.1363251E+00
          2   -1    0    0  502    0  0.00000000000E+00  0.00000000000E+00  0.40526876239E+04  0.40526876239E+04  0.00000000000E+00 0. -1.
          1   -1    0    0  501    0 -0.00000000000E+00 -0.00000000000E+00 -0.24991495209E+02  0.24991495209E+02  0.00000000000E+00 0. -1.
         25    2    1    2    0    0  0.24636936554E+02  0.37997605436E+02  0.50787420891E+03  0.52498755341E+03  0.12499968998E+03 0.  0.
          2    1    1    2  501    0  0.38422907364E+02 -0.66850914802E+02  0.76315570563E+02  0.10848700812E+03  0.00000000000E+00 0. -1.
          1    1    1    2  502    0 -0.63059843918E+02  0.28853309366E+02  0.34435063492E+04  0.34442045576E+04  0.00000000000E+00 0. -1.
         22    1    3    3    0    0  0.16030629005E+02 -0.78708603333E+01  0.45127905210E+03  0.45163227782E+03  0.00000000000E+00 0.  1.
         22    1    3    3    0    0  0.86063075495E+01  0.45868465769E+02  0.56595156817E+02  0.73355275590E+02  0.00000000000E+00 0.  1.
</event>
<event>
 7    1  0.5977291E-006  0.1447901E+03  0.7818608E-02  0.1210102E+00
          2   -1    0    0  502    0  0.00000000000E+00  0.00000000000E+00  0.10438888456E+04  0.10438888456E+04  0.00000000000E+00 0. -1.
          1   -1    0    0  501    0 -0.00000000000E+00 -0.00000000000E+00 -0.98934109292E+02  0.98934109292E+02  0.00000000000E+00 0. -1.
         25    2    1    2    0    0  0.12197046724E+03 -0.11407881537E+02  0.24531540685E+03  0.30134818465E+03  0.12499657962E+03 0.  0.
          2    1    1    2  501    0 -0.38024017248E+02 -0.13484127684E+03  0.20352931406E+02  0.14157061010E+03  0.00000000000E+00 0. -1.
          1    1    1    2  502    0 -0.83946449994E+02  0.14624915838E+03  0.67928639808E+03  0.69990416016E+03  0.00000000000E+00 0. -1.
         22    1    3    3    0    0  0.92100361284E+02 -0.65317707694E+02  0.14789700158E+03  0.18607096110E+03  0.00000000000E+00 0.  1.
         22    1    3    3    0    0  0.29870105958E+02  0.53909826157E+02  0.97418405266E+02  0.11527722356E+03  0.00000000000E+00 0.  1.
</event>
<event>
 7    1  0.5977291E-006  0.1076761E+03  0.7818608E-02  0.1345454E+00
          2   -1    0    0  502    0  0.00000000000E+00  0.00000000000E+00  0.11012234695E+03  0.11012234695E+03  0.00000000000E+00 0. -1.
          1   -1    0    0  501    0 -0.00000000000E+00 -0.00000000000E+00 -0.89562658892E+03  0.89562658892E+03  0.00000000000E+00 0. -1.
         25    2    1    2    0    0  0.55348665660E+02 -0.25691340914E+02 -0.23874542730E+02  0.14113494157E+03  0.12500223259E+03 0.  0.
          2    1    1    2  501    0 -0.91576483004E+02  0.62341587355E+02 -0.79535027237E+03  0.80302850604E+03  0.00000000000E+00 0. -1.
          1    1    1    2  502    0  0.36227817344E+02 -0.36650246441E+02  0.33720573127E+02  0.61585488272E+02  0.00000000000E+00 0. -1.
         22    1    3    3    0    0 -0.16558251688E+02 -0.12854368393E+02  0.39313390501E+02  0.44552813137E+02  0.00000000000E+00 0.  1.
         22    1    3    3    0    0  0.71906917348E+02 -0.12836972521E+02 -0.63187933231E+02  0.96582128430E+02  0.00000000000E+00 0.  1.
</event>
<event>
 7    1  0.5977291E-006  0.1803719E+03  0.7818608E-02  0.1295407E+00
          2   -1    0    0  502    0  0.00000000000E+00  0.00000000000E+00  0.25145906024E+04  0.25145906024E+04  0.00000000000E+00 0. -1.
          1   -1    0    0  501    0 -0.00000000000E+00 -0.00000000000E+00 -0.92299824355E+03  0.92299824355E+03  0.00000000000E+00 0. -1.
         25    2    1    2    0    0 -0.80930462862E+02 -0.13504211769E+03  0.14756580034E+04  0.14892863858E+04  0.12498512883E+03 0.  0.
          2    1    1    2  501    0  0.51451733672E+02  0.17305214177E+03 -0.90671920379E+03  0.92451827413E+03  0.00000000000E+00 0. -1.
          1    1    1    2  502    0  0.29478729190E+02 -0.38010024074E+02  0.10226535592E+04  0.10237841860E+04  0.00000000000E+00 0. -1.
         22    1    3    3    0    0 -0.15420631233E+02 -0.84927717547E+02  0.34536761837E+03  0.35599059664E+03  0.00000000000E+00 0.  1.
         22    1    3    3    0    0 -0.65509831629E+02 -0.50114400147E+02  0.11302903851E+04  0.11332957892E+04  0.00000000000E+00 0.  1.
</event>
<event>
 7    1  0.5977291E-006  0.1540284E+03  0.7818608E-02  0.1220217E+00
          2   -1    0    0  502    0  0.00000000000E+00  0.00000000000E+00  0.12051498976E+04  0.12051498976E+04  0.00000000000E+00 0. -1.
          1   -1    0    0  501    0 -0.00000000000E+00 -0.00000000000E+00 -0.91319081291E+03  0.91319081291E+03  0.00000000000E+00 0. -1.
         25    2    1    2    0    0 -0.10415629580E+03 -0.13816754971E+03  0.27985448957E+03  0.35196859804E+03  0.12499821171E+03 0.  0.
          2    1    1    2  501    0  0.11682520268E+03 -0.18785708421E+02 -0.86610859920E+03  0.87415395465E+03  0.00000000000E+00 0. -1.
          1    1    1    2  502    0 -0.12668906884E+02  0.15695325813E+03  0.87821319437E+03  0.89221815785E+03  0.00000000000E+00 0. -1.
         22    1    3    3    0    0 -0.90309526172E+02 -0.76949026326E+02  0.81554356967E+02  0.14397248456E+03  0.00000000000E+00 0.  1.
         22    1    3    3    0    0 -0.13846769624E+02 -0.61218523383E+02  0.19830013260E+03  0.20799611348E+03  0.00000000000E+00 0.  1.
</event>
<event>
 7    1  0.5977291E-006  0.1191822E+03  0.7818608E-02  0.1300945E+00
          2   -1    0    0  502    0  0.00000000000E+00  0.00000000000E+00  0.20131980890E+04  0.20131980890E+04  0.00000000000E+00 0. -1.
          1   -1    0    0  501    0 -0.00000000000E+00 -0.00000000000E+00 -0.18941320980E+03  0.18941320980E+03  0.00000000000E+00 0. -1.
         25    2    1    2    0    0 -0.11506174867E+03 -0.61277647138E+02  0.45991962683E+03  0.49411090095E+03  0.12500145300E+03 0.  0.
          2    1    1    2  501    0  0.60118033158E+02  0.10328846509E+03 -0.15071157377E+03  0.19234516734E+03  0.00000000000E+00 0. -1.
          1    1    1    2  502    0  0.54943715510E+02 -0.42010817953E+02  0.15145768261E+04  0.15161552305E+04  0.00000000000E+00 0. -1.
         22    1    3    3    0    0 -0.12421020838E+02  0.42870685838E+01 -0.45751866824E+01  0.13913771914E+02  0.00000000000E+00 0.  1.
         22    1    3    3    0    0 -0.10264072783E+03 -0.65564715722E+02  0.46449481351E+03  0.48019712904E+03  0.00000000000E+00 0.  1.
</event>
<event>
 7    1  0.5977291E-006  0.1132322E+03  0.7818608E-02  0.1445337E+00
          2   -1    0    0  502    0  0.00000000000E+00  0.00000000000E+00  0.64820158920E+03  0.64820158920E+03  0.00000000000E+00 0. -1.
          1   -1    0    0  501    0 -0.00000000000E+00 -0.00000000000E+00 -0.13969386431E+04  0.13969386431E+04  0.00000000000E+00 0. -1.
         25    2    1    2    0    0 -0.83356115926E+02  0.55948679585E+02 -0.23225133618E+03  0.28221290088E+03  0.12499976584E+03 0.  0.
          2    1    1    2  501    0  0.10412486484E+03 -0.48455272930E+02 -0.11366162930E+04  0.11424038246E+04  0.00000000000E+00 0. -1.
          1    1    1    2  502    0 -0.20768748916E+02 -0.74934066550E+01  0.62013057529E+03  0.62052350680E+03  0.00000000000E+00 0. -1.
         22    1    3    3    0    0 -0.59506562739E+02  0.63475449169E+02 -0.24059880692E+03  0.25584751230E+03  0.00000000000E+00 0. -1.
         22    1    3    3    0    0 -0.23849553187E+02 -0.75267695842E+01  0.83474707449E+01  0.26365388589E+02  0.00000000000E+00 0. -1.
</event>
<event>
 7    1  0.5977291E-006  0.4330702E+02  0.7818608E-02  0.1511548E+00
          2   -1    0    0  502    0  0.00000000000E+00  0.00000000000E+00  0.54717038670E+03  0.54717038670E+03  0.00000000000E+00 0. -1.
          1   -1    0    0  501    0 -0.00000000000E+00 -0.00000000000E+00 -0.24238186124E+04  0.24238186124E+04  0.00000000000E+00 0. -1.
         25    2    1    2    0    0  0.76526307102E+01  0.73807194045E+02 -0.15605865517E+02  0.14620233444E+03  0.12500205962E+03 0.  0.
          2    1    1    2  501    0 -0.18127110843E+02 -0.39240156707E+02 -0.23420379728E+04  0.23424368184E+04  0.00000000000E+00 0. -1.
          1    1    1    2  502    0  0.10474480132E+02 -0.34567037338E+02  0.48099561265E+03  0.48234984626E+03  0.00000000000E+00 0. -1.
         22    1    3    3    0    0 -0.31130823394E+02  0.88146121034E+02 -0.35903848021E+02  0.10013966807E+03  0.00000000000E+00 0. -1.
         22    1    3    3    0    0  0.38783454104E+02 -0.14338926989E+02  0.20297982505E+02  0.46062666371E+02  0.00000000000E+00 0. -1.
</event>
<event>
 7    1  0.5977291E-006  0.2859750E+02  0.7818608E-02  0.1651850E+00
          2   -1    0    0  502    0  0.00000000000E+00  0.00000000000E+00  0.27903711700E+03  0.27903711700E+03  0.00000000000E+00 0. -1.
          1   -1    0    0  501    0 -0.00000000000E+00 -0.00000000000E+00 -0.54474427163E+03  0.54474427163E+03  0.00000000000E+00 0. -1.
         25    2    1    2    0    0 -0.14909858111E+02  0.41455748445E+02 -0.72640142862E+02  0.15113772372E+03  0.12500055291E+03 0.  0.
          2    1    1    2  501    0 -0.61067524218E+01 -0.22179262619E+02 -0.43170008613E+03  0.43231259117E+03  0.00000000000E+00 0. -1.
          1    1    1    2  502    0  0.21016610533E+02 -0.19276485827E+02  0.23863307436E+03  0.24033107374E+03  0.00000000000E+00 0. -1.
         22    1    3    3    0    0 -0.64713380611E+02  0.49507747725E+02 -0.37757498664E+02  0.89802379814E+02  0.00000000000E+00 0. -1.
         22    1    3    3    0    0  0.49803522499E+02 -0.80519992801E+01 -0.34882644199E+02  0.61335343906E+02  0.00000000000E+00 0. -1.
</event>
<event>
 7    1  0.5977291E-006  0.4056673E+02  0.7818608E-02  0.1539145E+00
          2   -1    0    0  502    0  0.00000000000E+00  0.00000000000E+00  0.24049548572E+04  0.24049548572E+04  0.00000000000E+00 0. -1.
          1   -1    0    0  501    0 -0.00000000000E+00 -0.00000000000E+00 -0.17244200496E+03  0.17244200496E+03  0.00000000000E+00 0. -1.
         25    2    1    2    0    0 -0.97120728304E+01  0.22637897530E+02  0.56108125602E+03  0.57536653709E+03  0.12501070911E+03 0.  0.
          2    1    1    2  501    0  0.28872388507E+02  0.14037142774E+02 -0.16350514473E+03  0.16662709428E+03  0.00000000000E+00 0. -1.
          1    1    1    2  502    0 -0.19160315677E+02 -0.36675040304E+02  0.18349367410E+04  0.18354032308E+04  0.00000000000E+00 0. -1.
         22    1    3    3    0    0  0.25479840645E+02 -0.39438648992E+02  0.12583672392E+03  0.13431124450E+03  0.00000000000E+00 0. -1.
         22    1    3    3    0    0 -0.35191913475E+02  0.62076546521E+02  0.43524453210E+03  0.44105529259E+03  0.00000000000E+00 0. -1.
</event>
<event>
 7    1  0.5977291E-006  0.8226418E+02  0.7818608E-02  0.1388135E+00
          2   -1    0    0  502    0  0.00000000000E+00  0.00000000000E+00  0.73283455063E+03  0.73283455063E+03  0.00000000000E+00 0. -1.
          1   -1    0    0  501    0 -0.00000000000E+00 -0.00000000000E+00 -0.21196712310E+03  0.21196712310E+03  0.00000000000E+00 0. -1.
         25    2    1    2    0    0  0.31262291628E+02 -0.38264923805E+02  0.22975957669E+03  0.26618820773E+03  0.12500065432E+03 0.  0.
          2    1    1    2  501    0  0.46617837230E+02 -0.79522054664E+01 -0.18654770552E+03  0.19244871201E+03  0.00000000000E+00 0. -1.
          1    1    1    2  502    0 -0.77880128859E+02  0.46217129271E+02  0.47765555636E+03  0.48616475400E+03  0.00000000000E+00 0. -1.
         22    1    3    3    0    0  0.13333201811E+02  0.35810605890E+02  0.20248919843E+02  0.43245722558E+02  0.00000000000E+00 0.  1.
         22    1    3    3    0    0  0.17929089817E+02 -0.74075529695E+02  0.20951065684E+03  0.22294248517E+03  0.00000000000E+00 0.  1.
</event>
<event>
 7    1  0.5977291E-006  0.5468262E+02  0.7818608E-02  0.1445400E+00
          2   -1    0    0  502    0  0.00000000000E+00  0.00000000000E+00  0.86898690068E+03  0.86898690068E+03  0.00000000000E+00 0. -1.
          1   -1    0    0  501    0 -0.00000000000E+00 -0.00000000000E+00 -0.46842935742E+03  0.46842935742E+03  0.00000000000E+00 0. -1.
         25    2    1    2    0    0 -0.29769560079E+01 -0.30676709483E+02  0.24760036108E+02  0.13110399010E+03  0.12500109623E+03 0.  0.
          2    1    1    2  501    0 -0.42423744191E+02  0.35887137512E+02 -0.41273397756E+03  0.41645767725E+03  0.00000000000E+00 0. -1.
          1    1    1    2  502    0  0.45400700199E+02 -0.52104280293E+01  0.78853148472E+03  0.78985459075E+03  0.00000000000E+00 0. -1.
         22    1    3    3    0    0 -0.33450838814E+02 -0.70192687538E+02  0.67359830480E+01  0.78047072134E+02  0.00000000000E+00 0. -1.
         22    1    3    3    0    0  0.30473882806E+02  0.39515978055E+02  0.18024053060E+02  0.53056917962E+02  0.00000000000E+00 0. -1.
</event>
<event>
 7    1  0.5977291E-006  0.4020836E+02  0.7818608E-02  0.1529718E+00
          2   -1    0    0  502    0  0.00000000000E+00  0.00000000000E+00  0.75565665207E+03  0.75565665207E+03  0.00000000000E+00 0. -1.
          1   -1    0    0  501    0 -0.00000000000E+00 -0.00000000000E+00 -0.12521570745E+03  0.12521570745E+03  0.00000000000E+00 0. -1.
         25    2    1    2    0    0 -0.94365853608E+01  0.72093446646E+02  0.13323366741E+03  0.19662735220E+03  0.12499836523E+03 0.  0.
          2    1    1    2  501    0 -0.24360041663E+01 -0.34369254636E+02 -0.89656951464E+02  0.96049720074E+02  0.00000000000E+00 0. -1.
          1    1    1    2  502    0  0.11872589527E+02 -0.37724192010E+02  0.58686422867E+03  0.58819528725E+03  0.00000000000E+00 0. -1.
         22    1    3    3    0    0  0.40440148024E+02 -0.15603893728E+02  0.33711347539E+02  0.54912130031E+02  0.00000000000E+00 0.  1.
         22    1    3    3    0    0 -0.49876733385E+02  0.87697340373E+02  0.99522319875E+02  0.14171522217E+03  0.00000000000E+00 0.  1.
</event>
<event>
 7    1  0.5977291E-006  0.1006899E+03  0.7818608E-02  0.1371839E+00
          2   -1    0    0  502    0  0.00000000000E+00  0.00000000000E+00  0.33717838751E+03  0.33717838751E+03  0.00000000000E+00 0. -1.
          1   -1    0    0  501    0 -0.00000000000E+00 -0.00000000000E+00 -0.12032957699E+04  0.12032957699E+04  0.00000000000E+00 0. -1.
         25    2    1    2    0    0 -0.57831032689E+02  0.36095110321E+02 -0.91924061872E+03  0.93020198349E+03  0.12500051859E+03 0.  0.
          2    1    1    2  501    0 -0.41140037414E+02 -0.15964730068E+02 -0.26904697265E+03  0.27264197912E+03  0.00000000000E+00 0. -1.
          1    1    1    2  502    0  0.98971070102E+02 -0.20130380253E+02  0.32217020895E+03  0.33763019483E+03  0.00000000000E+00 0. -1.
         22    1    3    3    0    0 -0.74720481374E+02  0.57857031882E+02 -0.85627790921E+03  0.86147689712E+03  0.00000000000E+00 0.  1.
         22    1    3    3    0    0  0.16889448685E+02 -0.21761921561E+02 -0.62962709512E+02  0.68725086366E+02  0.00000000000E+00 0.  1.
</event>
<event>
 7    1  0.5977291E-006  0.4914783E+02  0.7818608E-02  0.1469671E+00
          2   -1    0    0  502    0  0.00000000000E+00  0.00000000000E+00  0.68120384800E+03  0.68120384800E+03  0.00000000000E+00 0. -1.
          1   -1    0    0  501    0 -0.00000000000E+00 -0.00000000000E+00 -0.19326867277E+03  0.19326867277E+03  0.00000000000E+00 0. -1.
         25    2    1    2    0    0  0.24960203956E+02 -0.32635871762E+02 -0.11202923665E+02  0.13205901880E+03  0.12500386811E+03 0.  0.
          2    1    1    2  501    0  0.24491516607E+02  0.34855793598E+02 -0.11688431399E+03  0.12440540017E+03  0.00000000000E+00 0. -1.
          1    1    1    2  502    0 -0.49451720563E+02 -0.22199218363E+01  0.61602241288E+03  0.61800810180E+03  0.00000000000E+00 0. -1.
         22    1    3    3    0    0  0.55338277187E+02  0.11251498399E+02 -0.42053842023E+02  0.70409138378E+02  0.00000000000E+00 0. -1.
         22    1    3    3    0    0 -0.30378073231E+02 -0.43887370161E+02  0.30850918358E+02  0.61649880425E+02  0.00000000000E+00 0. -1.
</event>
<event>
 7    1  0.5977291E-006  0.4390669E+02  0.7818608E-02  0.1524521E+00
          2   -1    0    0  502    0  0.00000000000E+00  0.00000000000E+00  0.16205319223E+03  0.16205319223E+03  0.00000000000E+00 0. -1.
          1   -1    0    0  501    0 -0.00000000000E+00 -0.00000000000E+00 -0.67970336889E+03  0.67970336889E+03  0.00000000000E+00 0. -1.
         25    2    1    2    0    0  0.25061187537E+02 -0.58479487477E+02  0.84457529850E+02  0.16372751590E+03  0.12500284613E+03 0.  0.
          2    1    1    2  501    0 -0.26788408105E+02  0.18680128003E+02 -0.62907543757E+03  0.62992259219E+03  0.00000000000E+00 0. -1.
          1    1    1    2  502    0  0.17272205678E+01  0.39799359474E+02  0.26967731057E+02  0.48106453037E+02  0.00000000000E+00 0. -1.
         22    1    3    3    0    0 -0.48319459157E+01 -0.16938464354E+01  0.98005983242E+02  0.98139643204E+02  0.00000000000E+00 0. -1.
         22    1    3    3    0    0  0.29893133453E+02 -0.56785641041E+02 -0.13548453391E+02  0.65587872701E+02  0.00000000000E+00 0. -1.
</event>
<event>
 7    1  0.5977291E-006  0.5338882E+02  0.7818608E-02  0.1551350E+00
          2   -1    0    0  502    0  0.00000000000E+00  0.00000000000E+00  0.11432094579E+04  0.11432094579E+04  0.00000000000E+00 0. -1.
          1   -1    0    0  501    0 -0.00000000000E+00 -0.00000000000E+00 -0.55264849171E+02  0.55264849171E+02  0.00000000000E+00 0. -1.
         25    2    1    2    0    0  0.21500737628E+02 -0.40906822268E+02  0.62898604632E+03  0.64294938128E+03  0.12499924237E+03 0.  0.
          2    1    1    2  501    0 -0.42511323170E+02  0.32736767232E+02 -0.33038603965E+02  0.63011569401E+02  0.00000000000E+00 0. -1.
          1    1    1    2  502    0  0.21010585542E+02  0.81700550359E+01  0.49199716632E+03  0.49251335634E+03  0.00000000000E+00 0. -1.
         22    1    3    3    0    0 -0.25666792554E+02 -0.46352534251E+02  0.53532498848E+03  0.53794068907E+03  0.00000000000E+00 0. -1.
         22    1    3    3    0    0  0.47167530182E+02  0.54457119827E+01  0.93661057844E+02  0.10500869221E+03  0.00000000000E+00 0. -1.
</event>
<event>
 7    1  0.5977291E-006  0.9744636E+02  0.7818608E-02  0.1430901E+00
          2   -1    0    0  502    0  0.00000000000E+00  0.00000000000E+00  0.40369887179E+02  0.40369887179E+02  0.00000000000E+00 0. -1.
          1   -1    0    0  501    0 -0.00000000000E+00 -0.00000000000E+00 -0.12033503693E+04  0.12033503693E+04  0.00000000000E+00 0. -1.
         25    2    1    2    0    0 -0.83734429933E+02 -0.80159759695E+02 -0.54686178352E+03  0.57281745888E+03  0.12499995636E+03 0.  0.
          2    1    1    2  501    0  0.76692798272E+02  0.52453755884E+02 -0.63159682432E+03  0.63839465090E+03  0.00000000000E+00 0. -1.
          1    1    1    2  502    0  0.70416316607E+01  0.27706003811E+02  0.15478125742E+02  0.32508146673E+02  0.00000000000E+00 0. -1.
         22    1    3    3    0    0  0.29522777127E+02 -0.18722932294E+01 -0.60523356437E+02  0.67365989383E+02  0.00000000000E+00 0.  1.
         22    1    3    3    0    0 -0.11325720706E+03 -0.78287466466E+02 -0.48633842709E+03  0.50545146950E+03  0.00000000000E+00 0.  1.
</event>
<event>
 7    1  0.5977291E-006  0.2721421E+02  0.7818608E-02  0.1644433E+00
          2   -1    0    0  502    0  0.00000000000E+00  0.00000000000E+00  0.11899288915E+04  0.11899288915E+04  0.00000000000E+00 0. -1.
          1   -1    0    0  501    0 -0.00000000000E+00 -0.00000000000E+00 -0.72447466741E+02  0.72447466741E+02  0.00000000000E+00 0. -1.
         25    2    1    2    0    0  0.13896542727E+02  0.40725009447E+02  0.15024906373E+03  0.20012344790E+03  0.12499189155E+03 0.  0.
          2    1    1    2  501    0  0.75350743518E+01 -0.24057936495E+02 -0.43970859880E+02  0.50685285562E+02  0.00000000000E+00 0. -1.
          1    1    1    2  502    0 -0.21431617079E+02 -0.16667072952E+02  0.10112032209E+04  0.10115676248E+04  0.00000000000E+00 0. -1.
         22    1    3    3    0    0 -0.94951171152E+00 -0.28200379859E+02 -0.58711285672E+01  0.28820706919E+02  0.00000000000E+00 0. -1.
         22    1    3    3    0    0  0.14846054439E+02  0.68925389306E+02  0.15612019230E+03  0.17130274098E+03  0.00000000000E+00 0. -1.
</event>
<event>
 7    1  0.5977291E-006  0.1486903E+03  0.7818608E-02  0.1256198E+00
          2   -1    0    0  502    0  0.00000000000E+00  0.00000000000E+00  0.43222814437E+04  0.43222814437E+04  0.00000000000E+00 0. -1.
          1   -1    0    0  501    0 -0.00000000000E+00 -0.00000000000E+00 -0.20889262812E+03  0.20889262812E+03  0.00000000000E+00 0. -1.
         25    2    1    2    0    0 -0.16308980188E+03 -0.31306817382E+02  0.16657424713E+04  0.16786602655E+04  0.12499562478E+03 0.  0.
          2    1    1    2  501    0  0.51836780568E+02 -0.67313070477E+02 -0.19133423553E+03  0.20934873050E+03  0.00000000000E+00 0. -1.
          1    1    1    2  502    0  0.11125302131E+03  0.98619887858E+02  0.26389805799E+04  0.26431650758E+04  0.00000000000E+00 0. -1.
         22    1    3    3    0    0 -0.17264644519E+03 -0.19783246386E+02  0.11839430911E+04  0.11966283528E+04  0.00000000000E+00 0.  1.
         22    1    3    3    0    0  0.95566433161E+01 -0.11523570995E+02  0.48179938017E+03  0.48203191269E+03  0.00000000000E+00 0.  1.
</event>
<event>
 7    1  0.5977291E-006  0.7851171E+02  0.7818608E-02  0.1337050E+00
          2   -1    0    0  502    0  0.00000000000E+00  0.00000000000E+00  0.91389614740E+03  0.91389614740E+03  0.00000000000E+00 0. -1.
          1   -1    0    0  501    0 -0.00000000000E+00 -0.00000000000E+00 -0.24742866665E+03  0.24742866665E+03  0.00000000000E+00 0. -1.
         25    2    1    2    0    0  0.28913849369E+02  0.12725440407E+03  0.18273595406E+03  0.25699596586E+03  0.12499921409E+03 0.  0.
          2    1    1    2  501    0  0.24096878458E+02 -0.72081760352E+02 -0.20123140243E+03  0.21510582756E+03  0.00000000000E+00 0. -1.
          1    1    1    2  502    0 -0.53010727827E+02 -0.55172643713E+02  0.68496292913E+03  0.68922302062E+03  0.00000000000E+00 0. -1.
         22    1    3    3    0    0  0.28093175264E+02  0.13617379667E+03  0.94059199099E+02  0.16786799079E+03  0.00000000000E+00 0.  1.
         22    1    3    3    0    0  0.82067410475E+00 -0.89193926044E+01  0.88676754958E+02  0.89127975072E+02  0.00000000000E+00 0.  1.
</event>
<event>
 7    1  0.5977291E-006  0.9696277E+02  0.7818608E-02  0.1410995E+00
          2   -1    0    0  502    0  0.00000000000E+00  0.00000000000E+00  0.10503999135E+04  0.10503999135E+04  0.00000000000E+00 0. -1.
          1   -1    0    0  501    0 -0.00000000000E+00 -0.00000000000E+00 -0.26948288949E+02  0.26948288949E+02  0.00000000000E+00 0. -1.
         25    2    1    2    0    0  0.11108791271E+03 -0.17394912609E+01  0.31596903477E+03  0.35749821601E+03  0.12499997336E+03 0.  0.
          2    1    1    2  501    0 -0.82766306506E+02 -0.16106327909E+02  0.31994401966E+03  0.33086832881E+03  0.00000000000E+00 0. -1.
          1    1    1    2  502    0 -0.28321606203E+02  0.17845819170E+02  0.38753857014E+03  0.38898165764E+03  0.00000000000E+00 0. -1.
         22    1    3    3    0    0  0.25492760254E+02 -0.58938782445E+02  0.12659288001E+03  0.14194864624E+03  0.00000000000E+00 0. -1.
         22    1    3    3    0    0  0.85595152454E+02  0.57199291184E+02  0.18937615476E+03  0.21554956976E+03  0.00000000000E+00 0. -1.
</event>
<event>
 7    1  0.5977291E-006  0.1249742E+03  0.7818608E-02  0.1361945E+00
          2   -1    0    0  502    0  0.00000000000E+00  0.00000000000E+00  0.92275703023E+03  0.92275703023E+03  0.00000000000E+00 0. -1.
          1   -1    0    0  501    0 -0.00000000000E+00 -0.00000000000E+00 -0.15032644727E+03  0.15032644727E+03  0.00000000000E+00 0. -1.
         25    2    1    2    0    0  0.14176883796E+02 -0.16087886214E+03  0.13746087247E+02  0.20468938772E+03  0.12500319281E+03 0.  0.
          2    1    1    2  501    0 -0.74010082298E+01  0.37887489198E+02 -0.42720230786E+02  0.57578250051E+02  0.00000000000E+00 0. -1.
          1    1    1    2  502    0 -0.67758755666E+01  0.12299137295E+03  0.80140472649E+03  0.81081583973E+03  0.00000000000E+00 0. -1.
         22    1    3    3    0    0 -0.67239229294E+01 -0.58462527974E+02 -0.54212149948E+02  0.80012720980E+02  0.00000000000E+00 0.  1.
         22    1    3    3    0    0  0.20900806726E+02 -0.10241633417E+03  0.67958237195E+02  0.12467666674E+03  0.00000000000E+00 0.  1.
</event>
<event>
 7    1  0.5977291E-006  0.7258393E+02  0.7818608E-02  0.1381858E+00
          2   -1    0    0  502    0  0.00000000000E+00  0.00000000000E+00  0.12572657738E+04  0.12572657738E+04  0.00000000000E+00 0. -1.
          1   -1    0    0  501    0 -0.00000000000E+00 -0.00000000000E+00 -0.23133403330E+03  0.23133403330E+03  0.00000000000E+00 0. -1.
         25    2    1    2    0    0 -0.21134984255E+02  0.12252069472E+03  0.97480690624E+03  0.99062177612E+03  0.12499996272E+03 0.  0.
          2    1    1    2  501    0 -0.42520140525E+01 -0.72166210800E+02 -0.21454091364E+03  0.22639312098E+03  0.00000000000E+00 0. -1.
          1    1    1    2  502    0  0.25386998308E+02 -0.50354483920E+02  0.26566574794E+03  0.27158491004E+03  0.00000000000E+00 0. -1.
         22    1    3    3    0    0  0.49002942805E+02  0.35489909765E+02  0.44956837897E+03  0.45362159282E+03  0.00000000000E+00 0.  1.
         22    1    3    3    0    0 -0.70137927060E+02  0.87030784955E+02  0.52523852726E+03  0.53700018330E+03  0.00000000000E+00 0.  1.
</event>
<event>
 7    1  0.5977291E-006  0.1556767E+03  0.7818608E-02  0.1248063E+00
          2   -1    0    0  502    0  0.00000000000E+00  0.00000000000E+00  0.12309615979E+04  0.12309615979E+04  0.00000000000E+00 0. -1.
          1   -1    0    0  501    0 -0.00000000000E+00 -0.00000000000E+00 -0.26282893316E+04  0.26282893316E+04  0.00000000000E+00 0. -1.
         25    2    1    2    0    0 -0.20279123302E+03  0.70969703528E+02  0.61840278397E+03  0.66648977556E+03  0.12500253877E+03 0.  0.
          2    1    1    2  501    0  0.87889630294E+02  0.42317245345E+01 -0.25954794409E+04  0.25969705472E+04  0.00000000000E+00 0. -1.
          1    1    1    2  502    0  0.11490160273E+03 -0.75201428062E+02  0.57974892328E+03  0.59579060679E+03  0.00000000000E+00 0. -1.
         22    1    3    3    0    0  0.13477644552E+02  0.17028440715E+01  0.94713973464E+02  0.95683244876E+02  0.00000000000E+00 0. -1.
         22    1    3    3    0    0 -0.21626887757E+03  0.69266859456E+02  0.52368881050E+03  0.57080653069E+03  0.00000000000E+00 0. -1.
</event>
<event>
 7    1  0.5977291E-006  0.1077195E+03  0.7818608E-02  0.1304140E+00
          2   -1    0    0  502    0  0.00000000000E+00  0.00000000000E+00  0.51244073546E+03  0.51244073546E+03  0.00000000000E+00 0. -1.
          1   -1    0    0  501    0 -0.00000000000E+00 -0.00000000000E+00 -0.68172772367E+03  0.68172772367E+03  0.00000000000E+00 0. -1.
         25    2    1    2    0    0  0.76438595824E+02 -0.57144836222E+02 -0.27002986989E+02  0.15956932653E+03  0.12499926969E+03 0.  0.
          2    1    1    2  501    0 -0.11008720130E+03 -0.91133821197E+01 -0.58009871252E+03  0.59052244825E+03  0.00000000000E+00 0. -1.
          1    1    1    2  502    0  0.33648605478E+02  0.66258218342E+02  0.43781471130E+03  0.44407668434E+03  0.00000000000E+00 0. -1.
         22    1    3    3    0    0  0.63490319270E+02 -0.86243815716E+02  0.13612456936E+02  0.10795515446E+03  0.00000000000E+00 0. -1.
         22    1    3    3    0    0  0.12948276554E+02  0.29098979494E+02 -0.40615443925E+02  0.51614172071E+02  0.00000000000E+00 0. -1.
</event>
<event>
 7    1  0.5977291E-006  0.5013112E+02  0.7818608E-02  0.1448654E+00
          2   -1    0    0  502    0  0.00000000000E+00  0.00000000000E+00  0.14034338448E+04  0.14034338448E+04  0.00000000000E+00 0. -1.
          1   -1    0    0  501    0 -0.00000000000E+00 -0.00000000000E+00 -0.53720920830E+03  0.53720920830E+03  0.00000000000E+00 0. -1.
         25    2    1    2    0    0 -0.55229754163E+01 -0.60660188335E+01  0.19239417822E+03  0.22957875867E+03  0.12499434700E+03 0.  0.
          2    1    1    2  501    0 -0.25802777909E+02  0.43304048926E+02 -0.51689387563E+03  0.51934603364E+03  0.00000000000E+00 0. -1.
          1    1    1    2  502    0  0.31325753325E+02 -0.37238030093E+02  0.11907243339E+04  0.11917182608E+04  0.00000000000E+00 0. -1.
         22    1    3    3    0    0  0.15835220337E+02  0.19477282085E+01 -0.14422896093E+02  0.21507388963E+02  0.00000000000E+00 0.  1.
         22    1    3    3    0    0 -0.21358195753E+02 -0.80137470420E+01  0.20681707431E+03  0.20807136971E+03  0.00000000000E+00 0.  1.
</event>
<event>
 7    1  0.5977291E-006  0.6707072E+02  0.7818608E-02  0.1421150E+00
          2   -1    0    0  502    0  0.00000000000E+00  0.00000000000E+00  0.96368420327E+03  0.96368420327E+03  0.00000000000E+00 0. -1.
          1   -1    0    0  501    0 -0.00000000000E+00 -0.00000000000E+00 -0.31787983668E+03  0.31787983668E+03  0.00000000000E+00 0. -1.
         25    2    1    2    0    0 -0.85060442764E+01  0.43490333280E+02 -0.10436159851E+01  0.13262637137E+03  0.12499961348E+03 0.  0.
          2    1    1    2  501    0  0.53231817553E+02 -0.44571185278E+02 -0.24567365386E+03  0.25529543897E+03  0.00000000000E+00 0. -1.
          1    1    1    2  502    0 -0.44725773276E+02  0.10808519979E+01  0.89252163644E+03  0.89364222961E+03  0.00000000000E+00 0. -1.
         22    1    3    3    0    0  0.22211332024E+02  0.50454002180E+02 -0.49992758250E+02  0.74419254791E+02  0.00000000000E+00 0.  1.
         22    1    3    3    0    0 -0.30717376300E+02 -0.69636689001E+01  0.48949142265E+02  0.58207116574E+02  0.00000000000E+00 0.  1.
</event>
<event>
 7    1  0.5977291E-006  0.8395771E+02  0.7818608E-02  0.1408954E+00
          2   -1    0    0  502    0  0.00000000000E+00  0.00000000000E+00  0.61574709766E+03  0.61574709766E+03  0.00000000000E+00 0. -1.
          1   -1    0    0  501    0 -0.00000000000E+00 -0.00000000000E+00 -0.32105065764E+02  0.32105065764E+02  0.00000000000E+00 0. -1.
         25    2    1    2    0    0  0.10321984683E+03  0.19330605938E+02  0.35249699115E+03  0.38846640530E+03  0.12499604062E+03 0.  0.
          2    1    1    2  501    0 -0.67870129260E+02 -0.36459900955E+02  0.13350562223E+03  0.15414094196E+03  0.00000000000E+00 0. -1.
          1    1    1    2  502    0 -0.35349717571E+02  0.17129295016E+02  0.97639418517E+02  0.10524481616E+03  0.00000000000E+00 0. -1.
         22    1    3    3    0    0 -0.11190073827E+02  0.23883070723E+02  0.11524729843E+02  0.28782602686E+02  0.00000000000E+00 0.  1.
         22    1    3    3    0    0  0.11440992066E+03 -0.45524647853E+01  0.34097226131E+03  0.35968380261E+03  0.00000000000E+00 0.  1.
</event>
<event>
 7    1  0.5977291E-006  0.6435814E+02  0.7818608E-02  0.1407320E+00
          2   -1    0    0  502    0  0.00000000000E+00  0.00000000000E+00  0.52838585068E+03  0.52838585068E+03  0.00000000000E+00 0. -1.
          1   -1    0    0  501    0 -0.00000000000E+00 -0.00000000000E+00 -0.45563538965E+03  0.45563538965E+03  0.00000000000E+00 0. -1.
         25    2    1    2    0    0  0.64887321356E+02  0.10978544246E+02 -0.59103187640E+02  0.15313086750E+03  0.12499993154E+03 0.  0.
          2    1    1    2  501    0 -0.29097458081E+02  0.42980166397E+02 -0.34539317368E+03  0.34927124301E+03  0.00000000000E+00 0. -1.
          1    1    1    2  502    0 -0.35789863276E+02 -0.53958710643E+02  0.47724682235E+03  0.48161912982E+03  0.00000000000E+00 0. -1.
         22    1    3    3    0    0 -0.10012826808E+02  0.11793252151E+02  0.31787464738E+02  0.35352233472E+02  0.00000000000E+00 0.  1.
         22    1    3    3    0    0  0.74900148165E+02 -0.81470790444E+00 -0.90890652378E+02  0.11777863403E+03  0.00000000000E+00 0.  1.
</event>
<event>
 7    1  0.5977291E-006  0.7243619E+02  0.7818608E-02  0.1449971E+00
          2   -1    0    0  502    0  0.00000000000E+00  0.00000000000E+00  0.78902728723E+03  0.78902728723E+03  0.00000000000E+00 0. -1.
          1   -1    0    0  501    0 -0.00000000000E+00 -0.00000000000E+00 -0.55217425233E+03  0.55217425233E+03  0.00000000000E+00 0. -1.
         25    2    1    2    0    0 -0.84242322381E+02 -0.58180035571E+02  0.29119494079E+03  0.33301807938E+03  0.12499944893E+03 0.  0.
          2    1    1    2  501    0  0.51842165721E+02  0.50268054388E+02 -0.52822003623E+03  0.53313309231E+03  0.00000000000E+00 0. -1.
          1    1    1    2  502    0  0.32400156660E+02  0.79119811826E+01  0.47387813035E+03  0.47505036788E+03  0.00000000000E+00 0. -1.
         22    1    3    3    0    0  0.13826212847E+02  0.18414883323E+02  0.11518108842E+03  0.11746044108E+03  0.00000000000E+00 0.  1.
         22    1    3    3    0    0 -0.98068535228E+02 -0.76594918894E+02  0.17601385236E+03  0.21555763829E+03  0.00000000000E+00 0.  1.
</event>
<event>
 7    1  0.5977291E-006  0.1197949E+03  0.7818608E-02  0.1367270E+00
          2   -1    0    0  502    0  0.00000000000E+00  0.00000000000E+00  0.18979167758E+04  0.18979167758E+04  0.00000000000E+00 0. -1.
          1   -1    0    0  501    0 -0.00000000000E+00 -0.00000000000E+00 -0.26685799553E+02  0.26685799553E+02  0.00000000000E+00 0. -1.
         25    2    1    2    0    0  0.61645691085E+02  0.96264911076E+02  0.10319630059E+04  0.10457709627E+04  0.12498854555E+03 0.  0.
          2    1    1    2  501    0 -0.29857595428E+02 -0.11802427138E+03  0.17350796603E+03  0.21195805933E+03  0.00000000000E+00 0. -1.
          1    1    1    2  502    0 -0.31788095657E+02  0.21759360308E+02  0.66576000433E+03  0.66687355335E+03  0.00000000000E+00 0. -1.
         22    1    3    3    0    0 -0.24260157269E+02  0.63872901963E+02  0.27960970479E+03  0.28783656795E+03  0.00000000000E+00 0.  1.
         22    1    3    3    0    0  0.85905848354E+02  0.32392009113E+02  0.75235330110E+03  0.75793439473E+03  0.00000000000E+00 0.  1.
</event>
<event>
 7    1  0.5977291E-006  0.4087471E+02  0.7818608E-02  0.1506932E+00
          2   -1    0    0  502    0  0.00000000000E+00  0.00000000000E+00  0.21419575337E+04  0.21419575337E+04  0.00000000000E+00 0. -1.
          1   -1    0    0  501    0 -0.00000000000E+00 -0.00000000000E+00 -0.67390869571E+01  0.67390869571E+01  0.00000000000E+00 0. -1.
         25    2    1    2    0    0 -0.53223224200E+01 -0.51013671717E+01  0.12628909129E+04  0.12690834605E+04  0.12500008312E+03 0.  0.
          2    1    1    2  501    0  0.10237618466E+02  0.44280363098E+02  0.16385830063E+03  0.17004441206E+03  0.00000000000E+00 0. -1.
          1    1    1    2  502    0 -0.49152960465E+01 -0.39178995926E+02  0.70846923314E+03  0.70956874801E+03  0.00000000000E+00 0. -1.
         22    1    3    3    0    0 -0.34133060423E+02  0.22362783179E+02  0.11202525539E+04  0.11209955149E+04  0.00000000000E+00 0. -1.
         22    1    3    3    0    0  0.28810738003E+02 -0.27464150351E+02  0.14263835905E+03  0.14808794566E+03  0.00000000000E+00 0. -1.
</event>
<event>
 7    1  0.5977291E-006  0.8969953E+02  0.7818608E-02  0.1333040E+00
          2   -1    0    0  502    0  0.00000000000E+00  0.00000000000E+00  0.80046525733E+03  0.80046525733E+03  0.00000000000E+00 0. -1.
          1   -1    0    0  501    0 -0.00000000000E+00 -0.00000000000E+00 -0.19091387388E+03  0.19091387388E+03  0.00000000000E+00 0. -1.
         25    2    1    2    0    0 -0.26551152209E+02 -0.60774669347E+02 -0.73089876366E+02  0.15926383123E+03  0.12499725514E+03 0.  0.
          2    1    1    2  501    0  0.90361409584E+02 -0.22670348037E+01 -0.43599814880E+02  0.10035570560E+03  0.00000000000E+00 0. -1.
          1    1    1    2  502    0 -0.63810257375E+02  0.63041704151E+02  0.72624107469E+03  0.73175959439E+03  0.00000000000E+00 0. -1.
         22    1    3    3    0    0 -0.70910714462E+02 -0.64908830147E+02 -0.57749473191E+02  0.11214493885E+03  0.00000000000E+00 0.  1.
         22    1    3    3    0    0  0.44359562253E+02  0.41341608001E+01 -0.15340403175E+02  0.47118892372E+02  0.00000000000E+00 0.  1.
</event>
<event>
 7    1  0.5977291E-006  0.6798040E+02  0.7818608E-02  0.1433238E+00
          2   -1    0    0  502    0  0.00000000000E+00  0.00000000000E+00  0.15483636249E+03  0.15483636249E+03  0.00000000000E+00 0. -1.
          1   -1    0    0  501    0 -0.00000000000E+00 -0.00000000000E+00 -0.16488978852E+04  0.16488978852E+04  0.00000000000E+00 0. -1.
         25    2    1    2    0    0  0.45374310725E+02  0.99424041129E+01 -0.67160197858E+03  0.68471314552E+03  0.12500077816E+03 0.  0.
          2    1    1    2  501    0 -0.70514162043E+02  0.21504050508E+02 -0.96657779003E+03  0.96938500887E+03  0.00000000000E+00 0. -1.
          1    1    1    2  502    0  0.25139851317E+02 -0.31446454621E+02  0.14411824588E+03  0.14963609333E+03  0.00000000000E+00 0. -1.
         22    1    3    3    0    0  0.54174090561E+02  0.40320273831E+02 -0.62349235675E+03  0.62713896028E+03  0.00000000000E+00 0.  1.
         22    1    3    3    0    0 -0.87997798356E+01 -0.30377869719E+02 -0.48109621825E+02  0.57574185239E+02  0.00000000000E+00 0.  1.
</event>
<event>
 7    1  0.5977291E-006  0.1009508E+03  0.7818608E-02  0.1369936E+00
          2   -1    0    0  502    0  0.00000000000E+00  0.00000000000E+00  0.17019718966E+03  0.17019718966E+03  0.00000000000E+00 0. -1.
          1   -1    0    0  501    0 -0.00000000000E+00 -0.00000000000E+00 -0.46810798166E+03  0.46810798166E+03  0.00000000000E+00 0. -1.
         25    2    1    2    0    0  0.20205143738E+02 -0.80475354246E+02 -0.15030602700E+03  0.21236928148E+03  0.12499711792E+03 0.  0.
          2    1    1    2  501    0  0.44712070686E+02 -0.32160520585E+00 -0.26533903701E+03  0.26908005733E+03  0.00000000000E+00 0. -1.
          1    1    1    2  502    0 -0.64917214424E+02  0.80796959452E+02  0.11773427201E+03  0.15685583250E+03  0.00000000000E+00 0. -1.
         22    1    3    3    0    0  0.47388114082E+02 -0.36650365437E+02 -0.73021331651E+01  0.60350673498E+02  0.00000000000E+00 0. -1.
         22    1    3    3    0    0 -0.27182970344E+02 -0.43824988809E+02 -0.14300389384E+03  0.15201860798E+03  0.00000000000E+00 0. -1.
</event>
<event>
 7    1  0.5977291E-006  0.6265273E+02  0.7818608E-02  0.1538991E+00
          2   -1    0    0  502    0  0.00000000000E+00  0.00000000000E+00  0.17124389845E+03  0.17124389845E+03  0.00000000000E+00 0. -1.
          1   -1    0    0  501    0 -0.00000000000E+00 -0.00000000000E+00 -0.15131960339E+04  0.15131960339E+04  0.00000000000E+00 0. -1.
         25    2    1    2    0    0 -0.18056384838E+02 -0.41199362095E+02 -0.17319518642E+03  0.21827792398E+03  0.12500103611E+03 0.  0.
          2    1    1    2  501    0  0.35687177338E+02  0.52249904141E+02 -0.13159676966E+04  0.13174879907E+04  0.00000000000E+00 0. -1.
          1    1    1    2  502    0 -0.17630792500E+02 -0.11050542046E+02  0.14721074759E+03  0.14867401767E+03  0.00000000000E+00 0. -1.
         22    1    3    3    0    0  0.46279526274E+02 -0.49744794817E+02 -0.89398698292E+02  0.11228742770E+03  0.00000000000E+00 0.  1.
         22    1    3    3    0    0 -0.64335911112E+02  0.85454327217E+01 -0.83796488131E+02  0.10599049628E+03  0.00000000000E+00 0.  1.
</event>
<event>
 7    1  0.5977291E-006  0.6169087E+02  0.7818608E-02  0.1433634E+00
          2   -1    0    0  502    0  0.00000000000E+00  0.00000000000E+00  0.23019272821E+04  0.23019272821E+04  0.00000000000E+00 0. -1.
          1   -1    0    0  501    0 -0.00000000000E+00 -0.00000000000E+00 -0.38937089039E+03  0.38937089039E+03  0.00000000000E+00 0. -1.
         25    2    1    2    0    0 -0.79941130381E+02  0.48694172168E+02  0.25328548909E+03  0.29755676739E+03  0.12499913641E+03 0.  0.
          2    1    1    2  501    0  0.44222132858E+02  0.96953755167E+00 -0.36543965967E+03  0.36810688923E+03  0.00000000000E+00 0. -1.
          1    1    1    2  502    0  0.35718997523E+02 -0.49663709720E+02  0.20247105623E+04  0.20256345159E+04  0.00000000000E+00 0. -1.
         22    1    3    3    0    0  0.14690076197E+02  0.13208492232E+02 -0.48499373776E+01  0.20341693595E+02  0.00000000000E+00 0.  1.
         22    1    3    3    0    0 -0.94631206578E+02  0.35485679936E+02  0.25813542647E+03  0.27721507379E+03  0.00000000000E+00 0.  1.
</event>
<event>
 7    1  0.5977291E-006  0.9923608E+02  0.7818608E-02  0.1413133E+00
          2   -1    0    0  502    0  0.00000000000E+00  0.00000000000E+00  0.33719546050E+03  0.33719546050E+03  0.00000000000E+00 0. -1.
          1   -1    0    0  501    0 -0.00000000000E+00 -0.00000000000E+00 -0.25366128867E+04  0.25366128867E+04  0.00000000000E+00 0. -1.
         25    2    1    2    0    0 -0.77200185077E+02 -0.20094532272E+02 -0.10417627533E+03  0.18121809060E+03  0.12499456474E+03 0.  0.
          2    1    1    2  501    0 -0.95847700928E+01 -0.30707891595E+02 -0.23853396823E+04  0.23855565896E+04  0.00000000000E+00 0. -1.
          1    1    1    2  502    0  0.86784955170E+02  0.50802423867E+02  0.29009853142E+03  0.30703366696E+03  0.00000000000E+00 0. -1.
         22    1    3    3    0    0 -0.89625167236E+02 -0.55167649700E+02 -0.97398951462E+02  0.14339698714E+03  0.00000000000E+00 0.  1.
         22    1    3    3    0    0  0.12424982158E+02  0.35073117429E+02 -0.67773238653E+01  0.37821103455E+02  0.00000000000E+00 0.  1.
</event>
<event>
 7    1  0.5977291E-006  0.1466700E+03  0.7818608E-02  0.1294627E+00
          2   -1    0    0  502    0  0.00000000000E+00  0.00000000000E+00  0.26854296632E+03  0.26854296632E+03  0.00000000000E+00 0. -1.
          1   -1    0    0  501    0 -0.00000000000E+00 -0.00000000000E+00 -0.17502970035E+04  0.17502970035E+04  0.00000000000E+00 0. -1.
         25    2    1    2    0    0 -0.10995253064E+03 -0.57913308281E+02  0.11144128926E+02  0.17661455322E+03  0.12499999412E+03 0.  0.
          2    1    1    2  501    0  0.14734873592E+03  0.11525152636E+02 -0.16590975880E+04  0.16656678197E+04  0.00000000000E+00 0. -1.
          1    1    1    2  502    0 -0.37396205284E+02  0.46388155644E+02  0.16619942194E+03  0.17655759685E+03  0.00000000000E+00 0. -1.
         22    1    3    3    0    0 -0.79851256630E+02 -0.71737602568E+02 -0.40943839136E+02  0.11488648646E+03  0.00000000000E+00 0.  1.
         22    1    3    3    0    0 -0.30101274007E+02  0.13824294287E+02  0.52087968062E+02  0.61728066762E+02  0.00000000000E+00 0.  1.
</event>
<event>
 7    1  0.5977291E-006  0.1408197E+03  0.7818608E-02  0.1220000E+00
          2   -1    0    0  502    0  0.00000000000E+00  0.00000000000E+00  0.45463081783E+03  0.45463081783E+03  0.00000000000E+00 0. -1.
          1   -1    0    0  501    0 -0.00000000000E+00 -0.00000000000E+00 -0.10491161525E+04  0.10491161525E+04  0.00000000000E+00 0. -1.
         25    2    1    2    0    0  0.63410377991E+01 -0.37849772350E+02 -0.14086866423E+03  0.19220103127E+03  0.12499776731E+03 0.  0.
          2    1    1    2  501    0  0.11141918620E+03  0.11506846724E+03 -0.86345723641E+03  0.87818755759E+03  0.00000000000E+00 0. -1.
          1    1    1    2  502    0 -0.11776022400E+03 -0.77218694891E+02  0.40984056601E+03  0.43335838142E+03  0.00000000000E+00 0. -1.
         22    1    3    3    0    0  0.22962454366E+02  0.34805075348E+02 -0.12098981625E+02  0.43417196327E+02  0.00000000000E+00 0. -1.
         22    1    3    3    0    0 -0.16621416567E+02 -0.72654847699E+02 -0.12876968260E+03  0.14878383494E+03  0.00000000000E+00 0. -1.
</event>
<event>
 7    1  0.5977291E-006  0.4576500E+02  0.7818608E-02  0.1480802E+00
          2   -1    0    0  502    0  0.00000000000E+00  0.00000000000E+00  0.11653380518E+03  0.11653380518E+03  0.00000000000E+00 0. -1.
          1   -1    0    0  501    0 -0.00000000000E+00 -0.00000000000E+00 -0.86022054713E+03  0.86022054713E+03  0.00000000000E+00 0. -1.
         25    2    1    2    0    0 -0.54514845886E+02  0.43693012787E+02 -0.66351107790E+03  0.67878847231E+03  0.12500356739E+03 0.  0.
          2    1    1    2  501    0  0.42266139399E+02  0.31844517191E+00 -0.18174513460E+03  0.18659534264E+03  0.00000000000E+00 0. -1.
          1    1    1    2  502    0  0.12248706488E+02 -0.44011457959E+02  0.10156947055E+03  0.11137053735E+03  0.00000000000E+00 0. -1.
         22    1    3    3    0    0 -0.56629187683E+02 -0.20294507198E+02 -0.49295793024E+03  0.49661479328E+03  0.00000000000E+00 0. -1.
         22    1    3    3    0    0  0.21143417970E+01  0.63987519985E+02 -0.17055314766E+03  0.18217367903E+03  0.00000000000E+00 0. -1.
</event>
<event>
 7    1  0.5977291E-006  0.2855897E+02  0.7818608E-02  0.1616421E+00
          2   -1    0    0  502    0  0.00000000000E+00  0.00000000000E+00  0.23211942685E+04  0.23211942685E+04  0.00000000000E+00 0. -1.
          1   -1    0    0  501    0 -0.00000000000E+00 -0.00000000000E+00 -0.13070203205E+02  0.13070203205E+02  0.00000000000E+00 0. -1.
         25    2    1    2    0    0 -0.37282605487E+02 -0.11445880466E+02  0.10616906542E+04  0.10697344569E+04  0.12499504853E+03 0.  0.
          2    1    1    2  501    0  0.12808086233E+02  0.25557884733E+02  0.14105251660E+02  0.31878059373E+02  0.00000000000E+00 0. -1.
          1    1    1    2  502    0  0.24474519254E+02 -0.14112004267E+02  0.12323281594E+04  0.12326519554E+04  0.00000000000E+00 0. -1.
         22    1    3    3    0    0  0.45891949505E+02  0.59031686645E+00  0.31422268796E+03  0.31755679356E+03  0.00000000000E+00 0.  1.
         22    1    3    3    0    0 -0.83174554992E+02 -0.12036197332E+02  0.74746796625E+03  0.75217766334E+03  0.00000000000E+00 0.  1.
</event>
<event>
 7    1  0.5977291E-006  0.8068897E+02  0.7818608E-02  0.1389265E+00
          2   -1    0    0  502    0  0.00000000000E+00  0.00000000000E+00  0.16430832384E+03  0.16430832384E+03  0.00000000000E+00 0. -1.
          1   -1    0    0  501    0 -0.00000000000E+00 -0.00000000000E+00 -0.56152017229E+03  0.56152017229E+03  0.00000000000E+00 0. -1.
         25    2    1    2    0    0  0.86250099029E+02 -0.84650377801E+02 -0.21087779585E+03  0.27331186561E+03  0.12500066022E+03 0.  0.
          2    1    1    2  501    0 -0.60574227443E+02  0.44357829445E+02 -0.31051440794E+03  0.31946212858E+03  0.00000000000E+00 0. -1.
          1    1    1    2  502    0 -0.25675871586E+02  0.40292548356E+02  0.12418035533E+03  0.13305450194E+03  0.00000000000E+00 0. -1.
         22    1    3    3    0    0 -0.21191458166E+02 -0.20516280244E+02 -0.16737798568E+01  0.29543141222E+02  0.00000000000E+00 0. -1.
         22    1    3    3    0    0  0.10744155720E+03 -0.64134097557E+02 -0.20920401600E+03  0.24376872439E+03  0.00000000000E+00 0. -1.
</event>
<event>
 7    1  0.5977291E-006  0.5517742E+02  0.7818608E-02  0.1490812E+00
          2   -1    0    0  502    0  0.00000000000E+00  0.00000000000E+00  0.13761685560E+04  0.13761685560E+04  0.00000000000E+00 0. -1.
          1   -1    0    0  501    0 -0.00000000000E+00 -0.00000000000E+00 -0.90135214759E+02  0.90135214759E+02  0.00000000000E+00 0. -1.
         25    2    1    2    0    0  0.36192229023E+02  0.76754520450E+01  0.33979144008E+03  0.36393905505E+03  0.12499849212E+03 0.  0.
          2    1    1    2  501    0  0.39293979786E+01  0.32445694080E+02 -0.73817170286E+02  0.80728792025E+02  0.00000000000E+00 0. -1.
          1    1    1    2  502    0 -0.40121627002E+02 -0.40121146125E+02  0.10200590714E+04  0.10216359237E+04  0.00000000000E+00 0. -1.
         22    1    3    3    0    0  0.72541108029E+02 -0.15986919631E+01  0.11456137140E+03  0.13560632724E+03  0.00000000000E+00 0.  1.
         22    1    3    3    0    0 -0.36348879006E+02  0.92741440080E+01  0.22523006868E+03  0.22833272781E+03  0.00000000000E+00 0.  1.
</event>
<event>
 7    1  0.5977291E-006  0.8348387E+02  0.7818608E-02  0.1354785E+00
          2   -1    0    0  502    0  0.00000000000E+00  0.00000000000E+00  0.90919446835E+03  0.90919446835E+03  0.00000000000E+00 0. -1.
          1   -1    0    0  501    0 -0.00000000000E+00 -0.00000000000E+00 -0.51996795403E+03  0.51996795403E+03  0.00000000000E+00 0. -1.
         25    2    1    2    0    0  0.77105636966E+02 -0.22313946789E+02  0.68781354686E+02  0.16371913325E+03  0.12501955193E+03 0.  0.
          2    1    1    2  501    0 -0.19891152138E+01  0.61349589914E+02 -0.46823084118E+03  0.47223706906E+03  0.00000000000E+00 0. -1.
          1    1    1    2  502    0 -0.75116521752E+02 -0.39035643125E+02  0.78867600082E+03  0.79320622006E+03  0.00000000000E+00 0. -1.
         22    1    3    3    0    0  0.93870877018E+02 -0.47370609345E+02  0.79397852847E+02  0.13175634793E+03  0.00000000000E+00 0.  1.
         22    1    3    3    0    0 -0.16765240052E+02  0.25056662555E+02 -0.10616498161E+02  0.31962785323E+02  0.00000000000E+00 0.  1.
</event>
<event>
 7    1  0.5977291E-006  0.8177171E+02  0.7818608E-02  0.1365901E+00
          2   -1    0    0  502    0  0.00000000000E+00  0.00000000000E+00  0.23578251364E+04  0.23578251364E+04  0.00000000000E+00 0. -1.
          1   -1    0    0  501    0 -0.00000000000E+00 -0.00000000000E+00 -0.10518822243E+04  0.10518822243E+04  0.00000000000E+00 0. -1.
         25    2    1    2    0    0  0.14342776522E+00 -0.26543810168E+02  0.14131394684E+03  0.19052493341E+03  0.12500209697E+03 0.  0.
          2    1    1    2  501    0 -0.44827303167E+01 -0.56904727439E+02 -0.10256865004E+04  0.10272735955E+04  0.00000000000E+00 0. -1.
          1    1    1    2  502    0  0.43393025515E+01  0.83448537607E+02  0.21903154657E+04  0.21919088318E+04  0.00000000000E+00 0. -1.
         22    1    3    3    0    0 -0.24190331753E+02 -0.45173594210E+02  0.15013113717E+03  0.15863538103E+03  0.00000000000E+00 0.  1.
         22    1    3    3    0    0  0.24333759519E+02  0.18629784042E+02 -0.88171903292E+01  0.31889552381E+02  0.00000000000E+00 0.  1.
</event>
<event>
 7    1  0.5977291E-006  0.9594550E+02  0.7818608E-02  0.1435463E+00
          2   -1    0    0  502    0  0.00000000000E+00  0.00000000000E+00  0.87745092556E+03  0.87745092556E+03  0.00000000000E+00 0. -1.
          1   -1    0    0  501    0 -0.00000000000E+00 -0.00000000000E+00 -0.52076230126E+02  0.52076230126E+02  0.00000000000E+00 0. -1.
         25    2    1    2    0    0 -0.11289359146E+03  0.37151813279E+02  0.21565883930E+03  0.27615126201E+03  0.12500225726E+03 0.  0.
          2    1    1    2  501    0  0.21518102198E+02 -0.17995970268E+02 -0.75818063024E+01  0.29058001564E+02  0.00000000000E+00 0. -1.
          1    1    1    2  502    0  0.91375489263E+02 -0.19155843011E+02  0.61729766243E+03  0.62431789211E+03  0.00000000000E+00 0. -1.
         22    1    3    3    0    0 -0.97551330884E+02  0.59561075207E+02  0.22068972713E+03  0.24853116404E+03  0.00000000000E+00 0.  1.
         22    1    3    3    0    0 -0.15342260577E+02 -0.22409261928E+02 -0.50308878307E+01  0.27620097975E+02  0.00000000000E+00 0.  1.
</event>
<event>
 7    1  0.5977291E-006  0.1719288E+03  0.7818608E-02  0.1316225E+00
          2   -1    0    0  502    0  0.00000000000E+00  0.00000000000E+00  0.34129130375E+03  0.34129130375E+03  0.00000000000E+00 0. -1.
          1   -1    0    0  501    0 -0.00000000000E+00 -0.00000000000E+00 -0.56246538181E+03  0.56246538181E+03  0.00000000000E+00 0. -1.
         25    2    1    2    0    0  0.11825575247E+03  0.14121125374E+03  0.20506572238E+03  0.30265896281E+03  0.12500182437E+03 0.  0.
          2    1    1    2  501    0 -0.78127896017E+02 -0.15264499440E+03 -0.49322323092E+03  0.52218159482E+03  0.00000000000E+00 0. -1.
          1    1    1    2  502    0 -0.40127856456E+02  0.11433740657E+02  0.66983430474E+02  0.78916127928E+02  0.00000000000E+00 0. -1.
         22    1    3    3    0    0  0.10139949730E+03  0.16478585185E+03  0.17472313835E+03  0.26069984675E+03  0.00000000000E+00 0.  1.
         22    1    3    3    0    0  0.16856255168E+02 -0.23574598108E+02  0.30342584033E+02  0.41959116054E+02  0.00000000000E+00 0.  1.
</event>
<event>
 7    1  0.5977291E-006  0.7305980E+02  0.7818608E-02  0.1400380E+00
          2   -1    0    0  502    0  0.00000000000E+00  0.00000000000E+00  0.39244733554E+02  0.39244733554E+02  0.00000000000E+00 0. -1.
          1   -1    0    0  501    0 -0.00000000000E+00 -0.00000000000E+00 -0.13085461195E+04  0.13085461195E+04  0.00000000000E+00 0. -1.
         25    2    1    2    0    0 -0.63443517891E+02 -0.62293756923E+02 -0.57455299492E+03  0.59467759548E+03  0.12499882589E+03 0.  0.
          2    1    1    2  501    0  0.15862784480E+02  0.70535444937E+02 -0.70073467477E+03  0.70445437138E+03  0.00000000000E+00 0. -1.
          1    1    1    2  502    0  0.47580733412E+02 -0.82416880136E+01  0.59862837467E+01  0.48658886202E+02  0.00000000000E+00 0. -1.
         22    1    3    3    0    0  0.18057077873E+02 -0.69230514525E+01 -0.33628547371E+03  0.33684107014E+03  0.00000000000E+00 0. -1.
         22    1    3    3    0    0 -0.81500595764E+02 -0.55370705471E+02 -0.23826752121E+03  0.25783652533E+03  0.00000000000E+00 0. -1.
</event>
<event>
 7    1  0.5977291E-006  0.1702099E+03  0.7818608E-02  0.1233432E+00
          2   -1    0    0  502    0  0.00000000000E+00  0.00000000000E+00  0.37735065328E+03  0.37735065328E+03  0.00000000000E+00 0. -1.
          1   -1    0    0  501    0 -0.00000000000E+00 -0.00000000000E+00 -0.22460324833E+04  0.22460324833E+04  0.00000000000E+00 0. -1.
         25    2    1    2    0    0  0.24357858425E+02 -0.88009788670E+02 -0.19758542934E+03  0.25099571440E+03  0.12497927264E+03 0.  0.
          2    1    1    2  501    0 -0.22850740702E+02 -0.90511932461E+02 -0.19978571633E+04  0.20000369524E+04  0.00000000000E+00 0. -1.
          1    1    1    2  502    0 -0.15071177226E+01  0.17852172113E+03  0.32676076261E+03  0.37235046972E+03  0.00000000000E+00 0. -1.
         22    1    3    3    0    0  0.55716502834E+02 -0.82128797890E+01 -0.13049300758E+03  0.14212742561E+03  0.00000000000E+00 0.  1.
         22    1    3    3    0    0 -0.31358644409E+02 -0.79796908881E+02 -0.67092421754E+02  0.10886828879E+03  0.00000000000E+00 0.  1.
</event>
<event>
 7    1  0.5977291E-006  0.6517096E+02  0.7818608E-02  0.1420950E+00
          2   -1    0    0  502    0  0.00000000000E+00  0.00000000000E+00  0.15348486310E+04  0.15348486310E+04  0.00000000000E+00 0. -1.
          1   -1    0    0  501    0 -0.00000000000E+00 -0.00000000000E+00 -0.37846892273E+02  0.37846892273E+02  0.00000000000E+00 0. -1.
         25    2    1    2    0    0  0.14322529486E+02 -0.62795954641E+02  0.47201485774E+03  0.49251489681E+03  0.12499772349E+03 0.  0.
          2    1    1    2  501    0  0.31591641934E+02  0.58511352494E+02  0.13761379940E+02  0.67904239842E+02  0.00000000000E+00 0. -1.
          1    1    1    2  502    0 -0.45914171420E+02  0.42846021475E+01  0.10112255011E+04  0.10122763867E+04  0.00000000000E+00 0. -1.
         22    1    3    3    0    0 -0.52922823878E+01 -0.79886194780E+02  0.45367363585E+03  0.46068381807E+03  0.00000000000E+00 0.  1.
         22    1    3    3    0    0  0.19614811874E+02  0.17090240139E+02  0.18341221893E+02  0.31831078734E+02  0.00000000000E+00 0.  1.
</event>
<event>
 7    1  0.5977291E-006  0.1672316E+03  0.7818608E-02  0.1271292E+00
          2   -1    0    0  502    0  0.00000000000E+00  0.00000000000E+00  0.24050220691E+04  0.24050220691E+04  0.00000000000E+00 0. -1.
          1   -1    0    0  501    0 -0.00000000000E+00 -0.00000000000E+00 -0.72910397703E+03  0.72910397703E+03  0.00000000000E+00 0. -1.
         25    2    1    2    0    0 -0.12806564145E+03 -0.77002526527E+02  0.66065618536E+02  0.20571805858E+03  0.12500022424E+03 0.  0.
          2    1    1    2  501    0  0.28216421344E+02 -0.58760783585E+02 -0.65452747997E+03  0.65776532149E+03  0.00000000000E+00 0. -1.
          1    1    1    2  502    0  0.99849220104E+02  0.13576331011E+03  0.22643799535E+04  0.22706426661E+04  0.00000000000E+00 0. -1.
         22    1    3    3    0    0 -0.15254656743E+03 -0.62953615122E+02  0.46764345024E+02  0.17152409993E+03  0.00000000000E+00 0.  1.
         22    1    3    3    0    0  0.24480925982E+02 -0.14048911405E+02  0.19301273512E+02  0.34193958644E+02  0.00000000000E+00 0.  1.
</event>
<event>
 7    1  0.5977291E-006  0.4647648E+02  0.7818608E-02  0.1563911E+00
          2   -1    0    0  502    0  0.00000000000E+00  0.00000000000E+00  0.31275500238E+03  0.31275500238E+03  0.00000000000E+00 0. -1.
          1   -1    0    0  501    0 -0.00000000000E+00 -0.00000000000E+00 -0.29656697724E+03  0.29656697724E+03  0.00000000000E+00 0. -1.
         25    2    1    2    0    0 -0.59063577959E+02 -0.25582415538E+02 -0.14003927799E+02  0.14129636240E+03  0.12500234321E+03 0.  0.
          2    1    1    2  501    0  0.45509850499E+02  0.58872906963E+01 -0.21592639684E+03  0.22074876112E+03  0.00000000000E+00 0. -1.
          1    1    1    2  502    0  0.13553727460E+02  0.19695124842E+02  0.24611834977E+03  0.24727685611E+03  0.00000000000E+00 0. -1.
         22    1    3    3    0    0 -0.17665438846E+02 -0.71215638489E+02  0.12129749461E+02  0.74369790352E+02  0.00000000000E+00 0. -1.
         22    1    3    3    0    0 -0.41398139113E+02  0.45633222950E+02 -0.26133677260E+02  0.66926572047E+02  0.00000000000E+00 0. -1.
</event>
<event>
 7    1  0.5977291E-006  0.1495148E+03  0.7818608E-02  0.1294356E+00
          2   -1    0    0  502    0  0.00000000000E+00  0.00000000000E+00  0.20562699022E+04  0.20562699022E+04  0.00000000000E+00 0. -1.
          1   -1    0    0  501    0 -0.00000000000E+00 -0.00000000000E+00 -0.22425636645E+03  0.22425636645E+03  0.00000000000E+00 0. -1.
         25    2    1    2    0    0  0.14674427489E+03  0.13601248893E+03  0.17893736147E+03  0.29610310238E+03  0.12500075419E+03 0.  0.
          2    1    1    2  501    0 -0.54515745283E+02 -0.21490249372E+02 -0.15741632429E+03  0.16796933189E+03  0.00000000000E+00 0. -1.
          1    1    1    2  502    0 -0.92228529611E+02 -0.11452223956E+03  0.18104924985E+04  0.18164538343E+04  0.00000000000E+00 0. -1.
         22    1    3    3    0    0  0.76332664356E+02  0.11868414782E+02  0.11772697199E+03  0.14080900131E+03  0.00000000000E+00 0. -1.
         22    1    3    3    0    0  0.70411610538E+02  0.12414407415E+03  0.61210389478E+02  0.15529410106E+03  0.00000000000E+00 0. -1.
</event>
<event>
 7    1  0.5977291E-006  0.5271887E+02  0.7818608E-02  0.1450681E+00
          2   -1    0    0  502    0  0.00000000000E+00  0.00000000000E+00  0.19993139864E+04  0.19993139864E+04  0.00000000000E+00 0. -1.
          1   -1    0    0  501    0 -0.00000000000E+00 -0.00000000000E+00 -0.31758340364E+02  0.31758340364E+02  0.00000000000E+00 0. -1.
         25    2    1    2    0    0 -0.21884381009E+02  0.32418153798E+01  0.55953601460E+03  0.57375543432E+03  0.12500124511E+03 0.  0.
          2    1    1    2  501    0  0.38346079016E+02  0.39269328247E+02  0.67429889045E+01  0.55298913337E+02  0.00000000000E+00 0. -1.
          1    1    1    2  502    0 -0.16461698006E+02 -0.42511143627E+02  0.14012766425E+04  0.14020179791E+04  0.00000000000E+00 0. -1.
         22    1    3    3    0    0 -0.13593119770E+02 -0.26672217891E+02  0.26994090150E+02  0.40309564812E+02  0.00000000000E+00 0.  1.
         22    1    3    3    0    0 -0.82912612390E+01  0.29914033271E+02  0.53254192445E+03  0.53344586951E+03  0.00000000000E+00 0.  1.
</event>
<event>
 7    1  0.5977291E-006  0.1406397E+03  0.7818608E-02  0.1375394E+00
          2   -1    0    0  502    0  0.00000000000E+00  0.00000000000E+00  0.54573552696E+02  0.54573552696E+02  0.00000000000E+00 0. -1.
          1   -1    0    0  501    0 -0.00000000000E+00 -0.00000000000E+00 -0.24663313463E+04  0.24663313463E+04  0.00000000000E+00 0. -1.
         25    2    1    2    0    0 -0.15923726049E+03 -0.28913502491E+02 -0.38948653337E+03  0.43990512203E+03  0.12499704379E+03 0.  0.
          2    1    1    2  501    0  0.13864480381E+03  0.61674606421E+01 -0.20405639399E+04  0.20452778814E+04  0.00000000000E+00 0. -1.
          1    1    1    2  502    0  0.20592456682E+02  0.22746041849E+02  0.18292679699E+02  0.35721895562E+02  0.00000000000E+00 0. -1.
         22    1    3    3    0    0 -0.17127412483E+03 -0.51331800514E+02 -0.33349078244E+03  0.37839910354E+03  0.00000000000E+00 0. -1.
         22    1    3    3    0    0  0.12036864341E+02  0.22418298023E+02 -0.55995750922E+02  0.61506018492E+02  0.00000000000E+00 0. -1.
</event>
<event>
 7    1  0.5977291E-006  0.6101748E+02  0.7818608E-02  0.1477400E+00
          2   -1    0    0  502    0  0.00000000000E+00  0.00000000000E+00  0.57708119155E+03  0.57708119155E+03  0.00000000000E+00 0. -1.
          1   -1    0    0  501    0 -0.00000000000E+00 -0.00000000000E+00 -0.20705475476E+03  0.20705475476E+03  0.00000000000E+00 0. -1.
         25    2    1    2    0    0  0.69430182709E+02 -0.28130082749E+02  0.14610261278E+03  0.20635780147E+03  0.12500286773E+03 0.  0.
          2    1    1    2  501    0 -0.41403362396E+02  0.44532730062E+02 -0.17101652499E+03  0.18150497041E+03  0.00000000000E+00 0. -1.
          1    1    1    2  502    0 -0.28026820313E+02 -0.16402647313E+02  0.39494034900E+03  0.39627317442E+03  0.00000000000E+00 0. -1.
         22    1    3    3    0    0 -0.35400179772E+01  0.15895238276E+02 -0.16244548806E+02  0.23001645442E+02  0.00000000000E+00 0.  1.
         22    1    3    3    0    0  0.72970200686E+02 -0.44025321025E+02  0.16234716159E+03  0.18335615603E+03  0.00000000000E+00 0.  1.
</event>
<event>
 7    1  0.5977291E-006  0.1771232E+03  0.7818608E-02  0.1250458E+00
          2   -1    0    0  502    0  0.00000000000E+00  0.00000000000E+00  0.16441695715E+04  0.16441695715E+04  0.00000000000E+00 0. -1.
          1   -1    0    0  501    0 -0.00000000000E+00 -0.00000000000E+00 -0.18217331784E+03  0.18217331784E+03  0.00000000000E+00 0. -1.
         25    2    1    2    0    0  0.15142345515E+03  0.16173219569E+03  0.48245383584E+03  0.54540624264E+03  0.12497959797E+03 0.  0.
          2    1    1    2  501    0 -0.74764226316E+02 -0.10560388421E+02 -0.13440804161E+03  0.15416462950E+03  0.00000000000E+00 0. -1.
          1    1    1    2  502    0 -0.76659228835E+02 -0.15117180727E+03  0.11139504594E+04  0.11267720172E+04  0.00000000000E+00 0. -1.
         22    1    3    3    0    0  0.15663426795E+03  0.17808138100E+03  0.45252627125E+03  0.51090830716E+03  0.00000000000E+00 0.  1.
         22    1    3    3    0    0 -0.52108128029E+01 -0.16349185310E+02  0.29927564592E+02  0.34497935486E+02  0.00000000000E+00 0.  1.
</event>
<event>
 7    1  0.5977291E-006  0.1459654E+03  0.7818608E-02  0.1312349E+00
          2   -1    0    0  502    0  0.00000000000E+00  0.00000000000E+00  0.67721756276E+03  0.67721756276E+03  0.00000000000E+00 0. -1.
          1   -1    0    0  501    0 -0.00000000000E+00 -0.00000000000E+00 -0.26294302271E+03  0.26294302271E+03  0.00000000000E+00 0. -1.
         25    2    1    2    0    0  0.12280942545E+03  0.93926822764E+02  0.10286575512E+03  0.22385422408E+03  0.12499978820E+03 0.  0.
          2    1    1    2  501    0 -0.80179362573E+02 -0.12172729264E+03 -0.17471045478E+03  0.22753023308E+03  0.00000000000E+00 0. -1.
          1    1    1    2  502    0 -0.42630062874E+02  0.27800469878E+02  0.48611923971E+03  0.48877612830E+03  0.00000000000E+00 0. -1.
         22    1    3    3    0    0  0.82629583265E+02  0.71909215870E+02 -0.18501563484E+01  0.10955366920E+03  0.00000000000E+00 0. -1.
         22    1    3    3    0    0  0.40179842182E+02  0.22017606894E+02  0.10471591147E+03  0.11430055488E+03  0.00000000000E+00 0. -1.
</event>
<event>
 7    1  0.5977291E-006  0.8696013E+02  0.7818608E-02  0.1358027E+00
          2   -1    0    0  502    0  0.00000000000E+00  0.00000000000E+00  0.16867704304E+03  0.16867704304E+03  0.00000000000E+00 0. -1.
          1   -1    0    0  501    0 -0.00000000000E+00 -0.00000000000E+00 -0.46707296513E+03  0.46707296513E+03  0.00000000000E+00 0. -1.
         25    2    1    2    0    0  0.19827294684E+02 -0.30380618905E+02 -0.95758241525E+02  0.16158635333E+03  0.12499762055E+03 0.  0.
          2    1    1    2  501    0  0.24848922875E+02 -0.51671209565E+02 -0.31946758205E+03  0.32457190089E+03  0.00000000000E+00 0. -1.
          1    1    1    2  502    0 -0.44676217559E+02  0.82051828471E+02  0.11682990148E+03  0.14959175395E+03  0.00000000000E+00 0. -1.
         22    1    3    3    0    0  0.20789308839E+02 -0.72362640344E+02 -0.92783951291E+02  0.11948811111E+03  0.00000000000E+00 0.  1.
         22    1    3    3    0    0 -0.96201415474E+00  0.41982021439E+02 -0.29742902338E+01  0.42098242217E+02  0.00000000000E+00 0.  1.
</event>
<event>
 7    1  0.5977291E-006  0.1119296E+03  0.7818608E-02  0.1260493E+00
          2   -1    0    0  502    0  0.00000000000E+00  0.00000000000E+00  0.32333955541E+03  0.32333955541E+03  0.00000000000E+00 0. -1.
          1   -1    0    0  501    0 -0.00000000000E+00 -0.00000000000E+00 -0.33560707791E+04  0.33560707791E+04  0.00000000000E+00 0. -1.
         25    2    1    2    0    0  0.27980319552E+01 -0.59471745048E+01 -0.19651601855E+03  0.23298871487E+03  0.12498799079E+03 0.  0.
          2    1    1    2  501    0  0.77632768547E+02  0.83787591564E+02 -0.31299758912E+04  0.31320594322E+04  0.00000000000E+00 0. -1.
          1    1    1    2  502    0 -0.80430800503E+02 -0.77840417060E+02  0.29376068608E+03  0.31436218743E+03  0.00000000000E+00 0. -1.
         22    1    3    3    0    0  0.60942221078E+02  0.81855730391E+01 -0.70904939215E+02  0.93853440645E+02  0.00000000000E+00 0.  1.
         22    1    3    3    0    0 -0.58144189123E+02 -0.14132747544E+02 -0.12561107934E+03  0.13913527423E+03  0.00000000000E+00 0.  1.
</event>
<event>
 7    1  0.5977291E-006  0.7792025E+02  0.7818608E-02  0.1464044E+00
          2   -1    0    0  502    0  0.00000000000E+00  0.00000000000E+00  0.36041559926E+03  0.36041559926E+03  0.00000000000E+00 0. -1.
          1   -1    0    0  501    0 -0.00000000000E+00 -0.00000000000E+00 -0.56962878096E+03  0.56962878096E+03  0.00000000000E+00 0. -1.
         25    2    1    2    0    0 -0.11253578559E+02  0.83272388850E+02 -0.39097754481E+02  0.15560664324E+03  0.12499543688E+03 0.  0.
          2    1    1    2  501    0 -0.24230221396E+02 -0.13991533132E+02 -0.46683775871E+03  0.46767548534E+03  0.00000000000E+00 0. -1.
          1    1    1    2  502    0  0.35483799955E+02 -0.69280855719E+02  0.29672233149E+03  0.30676225164E+03  0.00000000000E+00 0. -1.
         22    1    3    3    0    0 -0.50253078319E+02  0.39237299575E+01 -0.44206189506E+02  0.67044423541E+02  0.00000000000E+00 0.  1.
         22    1    3    3    0    0  0.38999499760E+02  0.79348658893E+02  0.51084350243E+01  0.88562219699E+02  0.00000000000E+00 0.  1.
</event>
<event>
 7    1  0.5977291E-006  0.4268881E+02  0.7818608E-02  0.1489348E+00
          2   -1    0    0  502    0  0.00000000000E+00  0.00000000000E+00  0.84385768213E+02  0.84385768213E+02  0.00000000000E+00 0. -1.
          1   -1    0    0  501    0 -0.00000000000E+00 -0.00000000000E+00 -0.13238917082E+04  0.13238917082E+04  0.00000000000E+00 0. -1.
         25    2    1    2    0    0  0.45000800573E+02  0.12086019219E+02 -0.44416327706E+03  0.46376522939E+03  0.12500410947E+03 0.  0.
          2    1    1    2  501    0 -0.13897746797E+02 -0.41308101889E+02 -0.86322745630E+03  0.86432699134E+03  0.00000000000E+00 0. -1.
          1    1    1    2  502    0 -0.31103053776E+02  0.29222082669E+02  0.67884793335E+02  0.80185255727E+02  0.00000000000E+00 0. -1.
         22    1    3    3    0    0 -0.36419868455E+02  0.23522983391E+02 -0.86304029791E+02  0.96582209148E+02  0.00000000000E+00 0. -1.
         22    1    3    3    0    0  0.81420669028E+02 -0.11436964171E+02 -0.35785924727E+03  0.36718302024E+03  0.00000000000E+00 0. -1.
</event>
<event>
 7    1  0.5977291E-006  0.7838583E+02  0.7818608E-02  0.1383723E+00
          2   -1    0    0  502    0  0.00000000000E+00  0.00000000000E+00  0.10653386204E+03  0.10653386204E+03  0.00000000000E+00 0. -1.
          1   -1    0    0  501    0 -0.00000000000E+00 -0.00000000000E+00 -0.88337142730E+03  0.88337142730E+03  0.00000000000E+00 0. -1.
         25    2    1    2    0    0  0.60628119364E+02 -0.51481849084E+02 -0.84289338028E+02  0.17045539774E+03  0.12499680184E+03 0.  0.
          2    1    1    2  501    0 -0.79034585412E+02  0.34549815982E+01 -0.74311991242E+03  0.74731894584E+03  0.00000000000E+00 0. -1.
          1    1    1    2  502    0  0.18406466048E+02  0.48026867485E+02  0.50571685183E+02  0.72130945752E+02  0.00000000000E+00 0. -1.
         22    1    3    3    0    0  0.70232707813E+01  0.35573116946E+02  0.25048252544E+01  0.36346212063E+02  0.00000000000E+00 0. -1.
         22    1    3    3    0    0  0.53604848582E+02 -0.87054966030E+02 -0.86794163283E+02  0.13410918567E+03  0.00000000000E+00 0. -1.
</event>
<event>
 7    1  0.5977291E-006  0.5082342E+02  0.7818608E-02  0.1520270E+00
          2   -1    0    0  502    0  0.00000000000E+00  0.00000000000E+00  0.37974575594E+04  0.37974575594E+04  0.00000000000E+00 0. -1.
          1   -1    0    0  501    0 -0.00000000000E+00 -0.00000000000E+00 -0.14250148220E+04  0.14250148220E+04  0.00000000000E+00 0. -1.
         25    2    1    2    0    0 -0.20920318746E+01  0.72690556495E+02  0.12307985657E+03  0.18990079953E+03  0.12500147587E+03 0.  0.
          2    1    1    2  501    0  0.16320892601E+02 -0.24000884009E+02 -0.13912763053E+04  0.13915790210E+04  0.00000000000E+00 0. -1.
          1    1    1    2  502    0 -0.14228860727E+02 -0.48689672486E+02  0.36406391861E+04  0.36409925609E+04  0.00000000000E+00 0. -1.
         22    1    3    3    0    0  0.16736208947E+02  0.37442632760E+02 -0.16877817150E+02  0.44349883311E+02  0.00000000000E+00 0.  1.
         22    1    3    3    0    0 -0.18828240822E+02  0.35247923735E+02  0.13995767372E+03  0.14555091622E+03  0.00000000000E+00 0.  1.
</event>
<event>
 7    1  0.5977291E-006  0.8123894E+02  0.7818608E-02  0.1360368E+00
          2   -1    0    0  502    0  0.00000000000E+00  0.00000000000E+00  0.16703610195E+03  0.16703610195E+03  0.00000000000E+00 0. -1.
          1   -1    0    0  501    0 -0.00000000000E+00 -0.00000000000E+00 -0.14137724363E+04  0.14137724363E+04  0.00000000000E+00 0. -1.
         25    2    1    2    0    0  0.41673619196E+01 -0.28163146997E+02 -0.25415625471E+03  0.28466015063E+03  0.12500187915E+03 0.  0.
          2    1    1    2  501    0  0.10839374425E+02  0.86438774569E+02 -0.11366668122E+04  0.11400002612E+04  0.00000000000E+00 0. -1.
          1    1    1    2  502    0 -0.15006736345E+02 -0.58275627572E+02  0.14408673248E+03  0.15614812641E+03  0.00000000000E+00 0. -1.
         22    1    3    3    0    0  0.12916087954E+02 -0.62906216660E+02 -0.23583039019E+03  0.24441765558E+03  0.00000000000E+00 0.  1.
         22    1    3    3    0    0 -0.87487260341E+01  0.34743069663E+02 -0.18325864521E+02  0.40242495043E+02  0.00000000000E+00 0.  1.
</event>
<event>
 7    1  0.5977291E-006  0.1292468E+03  0.7818608E-02  0.1256723E+00
          2   -1    0    0  502    0  0.00000000000E+00  0.00000000000E+00  0.24419602579E+04  0.24419602579E+04  0.00000000000E+00 0. -1.
          1   -1    0    0  501    0 -0.00000000000E+00 -0.00000000000E+00 -0.22869620379E+02  0.22869620379E+02  0.00000000000E+00 0. -1.
         25    2    1    2    0    0  0.75486177733E+01  0.17107530404E+03  0.82586508484E+03  0.85264430293E+03  0.12500171071E+03 0.  0.
          2    1    1    2  501    0 -0.66734434560E+02 -0.93928414450E+02  0.43890914083E+03  0.45378107684E+03  0.00000000000E+00 0. -1.
          1    1    1    2  502    0  0.59185816786E+02 -0.77146889594E+02  0.11543164118E+04  0.11584044985E+04  0.00000000000E+00 0. -1.
         22    1    3    3    0    0  0.31700387401E+02  0.18247600250E+03  0.71299671810E+03  0.73665916547E+03  0.00000000000E+00 0.  1.
         22    1    3    3    0    0 -0.24151769628E+02 -0.11400698458E+02  0.11286836674E+03  0.11598513747E+03  0.00000000000E+00 0.  1.
</event>
<event>
 7    1  0.5977291E-006  0.9760990E+02  0.7818608E-02  0.1461972E+00
          2   -1    0    0  502    0  0.00000000000E+00  0.00000000000E+00  0.72817031282E+03  0.72817031282E+03  0.00000000000E+00 0. -1.
          1   -1    0    0  501    0 -0.00000000000E+00 -0.00000000000E+00 -0.10824071943E+03  0.10824071943E+03  0.00000000000E+00 0. -1.
         25    2    1    2    0    0  0.84058996853E+02  0.69756882786E+02  0.36466763196E+03  0.40067384330E+03  0.12500043704E+03 0.  0.
          2    1    1    2  501    0 -0.22641097396E+02  0.12042265828E+01 -0.82303133385E+02  0.85369053046E+02  0.00000000000E+00 0. -1.
          1    1    1    2  502    0 -0.61417899456E+02 -0.70961109368E+02  0.33756509482E+03  0.35036813590E+03  0.00000000000E+00 0. -1.
         22    1    3    3    0    0  0.73346996047E+02  0.46681166609E+02  0.36501928736E+03  0.37523058683E+03  0.00000000000E+00 0. -1.
         22    1    3    3    0    0  0.10712000806E+02  0.23075716176E+02 -0.35165540520E+00  0.25443256471E+02  0.00000000000E+00 0. -1.
</event>
<event>
 7    1  0.5977291E-006  0.1035373E+03  0.7818608E-02  0.1389017E+00
          2   -1    0    0  502    0  0.00000000000E+00  0.00000000000E+00  0.14637921112E+03  0.14637921112E+03  0.00000000000E+00 0. -1.
          1   -1    0    0  501    0 -0.00000000000E+00 -0.00000000000E+00 -0.27358861246E+04  0.27358861246E+04  0.00000000000E+00 0. -1.
         25    2    1    2    0    0  0.49054921161E+02 -0.10535151515E+03 -0.45425187812E+03  0.48525708669E+03  0.12499737745E+03 0.  0.
          2    1    1    2  501    0 -0.37203458339E+02  0.28012724085E+01 -0.22455955794E+04  0.22459054857E+04  0.00000000000E+00 0. -1.
          1    1    1    2  502    0 -0.11851462822E+02  0.10255024274E+03  0.11034054399E+03  0.15110276340E+03  0.00000000000E+00 0. -1.
         22    1    3    3    0    0 -0.28980874621E+02 -0.21746814332E+02 -0.33876842881E+02  0.49602978852E+02  0.00000000000E+00 0. -1.
         22    1    3    3    0    0  0.78035795782E+02 -0.83604700815E+02 -0.42037503524E+03  0.43565410784E+03  0.00000000000E+00 0. -1.
</event>
<event>
 7    1  0.5977291E-006  0.1725193E+03  0.7818608E-02  0.1273407E+00
          2   -1    0    0  502    0  0.00000000000E+00  0.00000000000E+00  0.11089032106E+04  0.11089032106E+04  0.00000000000E+00 0. -1.
          1   -1    0    0  501    0 -0.00000000000E+00 -0.00000000000E+00 -0.11464121917E+04  0.11464121917E+04  0.00000000000E+00 0. -1.
         25    2    1    2    0    0 -0.22507986770E+03  0.20857617290E+02  0.15688258747E+02  0.25877641609E+03  0.12499249985E+03 0.  0.
          2    1    1    2  501    0  0.55814766894E+02 -0.26791809028E+02 -0.10165385863E+04  0.10184222045E+04  0.00000000000E+00 0. -1.
          1    1    1    2  502    0  0.16926510080E+03  0.59341917378E+01  0.96334134640E+03  0.97811678171E+03  0.00000000000E+00 0. -1.
         22    1    3    3    0    0 -0.16357253604E+03  0.69318494855E+02 -0.52116274398E+01  0.17773066515E+03  0.00000000000E+00 0.  1.
         22    1    3    3    0    0 -0.61507331659E+02 -0.48460877566E+02  0.20899886187E+02  0.81045750937E+02  0.00000000000E+00 0.  1.
</event>
<event>
 7    1  0.5977291E-006  0.1103308E+03  0.7818608E-02  0.1281808E+00
          2   -1    0    0  502    0  0.00000000000E+00  0.00000000000E+00  0.39893506434E+03  0.39893506434E+03  0.00000000000E+00 0. -1.
          1   -1    0    0  501    0 -0.00000000000E+00 -0.00000000000E+00 -0.29157001019E+03  0.29157001019E+03  0.00000000000E+00 0. -1.
         25    2    1    2    0    0 -0.55244858401E+02 -0.41898411539E+02 -0.35766311659E+02  0.14734892179E+03  0.12500001773E+03 0.  0.
          2    1    1    2  501    0  0.31891739134E+02  0.12813619281E+03 -0.17129533840E+03  0.21628236148E+03  0.00000000000E+00 0. -1.
          1    1    1    2  502    0  0.23353119267E+02 -0.86237781270E+02  0.31442670420E+03  0.32687379126E+03  0.00000000000E+00 0. -1.
         22    1    3    3    0    0  0.32188768674E+02  0.17889684114E+02 -0.12619897575E+02  0.38928388630E+02  0.00000000000E+00 0.  1.
         22    1    3    3    0    0 -0.87433627076E+02 -0.59788095653E+02 -0.23146414084E+02  0.10842053316E+03  0.00000000000E+00 0.  1.
</event>
<event>
 7    1  0.5977291E-006  0.6902897E+02  0.7818608E-02  0.1422947E+00
          2   -1    0    0  502    0  0.00000000000E+00  0.00000000000E+00  0.10482514898E+04  0.10482514898E+04  0.00000000000E+00 0. -1.
          1   -1    0    0  501    0 -0.00000000000E+00 -0.00000000000E+00 -0.67375970196E+02  0.67375970196E+02  0.00000000000E+00 0. -1.
         25    2    1    2    0    0 -0.11130932355E+02  0.87508284517E+02  0.42693055445E+03  0.45351490083E+03  0.12499787770E+03 0.  0.
          2    1    1    2  501    0  0.39927644551E+02 -0.55743705526E+02 -0.31246912992E+02  0.75352153762E+02  0.00000000000E+00 0. -1.
          1    1    1    2  502    0 -0.28796712196E+02 -0.31764578991E+02  0.58519187814E+03  0.58676040541E+03  0.00000000000E+00 0. -1.
         22    1    3    3    0    0  0.67098608953E+01 -0.29281507214E+02  0.48298726518E+02  0.56878782346E+02  0.00000000000E+00 0.  1.
         22    1    3    3    0    0 -0.17840793250E+02  0.11678979173E+03  0.37863182794E+03  0.39663611848E+03  0.00000000000E+00 0.  1.
</event>
<event>
 7    1  0.5977291E-006  0.1243065E+03  0.7818608E-02  0.1239280E+00
          2   -1    0    0  502    0  0.00000000000E+00  0.00000000000E+00  0.66015149366E+03  0.66015149366E+03  0.00000000000E+00 0. -1.
          1   -1    0    0  501    0 -0.00000000000E+00 -0.00000000000E+00 -0.13148693315E+04  0.13148693315E+04  0.00000000000E+00 0. -1.
         25    2    1    2    0    0 -0.92525010736E+02 -0.15261380905E+02 -0.62713409827E+02  0.16838131340E+03  0.12500203027E+03 0.  0.
          2    1    1    2  501    0  0.16129547386E+02  0.11932682053E+03 -0.11893871903E+04  0.11954668297E+04  0.00000000000E+00 0. -1.
          1    1    1    2  502    0  0.76395463351E+02 -0.10406543962E+03  0.59738276233E+03  0.61117268204E+03  0.00000000000E+00 0. -1.
         22    1    3    3    0    0 -0.64551602237E+02 -0.35545493121E+01 -0.10076712890E+03  0.11972284009E+03  0.00000000000E+00 0. -1.
         22    1    3    3    0    0 -0.27973408499E+02 -0.11706831593E+02  0.38053719076E+02  0.48658473306E+02  0.00000000000E+00 0. -1.
</event>
<event>
 7    1  0.6238255E-006  0.1160147E+03  0.7818608E-02  0.1332995E+00
          2   -1    0    0  502    0  0.00000000000E+00  0.00000000000E+00  0.11104647002E+04  0.11104647002E+04  0.00000000000E+00 0. -1.
          1   -1    0    0  501    0 -0.00000000000E+00 -0.00000000000E+00 -0.99495003461E+03  0.99495003461E+03  0.00000000000E+00 0. -1.
         25    2    1    2    0    0 -0.12059102042E+03  0.27823703851E+02 -0.31826925729E+03  0.36364394041E+03  0.12500097022E+03 0.  0.
          2    1    1    2  501    0  0.72563831553E+01 -0.52790955443E+02 -0.64980437378E+03  0.65198563194E+03  0.00000000000E+00 0. -1.
          1    1    1    2  502    0  0.11333463726E+03  0.24967251592E+02  0.10835882967E+04  0.10897851625E+04  0.00000000000E+00 0. -1.
         22    1    3    3    0    0 -0.53103189002E+02  0.19859424094E+02 -0.27994038683E+03  0.28562381831E+03  0.00000000000E+00 0.  1.
         22    1    3    3    0    0 -0.67487831417E+02  0.79642797565E+01 -0.38328870463E+02  0.78020122099E+02  0.00000000000E+00 0.  1.
</event>
<event>
 7    1  0.5977291E-006  0.3873241E+02  0.7818608E-02  0.1553128E+00
          2   -1    0    0  502    0  0.00000000000E+00  0.00000000000E+00  0.22517223128E+04  0.22517223128E+04  0.00000000000E+00 0. -1.
          1   -1    0    0  501    0 -0.00000000000E+00 -0.00000000000E+00 -0.24823753294E+03  0.24823753294E+03  0.00000000000E+00 0. -1.
         25    2    1    2    0    0  0.10093922861E+02 -0.54167183479E+02  0.39745436919E+03  0.42027561605E+03  0.12500258722E+03 0.  0.
          2    1    1    2  501    0  0.14573211373E+02  0.35854101456E+02 -0.23511669067E+03  0.23828082867E+03  0.00000000000E+00 0. -1.
          1    1    1    2  502    0 -0.24667134234E+02  0.18313082023E+02  0.18411471014E+04  0.18414034011E+04  0.00000000000E+00 0. -1.
         22    1    3    3    0    0  0.25387476176E+02 -0.53188604575E+01  0.75350967020E+01  0.27010958988E+02  0.00000000000E+00 0. -1.
         22    1    3    3    0    0 -0.15293553315E+02 -0.48848323021E+02  0.38991927249E+03  0.39326465706E+03  0.00000000000E+00 0. -1.
</event>
<event>
 7    1  0.5977291E-006  0.1638566E+03  0.7818608E-02  0.1294679E+00
          2   -1    0    0  502    0  0.00000000000E+00  0.00000000000E+00  0.13066576810E+04  0.13066576810E+04  0.00000000000E+00 0. -1.
          1   -1    0    0  501    0 -0.00000000000E+00 -0.00000000000E+00 -0.10324033592E+04  0.10324033592E+04  0.00000000000E+00 0. -1.
         25    2    1    2    0    0 -0.15918312603E+02 -0.11005272131E+03 -0.43039346350E+03  0.46176708077E+03  0.12500123725E+03 0.  0.
          2    1    1    2  501    0 -0.98251412109E+01 -0.52395830339E+02 -0.57985671529E+03  0.58230204078E+03  0.00000000000E+00 0. -1.
          1    1    1    2  502    0  0.25743453814E+02  0.16244855165E+03  0.12845045006E+04  0.12949919186E+04  0.00000000000E+00 0. -1.
         22    1    3    3    0    0  0.14685457227E+02 -0.12867382081E+03 -0.30501194611E+03  0.33136822733E+03  0.00000000000E+00 0. -1.
         22    1    3    3    0    0 -0.30603769830E+02  0.18621099500E+02 -0.12538151739E+03  0.13039885344E+03  0.00000000000E+00 0. -1.
</event>
<event>
 7    1  0.5977291E-006  0.9519810E+02  0.7818608E-02  0.1382134E+00
          2   -1    0    0  502    0  0.00000000000E+00  0.00000000000E+00  0.21795915442E+03  0.21795915442E+03  0.00000000000E+00 0. -1.
          1   -1    0    0  501    0 -0.00000000000E+00 -0.00000000000E+00 -0.41982901872E+03  0.41982901872E+03  0.00000000000E+00 0. -1.
         25    2    1    2    0    0 -0.29757952844E+02  0.77555517838E+02 -0.35934930259E+02  0.15432603857E+03  0.12499925145E+03 0.  0.
          2    1    1    2  501    0  0.37713485462E+02  0.20447811674E+02 -0.30784333320E+03  0.31081817480E+03  0.00000000000E+00 0. -1.
          1    1    1    2  502    0 -0.79555326180E+01 -0.98003329512E+02  0.14190839916E+03  0.17264395978E+03  0.00000000000E+00 0. -1.
         22    1    3    3    0    0 -0.71725598136E+02  0.59171195886E+02 -0.51055685660E+02  0.10607768327E+03  0.00000000000E+00 0.  1.
         22    1    3    3    0    0  0.41967645292E+02  0.18384321952E+02  0.15120755401E+02  0.48248355297E+02  0.00000000000E+00 0.  1.
</event>
<event>
 7    1  0.5977291E-006  0.1395408E+03  0.7818608E-02  0.1276573E+00
          2   -1    0    0  502    0  0.00000000000E+00  0.00000000000E+00  0.14908628114E+04  0.14908628114E+04  0.00000000000E+00 0. -1.
          1   -1    0    0  501    0 -0.00000000000E+00 -0.00000000000E+00 -0.10833628668E+03  0.10833628668E+03  0.00000000000E+00 0. -1.
         25    2    1    2    0    0 -0.54645641356E+02 -0.89646611777E+02  0.24327440699E+03  0.29296752036E+03  0.12499947907E+03 0.  0.
          2    1    1    2  501    0  0.12041394857E+02  0.15046271315E+03 -0.13080076545E+02  0.15150944406E+03  0.00000000000E+00 0. -1.
          1    1    1    2  502    0  0.42604246499E+02 -0.60816101373E+02  0.11523321943E+04  0.11547221337E+04  0.00000000000E+00 0. -1.
         22    1    3    3    0    0 -0.43750985668E+02 -0.77678918418E+02  0.25682555918E+03  0.27185939557E+03  0.00000000000E+00 0.  1.
         22    1    3    3    0    0 -0.10894655688E+02 -0.11967693359E+02 -0.13551152181E+02  0.21108124794E+02  0.00000000000E+00 0.  1.
</event>
<event>
 7    1  0.5977291E-006  0.5258473E+02  0.7818608E-02  0.1462527E+00
          2   -1    0    0  502    0  0.00000000000E+00  0.00000000000E+00  0.62203525641E+03  0.62203525641E+03  0.00000000000E+00 0. -1.
          1   -1    0    0  501    0 -0.00000000000E+00 -0.00000000000E+00 -0.67963108779E+03  0.67963108779E+03  0.00000000000E+00 0. -1.
         25    2    1    2    0    0  0.43880115586E+02 -0.17115897143E+02 -0.50467413897E+03  0.52205352645E+03  0.12500191780E+03 0.  0.
          2    1    1    2  501    0 -0.57678907797E+02 -0.22465479546E+02 -0.15975794311E+03  0.17133054183E+03  0.00000000000E+00 0. -1.
          1    1    1    2  502    0  0.13798792211E+02  0.39581376689E+02  0.60683625070E+03  0.60828227593E+03  0.00000000000E+00 0. -1.
         22    1    3    3    0    0 -0.15436100425E+01 -0.19445176713E+02 -0.47654959854E+01  0.20080029416E+02  0.00000000000E+00 0. -1.
         22    1    3    3    0    0  0.45423725628E+02  0.23292795695E+01 -0.49990864299E+03  0.50197349703E+03  0.00000000000E+00 0. -1.
</event>
<event>
 7    1  0.5977291E-006  0.6009699E+02  0.7818608E-02  0.1459872E+00
          2   -1    0    0  502    0  0.00000000000E+00  0.00000000000E+00  0.12678896842E+04  0.12678896842E+04  0.00000000000E+00 0. -1.
          1   -1    0    0  501    0 -0.00000000000E+00 -0.00000000000E+00 -0.61222676612E+02  0.61222676612E+02  0.00000000000E+00 0. -1.
         25    2    1    2    0    0 -0.20767677774E+02  0.38366908818E+02  0.73190851346E+03  0.74378627872E+03  0.12499856078E+03 0.  0.
          2    1    1    2  501    0  0.22821032712E+02  0.29619161222E+02 -0.46488735159E+02  0.59659841955E+02  0.00000000000E+00 0. -1.
          1    1    1    2  502    0 -0.20533549372E+01 -0.67986070040E+02  0.52124722925E+03  0.52566624010E+03  0.00000000000E+00 0. -1.
         22    1    3    3    0    0  0.18684955573E+02  0.29339850542E+02  0.51332300495E+02  0.62007737168E+02  0.00000000000E+00 0.  1.
         22    1    3    3    0    0 -0.39452633348E+02  0.90270582758E+01  0.68057621297E+03  0.68177854155E+03  0.00000000000E+00 0.  1.
</event>
<event>
 7    1  0.5977291E-006  0.9959967E+02  0.7818608E-02  0.1328000E+00
          2   -1    0    0  502    0  0.00000000000E+00  0.00000000000E+00  0.14688237344E+04  0.14688237344E+04  0.00000000000E+00 0. -1.
          1   -1    0    0  501    0 -0.00000000000E+00 -0.00000000000E+00 -0.10308502957E+04  0.10308502957E+04  0.00000000000E+00 0. -1.
         25    2    1    2    0    0  0.46721830876E+02  0.15491708997E+03 -0.89183356223E+02  0.22307154091E+03  0.12500002836E+03 0.  0.
          2    1    1    2  501    0 -0.30218109597E+02 -0.57385843231E+02 -0.87177184136E+03  0.87418099530E+03  0.00000000000E+00 0. -1.
          1    1    1    2  502    0 -0.16503721279E+02 -0.97531246736E+02  0.13989286364E+04  0.14024214939E+04  0.00000000000E+00 0. -1.
         22    1    3    3    0    0 -0.26609697124E+02  0.10175624841E+03 -0.79777441156E+02  0.13201079573E+03  0.00000000000E+00 0.  1.
         22    1    3    3    0    0  0.73331528000E+02  0.53160841561E+02 -0.94059150667E+01  0.91060745179E+02  0.00000000000E+00 0.  1.
</event>
<event>
 7    1  0.5977291E-006  0.1156385E+03  0.7818608E-02  0.1324538E+00
          2   -1    0    0  502    0  0.00000000000E+00  0.00000000000E+00  0.11972388132E+04  0.11972388132E+04  0.00000000000E+00 0. -1.
          1   -1    0    0  501    0 -0.00000000000E+00 -0.00000000000E+00 -0.34603510954E+03  0.34603510954E+03  0.00000000000E+00 0. -1.
         25    2    1    2    0    0 -0.84529184206E+02  0.29999411604E+02 -0.11609115368E+03  0.19273520421E+03  0.12499822119E+03 0.  0.
          2    1    1    2  501    0  0.13374339643E+03 -0.75266453437E-01 -0.16746551757E+03  0.21431752455E+03  0.00000000000E+00 0. -1.
          1    1    1    2  502    0 -0.49214212225E+02 -0.29924145151E+02  0.11347603749E+04  0.11362211939E+04  0.00000000000E+00 0. -1.
         22    1    3    3    0    0  0.10533155153E+02  0.54603105094E+02 -0.39739299327E+02  0.68349530755E+02  0.00000000000E+00 0.  1.
         22    1    3    3    0    0 -0.95062339359E+02 -0.24603693490E+02 -0.76351854356E+02  0.12438567346E+03  0.00000000000E+00 0.  1.
</event>
<event>
 7    1  0.5977291E-006  0.1371185E+03  0.7818608E-02  0.1257535E+00
          2   -1    0    0  502    0  0.00000000000E+00  0.00000000000E+00  0.24738217564E+04  0.24738217564E+04  0.00000000000E+00 0. -1.
          1   -1    0    0  501    0 -0.00000000000E+00 -0.00000000000E+00 -0.49632837919E+03  0.49632837919E+03  0.00000000000E+00 0. -1.
         25    2    1    2    0    0 -0.46410175184E+02 -0.21226176725E+03  0.17336605196E+03  0.30477801350E+03  0.12499954938E+03 0.  0.
          2    1    1    2  501    0  0.47586983997E+02  0.77473059160E+02 -0.42376338259E+03  0.43340742999E+03  0.00000000000E+00 0. -1.
          1    1    1    2  502    0 -0.11768088130E+01  0.13478870809E+03  0.22278907078E+04  0.22319646921E+04  0.00000000000E+00 0. -1.
         22    1    3    3    0    0 -0.54001651951E+02 -0.19745664140E+02  0.48157868509E+02  0.75001666416E+02  0.00000000000E+00 0. -1.
         22    1    3    3    0    0  0.75914767674E+01 -0.19251610311E+03  0.12520818346E+03  0.22977634709E+03  0.00000000000E+00 0. -1.
</event>
<event>
 7    1  0.8930243E-006  0.6783060E+02  0.7818608E-02  0.1428715E+00
          2   -1    0    0  502    0  0.00000000000E+00  0.00000000000E+00  0.21980685120E+04  0.21980685120E+04  0.00000000000E+00 0. -1.
          1   -1    0    0  501    0 -0.00000000000E+00 -0.00000000000E+00 -0.67677383081E+03  0.67677383081E+03  0.00000000000E+00 0. -1.
         25    2    1    2    0    0 -0.50201343168E+02  0.21966239751E+01 -0.27679309784E+03  0.30783894323E+03  0.12500158377E+03 0.  0.
          2    1    1    2  501    0 -0.51934966225E+01 -0.41430485924E+02 -0.38279445355E+03  0.38506499612E+03  0.00000000000E+00 0. -1.
          1    1    1    2  502    0  0.55394839791E+02  0.39233861949E+02  0.21808822326E+04  0.21819384035E+04  0.00000000000E+00 0. -1.
         22    1    3    3    0    0  0.37202668125E+02 -0.38295771655E+01 -0.14378253562E+03  0.14856689310E+03  0.00000000000E+00 0. -1.
         22    1    3    3    0    0 -0.87404011293E+02  0.60262011406E+01 -0.13301056222E+03  0.15927205013E+03  0.00000000000E+00 0. -1.
</event>
<event>
 7    1  0.5977291E-006  0.3157067E+02  0.7818608E-02  0.1596031E+00
          2   -1    0    0  502    0  0.00000000000E+00  0.00000000000E+00  0.17370321134E+04  0.17370321134E+04  0.00000000000E+00 0. -1.
          1   -1    0    0  501    0 -0.00000000000E+00 -0.00000000000E+00 -0.45275111958E+03  0.45275111958E+03  0.00000000000E+00 0. -1.
         25    2    1    2    0    0  0.27272954354E+01 -0.71904566363E+01  0.90006070735E+03  0.90873200707E+03  0.12500177178E+03 0.  0.
          2    1    1    2  501    0 -0.17267890574E+02 -0.23128897656E+02 -0.44761095285E+03  0.44854062365E+03  0.00000000000E+00 0. -1.
          1    1    1    2  502    0  0.14540595139E+02  0.30319354293E+02  0.83183123930E+03  0.83251060224E+03  0.00000000000E+00 0. -1.
         22    1    3    3    0    0 -0.13410278658E+02 -0.24534878056E+02  0.42675424447E+02  0.51019483206E+02  0.00000000000E+00 0.  1.
         22    1    3    3    0    0  0.16137574093E+02  0.17344421420E+02  0.85738528290E+03  0.85771252386E+03  0.00000000000E+00 0.  1.
</event>
<event>
 7    1  0.5977291E-006  0.4227568E+02  0.7818608E-02  0.1581804E+00
          2   -1    0    0  502    0  0.00000000000E+00  0.00000000000E+00  0.13230802002E+04  0.13230802002E+04  0.00000000000E+00 0. -1.
          1   -1    0    0  501    0 -0.00000000000E+00 -0.00000000000E+00 -0.33433367381E+03  0.33433367381E+03  0.00000000000E+00 0. -1.
         25    2    1    2    0    0 -0.54457442125E+01  0.22818880359E+02  0.97387245851E+03  0.98214182485E+03  0.12499856502E+03 0.  0.
          2    1    1    2  501    0  0.26740614136E+02 -0.32781922759E+02 -0.32844028384E+03  0.33115364251E+03  0.00000000000E+00 0. -1.
          1    1    1    2  502    0 -0.21294869923E+02  0.99630424000E+01  0.34331435167E+03  0.34411840661E+03  0.00000000000E+00 0. -1.
         22    1    3    3    0    0  0.55990306803E+02 -0.61879663013E+01  0.33949413946E+03  0.34413583962E+03  0.00000000000E+00 0.  1.
         22    1    3    3    0    0 -0.61436051015E+02  0.29006846660E+02  0.63437831905E+03  0.63800598524E+03  0.00000000000E+00 0.  1.
</event>
<event>
 7    1  0.5977291E-006  0.1144574E+03  0.7818608E-02  0.1444228E+00
          2   -1    0    0  502    0  0.00000000000E+00  0.00000000000E+00  0.14606991836E+04  0.14606991836E+04  0.00000000000E+00 0. -1.
          1   -1    0    0  501    0 -0.00000000000E+00 -0.00000000000E+00 -0.54934867125E+03  0.54934867125E+03  0.00000000000E+00 0. -1.
         25    2    1    2    0    0  0.13097915752E+03 -0.27134530765E+02 -0.53928278109E+02  0.19085430389E+03  0.12500113467E+03 0.  0.
          2    1    1    2  501    0 -0.10895926624E+03  0.27531773402E+02 -0.41947287981E+03  0.43426675805E+03  0.00000000000E+00 0. -1.
          1    1    1    2  502    0 -0.22019891278E+02 -0.39724263650E+00  0.13847516703E+04  0.13849267929E+04  0.00000000000E+00 0. -1.
         22    1    3    3    0    0  0.84703103059E+02 -0.37462674200E+01 -0.93061811979E+02  0.12589341141E+03  0.00000000000E+00 0. -1.
         22    1    3    3    0    0  0.46276054458E+02 -0.23388263345E+02  0.39133533870E+02  0.64960892479E+02  0.00000000000E+00 0. -1.
</event>
<event>
 7    1  0.5977291E-006  0.7953253E+02  0.7818608E-02  0.1413118E+00
          2   -1    0    0  502    0  0.00000000000E+00  0.00000000000E+00  0.34649881335E+04  0.34649881335E+04  0.00000000000E+00 0. -1.
          1   -1    0    0  501    0 -0.00000000000E+00 -0.00000000000E+00 -0.81641141268E+02  0.81641141268E+02  0.00000000000E+00 0. -1.
         25    2    1    2    0    0 -0.67784751624E+02 -0.94115284112E+02  0.41653537424E+03  0.45009399665E+03  0.12502171238E+03 0.  0.
          2    1    1    2  501    0  0.31940451214E+02  0.24316011876E+02 -0.58092844717E+02  0.70613309401E+02  0.00000000000E+00 0. -1.
          1    1    1    2  502    0  0.35844300409E+02  0.69799272236E+02  0.30249044627E+04  0.30259219687E+04  0.00000000000E+00 0. -1.
         22    1    3    3    0    0 -0.61073878738E+01  0.28958317713E+02  0.44855531105E+02  0.53739213077E+02  0.00000000000E+00 0.  1.
         22    1    3    3    0    0 -0.61677363750E+02 -0.12307360183E+03  0.37167984314E+03  0.39635478357E+03  0.00000000000E+00 0.  1.
</event>
<event>
 7    1  0.5977291E-006  0.3244013E+02  0.7818608E-02  0.1650331E+00
          2   -1    0    0  502    0  0.00000000000E+00  0.00000000000E+00  0.27006444568E+02  0.27006444568E+02  0.00000000000E+00 0. -1.
          1   -1    0    0  501    0 -0.00000000000E+00 -0.00000000000E+00 -0.13702749305E+04  0.13702749305E+04  0.00000000000E+00 0. -1.
         25    2    1    2    0    0  0.12860770428E+02 -0.19446020234E+01 -0.24513136220E+03  0.27546907231E+03  0.12499857669E+03 0.  0.
          2    1    1    2  501    0 -0.32568344845E+02 -0.35310591696E+01 -0.11007096548E+04  0.11011970348E+04  0.00000000000E+00 0. -1.
          1    1    1    2  502    0  0.19707574417E+02  0.54756611930E+01  0.25725310345E+01  0.20615267906E+02  0.00000000000E+00 0. -1.
         22    1    3    3    0    0 -0.32559469017E-01 -0.18471267821E+02 -0.25255696389E+03  0.25323153201E+03  0.00000000000E+00 0.  1.
         22    1    3    3    0    0  0.12893329897E+02  0.16526665797E+02  0.74256016900E+01  0.22237540302E+02  0.00000000000E+00 0.  1.
</event>
<event>
 7    1  0.5977291E-006  0.1308159E+03  0.7818608E-02  0.1304837E+00
          2   -1    0    0  502    0  0.00000000000E+00  0.00000000000E+00  0.18254785495E+04  0.18254785495E+04  0.00000000000E+00 0. -1.
          1   -1    0    0  501    0 -0.00000000000E+00 -0.00000000000E+00 -0.74255198060E+03  0.74255198060E+03  0.00000000000E+00 0. -1.
         25    2    1    2    0    0 -0.86305358824E+02 -0.16339447318E+03  0.50128756683E+03  0.54869028436E+03  0.12500173865E+03 0.  0.
          2    1    1    2  501    0  0.25970302621E+02  0.54977411886E+02 -0.71459725609E+03  0.71717934357E+03  0.00000000000E+00 0. -1.
          1    1    1    2  502    0  0.60335056203E+02  0.10841706129E+03  0.12962362582E+04  0.13021609022E+04  0.00000000000E+00 0. -1.
         22    1    3    3    0    0  0.64355161915E+01 -0.11664438336E+03  0.30525168178E+03  0.32684234314E+03  0.00000000000E+00 0. -1.
         22    1    3    3    0    0 -0.92740875015E+02 -0.46750089814E+02  0.19603588505E+03  0.22184794122E+03  0.00000000000E+00 0. -1.
</event>
<event>
 7    1  0.5977291E-006  0.2148300E+03  0.7818608E-02  0.1346114E+00
          2   -1    0    0  502    0  0.00000000000E+00  0.00000000000E+00  0.48973772963E+03  0.48973772963E+03  0.00000000000E+00 0. -1.
          1   -1    0    0  501    0 -0.00000000000E+00 -0.00000000000E+00 -0.10149354679E+04  0.10149354679E+04  0.00000000000E+00 0. -1.
         25    2    1    2    0    0  0.56096099066E+02  0.21250894514E+03 -0.12721286478E+03  0.28304508737E+03  0.12499833769E+03 0.  0.
          2    1    1    2  501    0 -0.30418101232E+02 -0.21198199948E+03 -0.79522632829E+03  0.82355724889E+03  0.00000000000E+00 0. -1.
          1    1    1    2  502    0 -0.25677997834E+02 -0.52694566280E+00  0.39724145476E+03  0.39807086131E+03  0.00000000000E+00 0. -1.
         22    1    3    3    0    0 -0.36568407152E+01  0.14547759940E+03 -0.26155177328E+02  0.14785532697E+03  0.00000000000E+00 0.  1.
         22    1    3    3    0    0  0.59752939782E+02  0.67031345737E+02 -0.10105768746E+03  0.13518976040E+03  0.00000000000E+00 0.  1.
</event>
<event>
 7    1  0.5977291E-006  0.5127625E+02  0.7818608E-02  0.1454018E+00
          2   -1    0    0  502    0  0.00000000000E+00  0.00000000000E+00  0.26505321063E+04  0.26505321063E+04  0.00000000000E+00 0. -1.
          1   -1    0    0  501    0 -0.00000000000E+00 -0.00000000000E+00 -0.13072141858E+03  0.13072141858E+03  0.00000000000E+00 0. -1.
         25    2    1    2    0    0  0.12510703752E+02 -0.17419645710E+02  0.26121488136E+03  0.29037584062E+03  0.12499981123E+03 0.  0.
          2    1    1    2  501    0 -0.34841452539E+02 -0.29627120699E+02 -0.11134127775E+03  0.12036848934E+03  0.00000000000E+00 0. -1.
          1    1    1    2  502    0  0.22330748787E+02  0.47046766408E+02  0.23699370841E+04  0.23705091949E+04  0.00000000000E+00 0. -1.
         22    1    3    3    0    0 -0.11755460517E+00  0.27099075080E+02  0.23624401499E+03  0.23779320492E+03  0.00000000000E+00 0.  1.
         22    1    3    3    0    0  0.12628258357E+02 -0.44518720789E+02  0.24970866375E+02  0.52582635702E+02  0.00000000000E+00 0.  1.
</event>
<event>
 7    1  0.5977291E-006  0.5075800E+02  0.7818608E-02  0.1521550E+00
          2   -1    0    0  502    0  0.00000000000E+00  0.00000000000E+00  0.50250873576E+03  0.50250873576E+03  0.00000000000E+00 0. -1.
          1   -1    0    0  501    0 -0.00000000000E+00 -0.00000000000E+00 -0.59254432673E+02  0.59254432673E+02  0.00000000000E+00 0. -1.
         25    2    1    2    0    0 -0.13912639661E+02  0.21775379940E+02  0.87116275650E+02  0.15453765103E+03  0.12499964555E+03 0.  0.
          2    1    1    2  501    0 -0.26577006475E+02  0.11132499168E+02 -0.14967595124E+02  0.32469966349E+02  0.00000000000E+00 0. -1.
          1    1    1    2  502    0  0.40489646136E+02 -0.32907879108E+02  0.37110562256E+03  0.37475555106E+03  0.00000000000E+00 0. -1.
         22    1    3    3    0    0 -0.35364426651E+02 -0.12660881078E+02  0.10401352833E+03  0.11058822115E+03  0.00000000000E+00 0. -1.
         22    1    3    3    0    0  0.21451786990E+02  0.34436261018E+02 -0.16897252681E+02  0.43949429872E+02  0.00000000000E+00 0. -1.
</event>
<event>
 7    1  0.5977291E-006  0.1009827E+03  0.7818608E-02  0.1339626E+00
          2   -1    0    0  502    0  0.00000000000E+00  0.00000000000E+00  0.26590927526E+03  0.26590927526E+03  0.00000000000E+00 0. -1.
          1   -1    0    0  501    0 -0.00000000000E+00 -0.00000000000E+00 -0.18973079840E+04  0.18973079840E+04  0.00000000000E+00 0. -1.
         25    2    1    2    0    0  0.45425497725E+01  0.79312265442E+02 -0.54679614956E+03  0.56649989495E+03  0.12500012636E+03 0.  0.
          2    1    1    2  501    0 -0.61552391922E+02 -0.88734642096E+02 -0.13351919297E+04  0.13395521725E+04  0.00000000000E+00 0. -1.
          1    1    1    2  502    0  0.57009842149E+02  0.94223766546E+01  0.25058937051E+03  0.25716519185E+03  0.00000000000E+00 0. -1.
         22    1    3    3    0    0 -0.51072353473E+02  0.17879959238E+02 -0.11863046420E+03  0.13038890010E+03  0.00000000000E+00 0.  1.
         22    1    3    3    0    0  0.55614903245E+02  0.61432306204E+02 -0.42816568536E+03  0.43611099485E+03  0.00000000000E+00 0.  1.
</event>
<event>
 7    1  0.5977291E-006  0.6221394E+02  0.7818608E-02  0.1442714E+00
          2   -1    0    0  502    0  0.00000000000E+00  0.00000000000E+00  0.56258450865E+03  0.56258450865E+03  0.00000000000E+00 0. -1.
          1   -1    0    0  501    0 -0.00000000000E+00 -0.00000000000E+00 -0.11393427975E+03  0.11393427975E+03  0.00000000000E+00 0. -1.
         25    2    1    2    0    0 -0.72996089358E+01  0.40671326578E+02  0.10921496302E+03  0.17105660051E+03  0.12500004534E+03 0.  0.
          2    1    1    2  501    0  0.48181314900E+02 -0.43452967399E+02 -0.69152764877E+02  0.94824597923E+02  0.00000000000E+00 0. -1.
          1    1    1    2  502    0 -0.40881705964E+02  0.27816408209E+01  0.40858803076E+03  0.41063758996E+03  0.00000000000E+00 0. -1.
         22    1    3    3    0    0 -0.14326982027E+00 -0.21272660916E+02 -0.18974350492E+02  0.28505659180E+02  0.00000000000E+00 0.  1.
         22    1    3    3    0    0 -0.71563391156E+01  0.61943987493E+02  0.12818931351E+03  0.14255094133E+03  0.00000000000E+00 0.  1.
</event>
<event>
 7    1  0.5977291E-006  0.6002573E+02  0.7818608E-02  0.1488255E+00
          2   -1    0    0  502    0  0.00000000000E+00  0.00000000000E+00  0.13133767500E+04  0.13133767500E+04  0.00000000000E+00 0. -1.
          1   -1    0    0  501    0 -0.00000000000E+00 -0.00000000000E+00 -0.12621998555E+03  0.12621998555E+03  0.00000000000E+00 0. -1.
         25    2    1    2    0    0  0.83624577849E+02  0.25467804376E+02  0.56751215880E+03  0.58765457503E+03  0.12500468026E+03 0.  0.
          2    1    1    2  501    0 -0.29937076930E+02 -0.62535658239E+01 -0.11300833072E+03  0.11707356009E+03  0.00000000000E+00 0. -1.
          1    1    1    2  502    0 -0.53687500919E+02 -0.19214238552E+02  0.73265293634E+03  0.73486860040E+03  0.00000000000E+00 0. -1.
         22    1    3    3    0    0  0.98646443156E+02  0.51295570539E+02  0.51822319045E+03  0.53001663315E+03  0.00000000000E+00 0. -1.
         22    1    3    3    0    0 -0.15021865307E+02 -0.25827766162E+02  0.49288968356E+02  0.57637941877E+02  0.00000000000E+00 0. -1.
</event>
<event>
 7    1  0.5977291E-006  0.1083212E+03  0.7818608E-02  0.1364761E+00
          2   -1    0    0  502    0  0.00000000000E+00  0.00000000000E+00  0.45535534163E+03  0.45535534163E+03  0.00000000000E+00 0. -1.
          1   -1    0    0  501    0 -0.00000000000E+00 -0.00000000000E+00 -0.29978258212E+04  0.29978258212E+04  0.00000000000E+00 0. -1.
         25    2    1    2    0    0 -0.31841707283E+02 -0.10831209818E+03  0.12654213794E+03  0.21067177735E+03  0.12499712061E+03 0.  0.
          2    1    1    2  501    0  0.68096427363E+02  0.84270308086E+02 -0.29531119616E+04  0.29550987913E+04  0.00000000000E+00 0. -1.
          1    1    1    2  502    0 -0.36254720081E+02  0.24041790095E+02  0.28409934407E+03  0.28741059427E+03  0.00000000000E+00 0. -1.
         22    1    3    3    0    0 -0.53518875949E+02  0.28187080709E+01  0.27476990843E+02  0.60226241986E+02  0.00000000000E+00 0. -1.
         22    1    3    3    0    0  0.21677168666E+02 -0.11113080625E+03  0.99065147101E+02  0.15044553536E+03  0.00000000000E+00 0. -1.
</event>
<event>
 7    1  0.5977291E-006  0.8544927E+02  0.7818608E-02  0.1467627E+00
          2   -1    0    0  502    0  0.00000000000E+00  0.00000000000E+00  0.44297660061E+03  0.44297660061E+03  0.00000000000E+00 0. -1.
          1   -1    0    0  501    0 -0.00000000000E+00 -0.00000000000E+00 -0.22022341088E+04  0.22022341088E+04  0.00000000000E+00 0. -1.
         25    2    1    2    0    0 -0.54979946602E+02 -0.91400648065E+02 -0.15761282078E+03  0.22769164180E+03  0.12499923791E+03 0.  0.
          2    1    1    2  501    0  0.34209417573E+02  0.77732574047E+02 -0.20083047153E+04  0.20100996161E+04  0.00000000000E+00 0. -1.
          1    1    1    2  502    0  0.20770529029E+02  0.13668074018E+02  0.40666002790E+03  0.40741945144E+03  0.00000000000E+00 0. -1.
         22    1    3    3    0    0 -0.47174827487E+02 -0.98778610982E+02 -0.17549256808E+03  0.20683403924E+03  0.00000000000E+00 0. -1.
         22    1    3    3    0    0 -0.78051191149E+01  0.73779629173E+01  0.17879747303E+02  0.20857602567E+02  0.00000000000E+00 0. -1.
</event>
<event>
 7    1  0.5977291E-006  0.7991739E+02  0.7818608E-02  0.1379246E+00
          2   -1    0    0  502    0  0.00000000000E+00  0.00000000000E+00  0.50797333517E+03  0.50797333517E+03  0.00000000000E+00 0. -1.
          1   -1    0    0  501    0 -0.00000000000E+00 -0.00000000000E+00 -0.12205085750E+03  0.12205085750E+03  0.00000000000E+00 0. -1.
         25    2    1    2    0    0  0.41765373843E+02  0.65114567456E+02  0.78598755657E+02  0.16669379327E+03  0.12499921191E+03 0.  0.
          2    1    1    2  501    0  0.35481009622E+02 -0.38449845323E+02 -0.64260974663E+02  0.82865949061E+02  0.00000000000E+00 0. -1.
          1    1    1    2  502    0 -0.77246383465E+02 -0.26664722134E+02  0.37158469668E+03  0.38046445034E+03  0.00000000000E+00 0. -1.
         22    1    3    3    0    0  0.85348540399E+02  0.31005229861E+02  0.40036533680E+02  0.99240221967E+02  0.00000000000E+00 0.  1.
         22    1    3    3    0    0 -0.43583166556E+02  0.34109337595E+02  0.38562221978E+02  0.67453571307E+02  0.00000000000E+00 0.  1.
</event>
<event>
 7    1  0.5977291E-006  0.9129454E+02  0.7818608E-02  0.1427736E+00
          2   -1    0    0  502    0  0.00000000000E+00  0.00000000000E+00  0.19730464119E+04  0.19730464119E+04  0.00000000000E+00 0. -1.
          1   -1    0    0  501    0 -0.00000000000E+00 -0.00000000000E+00 -0.45220849871E+03  0.45220849871E+03  0.00000000000E+00 0. -1.
         25    2    1    2    0    0 -0.44392373775E+02  0.10421943581E+03 -0.68000515910E+02  0.18188053054E+03  0.12499633425E+03 0.  0.
          2    1    1    2  501    0 -0.85630860273E+01 -0.30058833963E+02 -0.32543539204E+03  0.32693279789E+03  0.00000000000E+00 0. -1.
          1    1    1    2  502    0  0.52955459803E+02 -0.74160601845E+02  0.19142738211E+04  0.19164415821E+04  0.00000000000E+00 0. -1.
         22    1    3    3    0    0 -0.68840577954E+02  0.68109302081E+02 -0.90732099884E+02  0.13270348960E+03  0.00000000000E+00 0.  1.
         22    1    3    3    0    0  0.24448204178E+02  0.36110133727E+02  0.22731583974E+02  0.49177040937E+02  0.00000000000E+00 0.  1.
</event>
<event>
 7    1  0.5977291E-006  0.1195853E+03  0.7818608E-02  0.1262982E+00
          2   -1    0    0  502    0  0.00000000000E+00  0.00000000000E+00  0.10158044370E+03  0.10158044370E+03  0.00000000000E+00 0. -1.
          1   -1    0    0  501    0 -0.00000000000E+00 -0.00000000000E+00 -0.85944917854E+03  0.85944917854E+03  0.00000000000E+00 0. -1.
         25    2    1    2    0    0  0.11661959369E+03  0.29207385856E+02 -0.25993094116E+03  0.31247727288E+03  0.12499900349E+03 0.  0.
          2    1    1    2  501    0 -0.62629590500E+02 -0.11197481748E+03 -0.52949407821E+03  0.54481630318E+03  0.00000000000E+00 0. -1.
          1    1    1    2  502    0 -0.53990003192E+02  0.82767431627E+02  0.31556284523E+02  0.10373604617E+03  0.00000000000E+00 0. -1.
         22    1    3    3    0    0  0.10058444828E+03  0.19269918378E+02 -0.75877623877E+02  0.12745969871E+03  0.00000000000E+00 0. -1.
         22    1    3    3    0    0  0.16035145410E+02  0.99374674786E+01 -0.18405331728E+03  0.18501757417E+03  0.00000000000E+00 0. -1.
</event>
<event>
 7    1  0.5977291E-006  0.6665325E+02  0.7818608E-02  0.1426817E+00
          2   -1    0    0  502    0  0.00000000000E+00  0.00000000000E+00  0.54756265514E+03  0.54756265514E+03  0.00000000000E+00 0. -1.
          1   -1    0    0  501    0 -0.00000000000E+00 -0.00000000000E+00 -0.36421538988E+02  0.36421538988E+02  0.00000000000E+00 0. -1.
         25    2    1    2    0    0  0.26674918934E+02  0.32761230423E+02  0.17697901302E+03  0.22075607458E+03  0.12500729536E+03 0.  0.
          2    1    1    2  501    0 -0.46091629162E+02 -0.71250945055E+02  0.13501558960E+03  0.15946894646E+03  0.00000000000E+00 0. -1.
          1    1    1    2  502    0  0.19416710228E+02  0.38489714631E+02  0.19914651353E+03  0.20375917309E+03  0.00000000000E+00 0. -1.
         22    1    3    3    0    0 -0.47482188956E+02  0.14079351452E+02  0.39142845005E+02  0.63126450245E+02  0.00000000000E+00 0.  1.
         22    1    3    3    0    0  0.74157107891E+02  0.18681878971E+02  0.13783616802E+03  0.15762962433E+03  0.00000000000E+00 0.  1.
</event>
<event>
 7    1  0.5977291E-006  0.1085789E+03  0.7818608E-02  0.1287473E+00
          2   -1    0    0  502    0  0.00000000000E+00  0.00000000000E+00  0.33956830459E+03  0.33956830459E+03  0.00000000000E+00 0. -1.
          1   -1    0    0  501    0 -0.00000000000E+00 -0.00000000000E+00 -0.91747325979E+03  0.91747325979E+03  0.00000000000E+00 0. -1.
         25    2    1    2    0    0  0.19523750980E+02 -0.86530748450E+02 -0.62383098173E+02  0.16548604906E+03  0.12500093687E+03 0.  0.
          2    1    1    2  501    0 -0.85890715925E+02 -0.53186149917E+01 -0.78996486711E+03  0.79463827873E+03  0.00000000000E+00 0. -1.
          1    1    1    2  502    0  0.66366964945E+02  0.91849363442E+02  0.27444301009E+03  0.29691723659E+03  0.00000000000E+00 0. -1.
         22    1    3    3    0    0  0.47562335941E+01 -0.10295603877E+03 -0.40881482062E+01  0.10314688863E+03  0.00000000000E+00 0. -1.
         22    1    3    3    0    0  0.14767517386E+02  0.16425290324E+02 -0.58294949966E+02  0.62339160433E+02  0.00000000000E+00 0. -1.
</event>
<event>
 7    1  0.5977291E-006  0.3866265E+02  0.7818608E-02  0.1552599E+00
          2   -1    0    0  502    0  0.00000000000E+00  0.00000000000E+00  0.26608193216E+03  0.26608193216E+03  0.00000000000E+00 0. -1.
          1   -1    0    0  501    0 -0.00000000000E+00 -0.00000000000E+00 -0.13355679630E+03  0.13355679630E+03  0.00000000000E+00 0. -1.
         25    2    1    2    0    0 -0.42436936484E+02  0.40275142682E+01  0.14300595284E+03  0.19466124758E+03  0.12500073725E+03 0.  0.
          2    1    1    2  501    0  0.11363911047E+02 -0.28714697887E+02 -0.10128037712E+03  0.10588383795E+03  0.00000000000E+00 0. -1.
          1    1    1    2  502    0  0.31073025437E+02  0.24687183619E+02  0.90799560150E+02  0.99093642925E+02  0.00000000000E+00 0. -1.
         22    1    3    3    0    0 -0.16499575035E+02  0.10349783932E+02 -0.20915578848E+02  0.28579983246E+02  0.00000000000E+00 0. -1.
         22    1    3    3    0    0 -0.25937361449E+02 -0.63222696640E+01  0.16392153169E+03  0.16608126434E+03  0.00000000000E+00 0. -1.
</event>
<event>
 7    1  0.5977291E-006  0.3276832E+02  0.7818608E-02  0.1607438E+00
          2   -1    0    0  502    0  0.00000000000E+00  0.00000000000E+00  0.84096438563E+03  0.84096438563E+03  0.00000000000E+00 0. -1.
          1   -1    0    0  501    0 -0.00000000000E+00 -0.00000000000E+00 -0.19021117135E+02  0.19021117135E+02  0.00000000000E+00 0. -1.
         25    2    1    2    0    0 -0.25795758858E+02 -0.20465445385E+02  0.33813400726E+03  0.36200001071E+03  0.12500058102E+03 0.  0.
          2    1    1    2  501    0  0.33573447258E+02 -0.43108792842E+01  0.35963915552E+02  0.49387885790E+02  0.00000000000E+00 0. -1.
          1    1    1    2  502    0 -0.77776884002E+01  0.24776324669E+02  0.44784534568E+03  0.44859760627E+03  0.00000000000E+00 0. -1.
         22    1    3    3    0    0  0.16064299071E+02 -0.42791221966E+02  0.29291679941E+03  0.29646146757E+03  0.00000000000E+00 0.  1.
         22    1    3    3    0    0 -0.41860057928E+02  0.22325776580E+02  0.45217207855E+02  0.65538543132E+02  0.00000000000E+00 0.  1.
</event>
<event>
 7    1  0.5977291E-006  0.2203895E+03  0.7818608E-02  0.1352912E+00
          2   -1    0    0  502    0  0.00000000000E+00  0.00000000000E+00  0.22476901488E+04  0.22476901488E+04  0.00000000000E+00 0. -1.
          1   -1    0    0  501    0 -0.00000000000E+00 -0.00000000000E+00 -0.16800825986E+04  0.16800825986E+04  0.00000000000E+00 0. -1.
         25    2    1    2    0    0 -0.10692731694E+03  0.21266933539E+03 -0.19383143638E+03  0.33142946765E+03  0.12495266692E+03 0.  0.
          2    1    1    2  501    0 -0.48138776400E+01 -0.23128144052E+02 -0.14117984211E+04  0.14119960574E+04  0.00000000000E+00 0. -1.
          1    1    1    2  502    0  0.11174119458E+03 -0.18954119134E+03  0.21732374076E+04  0.21843472223E+04  0.00000000000E+00 0. -1.
         22    1    3    3    0    0 -0.16571761401E+02  0.64608733984E+01 -0.74558927949E+02  0.76651157185E+02  0.00000000000E+00 0.  1.
         22    1    3    3    0    0 -0.90355555535E+02  0.20620846199E+03 -0.11927250844E+03  0.25477831046E+03  0.00000000000E+00 0.  1.
</event>
<event>
 7    1  0.5977291E-006  0.6010137E+02  0.7818608E-02  0.1413074E+00
          2   -1    0    0  502    0  0.00000000000E+00  0.00000000000E+00  0.21231734873E+03  0.21231734873E+03  0.00000000000E+00 0. -1.
          1   -1    0    0  501    0 -0.00000000000E+00 -0.00000000000E+00 -0.32394227860E+03  0.32394227860E+03  0.00000000000E+00 0. -1.
         25    2    1    2    0    0 -0.23209869985E+01  0.30922918775E+02  0.65386816158E+02  0.14443744653E+03  0.12500050539E+03 0.  0.
          2    1    1    2  501    0  0.59879189258E+02 -0.51630295412E+01 -0.27158366903E+03  0.27815438782E+03  0.00000000000E+00 0. -1.
          1    1    1    2  502    0 -0.57558202260E+02 -0.25759889233E+02  0.94571923000E+02  0.11366779298E+03  0.00000000000E+00 0. -1.
         22    1    3    3    0    0 -0.63238665884E+01 -0.11216393111E+02 -0.34029920281E+02  0.36384532942E+02  0.00000000000E+00 0.  1.
         22    1    3    3    0    0  0.40028795899E+01  0.42139311885E+02  0.99416736439E+02  0.10805291359E+03  0.00000000000E+00 0.  1.
</event>
<event>
 7    1  0.5977291E-006  0.7515431E+02  0.7818608E-02  0.1348138E+00
          2   -1    0    0  502    0  0.00000000000E+00  0.00000000000E+00  0.16165449856E+03  0.16165449856E+03  0.00000000000E+00 0. -1.
          1   -1    0    0  501    0 -0.00000000000E+00 -0.00000000000E+00 -0.78693285130E+03  0.78693285130E+03  0.00000000000E+00 0. -1.
         25    2    1    2    0    0 -0.14348803955E+02 -0.47018287293E+02 -0.13449837251E+03  0.19008087024E+03  0.12499727001E+03 0.  0.
          2    1    1    2  501    0  0.76628437818E+02  0.49538463544E+01 -0.61150094207E+03  0.61630338327E+03  0.00000000000E+00 0. -1.
          1    1    1    2  502    0 -0.62279633864E+02  0.42064440939E+02  0.12072096183E+03  0.14220309635E+03  0.00000000000E+00 0. -1.
         22    1    3    3    0    0  0.37619570193E+01  0.36791303333E+02 -0.80927324813E+02  0.88977436595E+02  0.00000000000E+00 0.  1.
         22    1    3    3    0    0 -0.18110760974E+02 -0.83809590626E+02 -0.53571047696E+02  0.10110343365E+03  0.00000000000E+00 0.  1.
</event>
<event>
 7    1  0.5977291E-006  0.7534988E+02  0.7818608E-02  0.1414868E+00
          2   -1    0    0  502    0  0.00000000000E+00  0.00000000000E+00  0.27341912012E+03  0.27341912012E+03  0.00000000000E+00 0. -1.
          1   -1    0    0  501    0 -0.00000000000E+00 -0.00000000000E+00 -0.73898225427E+03  0.73898225427E+03  0.00000000000E+00 0. -1.
         25    2    1    2    0    0 -0.67416995290E+02  0.44104667070E+02  0.52290642603E+02  0.15763947268E+03  0.12500247650E+03 0.  0.
          2    1    1    2  501    0  0.75405684395E+02 -0.30749626339E+01 -0.68159965848E+03  0.68576495031E+03  0.00000000000E+00 0. -1.
          1    1    1    2  502    0 -0.79886891049E+01 -0.41029704436E+02  0.16374588173E+03  0.16899695140E+03  0.00000000000E+00 0. -1.
         22    1    3    3    0    0 -0.52445217188E+02 -0.21141342148E+01  0.84410315265E+02  0.99398549751E+02  0.00000000000E+00 0. -1.
         22    1    3    3    0    0 -0.14971778102E+02  0.46218801284E+02 -0.32119672662E+02  0.58240922929E+02  0.00000000000E+00 0. -1.
</event>
<event>
 7    1  0.5977291E-006  0.1097168E+03  0.7818608E-02  0.1459579E+00
          2   -1    0    0  502    0  0.00000000000E+00  0.00000000000E+00  0.29097193259E+03  0.29097193259E+03  0.00000000000E+00 0. -1.
          1   -1    0    0  501    0 -0.00000000000E+00 -0.00000000000E+00 -0.24514211621E+03  0.24514211621E+03  0.00000000000E+00 0. -1.
         25    2    1    2    0    0 -0.24171412667E+02  0.87539762418E+02 -0.11302503132E+03  0.19146199329E+03  0.12504227275E+03 0.  0.
          2    1    1    2  501    0 -0.34078063713E+01  0.20239488765E+02 -0.79236140595E+02  0.81851182191E+02  0.00000000000E+00 0. -1.
          1    1    1    2  502    0  0.27579219038E+02 -0.10777925118E+03  0.23809098830E+03  0.26280087332E+03  0.00000000000E+00 0. -1.
         22    1    3    3    0    0  0.12883748467E+02 -0.27622424540E+02 -0.39508298810E+02  0.49898847551E+02  0.00000000000E+00 0.  1.
         22    1    3    3    0    0 -0.37055161134E+02  0.11516218696E+03 -0.73516732514E+02  0.14156314574E+03  0.00000000000E+00 0.  1.
</event>
<event>
 7    1  0.5977291E-006  0.3605893E+02  0.7818608E-02  0.1576085E+00
          2   -1    0    0  502    0  0.00000000000E+00  0.00000000000E+00  0.13345223687E+04  0.13345223687E+04  0.00000000000E+00 0. -1.
          1   -1    0    0  501    0 -0.00000000000E+00 -0.00000000000E+00 -0.27368150608E+02  0.27368150608E+02  0.00000000000E+00 0. -1.
         25    2    1    2    0    0 -0.35099388692E+02  0.53353494109E+02  0.27391887550E+03  0.30778989826E+03  0.12499803477E+03 0.  0.
          2    1    1    2  501    0  0.13281824722E+02 -0.25278855046E+02  0.10012423992E+02  0.30260139037E+02  0.00000000000E+00 0. -1.
          1    1    1    2  502    0  0.21817563970E+02 -0.28074639064E+02  0.10232229186E+04  0.10238404820E+04  0.00000000000E+00 0. -1.
         22    1    3    3    0    0 -0.79063884192E+01  0.86114863365E+02  0.11884655629E+03  0.14697885770E+03  0.00000000000E+00 0.  1.
         22    1    3    3    0    0 -0.27193000273E+02 -0.32761369255E+02  0.15507231921E+03  0.16081104056E+03  0.00000000000E+00 0.  1.
</event>
<event>
 7    1  0.5977291E-006  0.1100349E+03  0.7818608E-02  0.1345999E+00
          2   -1    0    0  502    0  0.00000000000E+00  0.00000000000E+00  0.39601745401E+03  0.39601745401E+03  0.00000000000E+00 0. -1.
          1   -1    0    0  501    0 -0.00000000000E+00 -0.00000000000E+00 -0.17285830590E+03  0.17285830590E+03  0.00000000000E+00 0. -1.
         25    2    1    2    0    0 -0.14243447974E+03 -0.28791906953E+02  0.22708514692E+03  0.29716903911E+03  0.12500087570E+03 0.  0.
          2    1    1    2  501    0  0.96106412343E+02  0.48107087279E+02 -0.11035099140E+03  0.15403920164E+03  0.00000000000E+00 0. -1.
          1    1    1    2  502    0  0.46328067398E+02 -0.19315180326E+02  0.10642499259E+03  0.11766751917E+03  0.00000000000E+00 0. -1.
         22    1    3    3    0    0 -0.86914998751E+02 -0.72332808244E+02  0.96128938581E+02  0.14841504300E+03  0.00000000000E+00 0.  1.
         22    1    3    3    0    0 -0.55519480989E+02  0.43540901291E+02  0.13095620834E+03  0.14875399610E+03  0.00000000000E+00 0.  1.
</event>
<event>
 7    1  0.5977291E-006  0.1131803E+03  0.7818608E-02  0.1427974E+00
          2   -1    0    0  502    0  0.00000000000E+00  0.00000000000E+00  0.80760161820E+03  0.80760161820E+03  0.00000000000E+00 0. -1.
          1   -1    0    0  501    0 -0.00000000000E+00 -0.00000000000E+00 -0.10536001016E+03  0.10536001016E+03  0.00000000000E+00 0. -1.
         25    2    1    2    0    0 -0.77696470608E+02 -0.64213353428E+02  0.46149479487E+03  0.48863044968E+03  0.12498869692E+03 0.  0.
          2    1    1    2  501    0  0.10069131356E+03  0.53989161430E+02 -0.55498914526E+02  0.12701850137E+03  0.00000000000E+00 0. -1.
          1    1    1    2  502    0 -0.22994842950E+02  0.10224191998E+02  0.29624572770E+03  0.29731267730E+03  0.00000000000E+00 0. -1.
         22    1    3    3    0    0  0.48494985579E+01 -0.76860528688E+02  0.21557158778E+03  0.22891519820E+03  0.00000000000E+00 0.  1.
         22    1    3    3    0    0 -0.82545969166E+02  0.12647175260E+02  0.24592320709E+03  0.25971525148E+03  0.00000000000E+00 0.  1.
</event>
<event>
 7    1  0.5977291E-006  0.9037544E+02  0.7818608E-02  0.1312338E+00
          2   -1    0    0  502    0  0.00000000000E+00  0.00000000000E+00  0.16799769498E+04  0.16799769498E+04  0.00000000000E+00 0. -1.
          1   -1    0    0  501    0 -0.00000000000E+00 -0.00000000000E+00 -0.21472537734E+04  0.21472537734E+04  0.00000000000E+00 0. -1.
         25    2    1    2    0    0  0.60504465125E+02  0.15579782594E+03  0.11660779624E+01  0.20870972664E+03  0.12499854955E+03 0.  0.
          2    1    1    2  501    0 -0.12925997199E+02 -0.88757986043E+02 -0.20414238464E+04  0.20433933498E+04  0.00000000000E+00 0. -1.
          1    1    1    2  502    0 -0.47578467926E+02 -0.67039839898E+02  0.15729809448E+04  0.15751276468E+04  0.00000000000E+00 0. -1.
         22    1    3    3    0    0  0.44010291413E+02  0.11847855269E+03  0.57743412428E+02  0.13895457846E+03  0.00000000000E+00 0.  1.
         22    1    3    3    0    0  0.16494173711E+02  0.37319273256E+02 -0.56577334465E+02  0.69755148182E+02  0.00000000000E+00 0.  1.
</event>
<event>
 7    1  0.5977291E-006  0.3297691E+02  0.7818608E-02  0.1578119E+00
          2   -1    0    0  502    0  0.00000000000E+00  0.00000000000E+00  0.19452279510E+04  0.19452279510E+04  0.00000000000E+00 0. -1.
          1   -1    0    0  501    0 -0.00000000000E+00 -0.00000000000E+00 -0.86149549807E+01  0.86149549807E+01  0.00000000000E+00 0. -1.
         25    2    1    2    0    0 -0.92747602348E+00  0.54715408327E+00  0.10184370196E+04  0.10260793051E+04  0.12499447173E+03 0.  0.
          2    1    1    2  501    0  0.45076525823E+01  0.32667377794E+02  0.56347961583E+02  0.65288354844E+02  0.00000000000E+00 0. -1.
          1    1    1    2  502    0 -0.35801765588E+01 -0.33214531877E+02  0.86182801484E+03  0.86247524600E+03  0.00000000000E+00 0. -1.
         22    1    3    3    0    0  0.42181260002E+02 -0.44994637954E+02  0.45418369543E+03  0.45835205392E+03  0.00000000000E+00 0.  1.
         22    1    3    3    0    0 -0.43108736026E+02  0.45541792037E+02  0.56425332414E+03  0.56772725119E+03  0.00000000000E+00 0.  1.
</event>
<event>
 7    1  0.5977291E-006  0.4446445E+02  0.7818608E-02  0.1520868E+00
          2   -1    0    0  502    0  0.00000000000E+00  0.00000000000E+00  0.16061028816E+04  0.16061028816E+04  0.00000000000E+00 0. -1.
          1   -1    0    0  501    0 -0.00000000000E+00 -0.00000000000E+00 -0.15857781075E+04  0.15857781075E+04  0.00000000000E+00 0. -1.
         25    2    1    2    0    0  0.16697207281E+02  0.61158493557E+01  0.14588052449E+03  0.19292960470E+03  0.12499801838E+03 0.  0.
          2    1    1    2  501    0 -0.21941816413E+02 -0.38740102762E+02 -0.15617462860E+04  0.15623807797E+04  0.00000000000E+00 0. -1.
          1    1    1    2  502    0  0.52446091318E+01  0.32624253407E+02  0.14361905356E+04  0.14365706047E+04  0.00000000000E+00 0. -1.
         22    1    3    3    0    0 -0.36121010560E+02 -0.41573597580E+02  0.65386926147E+02  0.85490008367E+02  0.00000000000E+00 0. -1.
         22    1    3    3    0    0  0.52818217841E+02  0.47689446936E+02  0.80493598343E+02  0.10743959633E+03  0.00000000000E+00 0. -1.
</event>
<event>
 7    1  0.7467317E-006  0.1868808E+03  0.7818608E-02  0.1176797E+00
          2   -1    0    0  502    0  0.00000000000E+00  0.00000000000E+00  0.24984299040E+04  0.24984299040E+04  0.00000000000E+00 0. -1.
          1   -1    0    0  501    0 -0.00000000000E+00 -0.00000000000E+00 -0.17684574401E+04  0.17684574401E+04  0.00000000000E+00 0. -1.
         25    2    1    2    0    0  0.11621546796E+03  0.84288050524E+01 -0.67272522605E+03  0.69409048711E+03  0.12500117914E+03 0.  0.
          2    1    1    2  501    0 -0.23715454173E+02  0.15468171859E+03 -0.10758472653E+04  0.10871688899E+04  0.00000000000E+00 0. -1.
          1    1    1    2  502    0 -0.92500013789E+02 -0.16311052365E+03  0.24785449553E+04  0.24856279671E+04  0.00000000000E+00 0. -1.
         22    1    3    3    0    0  0.10293331663E+03 -0.34990842782E+02 -0.58799107756E+03  0.59795746842E+03  0.00000000000E+00 0. -1.
         22    1    3    3    0    0  0.13282151332E+02  0.43419647834E+02 -0.84734148493E+02  0.96133018692E+02  0.00000000000E+00 0. -1.
</event>
<event>
 7    1  0.5977291E-006  0.9274968E+02  0.7818608E-02  0.1459543E+00
          2   -1    0    0  502    0  0.00000000000E+00  0.00000000000E+00  0.91694783339E+03  0.91694783339E+03  0.00000000000E+00 0. -1.
          1   -1    0    0  501    0 -0.00000000000E+00 -0.00000000000E+00 -0.21680299290E+03  0.21680299290E+03  0.00000000000E+00 0. -1.
         25    2    1    2    0    0 -0.10205143975E+03 -0.31417735238E+01  0.21878342981E+03  0.27187044484E+03  0.12499192983E+03 0.  0.
          2    1    1    2  501    0  0.89316564109E+02  0.23820466021E+02 -0.17879511156E+03  0.20127730907E+03  0.00000000000E+00 0. -1.
          1    1    1    2  502    0  0.12734875643E+02 -0.20678692497E+02  0.66015652225E+03  0.66060307239E+03  0.00000000000E+00 0. -1.
         22    1    3    3    0    0 -0.10571793174E+03 -0.99532208107E+01  0.80194493996E+02  0.13306579035E+03  0.00000000000E+00 0. -1.
         22    1    3    3    0    0  0.36664919841E+01  0.68114472869E+01  0.13858893581E+03  0.13880465449E+03  0.00000000000E+00 0. -1.
</event>
<event>
 7    1  0.5977291E-006  0.4051143E+02  0.7818608E-02  0.1603547E+00
          2   -1    0    0  502    0  0.00000000000E+00  0.00000000000E+00  0.23815114962E+03  0.23815114962E+03  0.00000000000E+00 0. -1.
          1   -1    0    0  501    0 -0.00000000000E+00 -0.00000000000E+00 -0.29539360990E+03  0.29539360990E+03  0.00000000000E+00 0. -1.
         25    2    1    2    0    0 -0.60463291412E+02 -0.96911453567E+01 -0.12349750534E+03  0.18608087245E+03  0.12499891743E+03 0.  0.
          2    1    1    2  501    0  0.21495411977E+02 -0.39332753202E+00 -0.13780493985E+03  0.13947189283E+03  0.00000000000E+00 0. -1.
          1    1    1    2  502    0  0.38967879435E+02  0.10084472889E+02  0.20405998492E+03  0.20799199424E+03  0.00000000000E+00 0. -1.
         22    1    3    3    0    0 -0.45271677975E+02 -0.27246473002E+02 -0.14506779699E+03  0.15439093510E+03  0.00000000000E+00 0.  1.
         22    1    3    3    0    0 -0.15191613436E+02  0.17555327645E+02  0.21570291648E+02  0.31689937351E+02  0.00000000000E+00 0.  1.
</event>
<event>
 7    1  0.5977291E-006  0.1495605E+03  0.7818608E-02  0.1295738E+00
          2   -1    0    0  502    0  0.00000000000E+00  0.00000000000E+00  0.45468243736E+03  0.45468243736E+03  0.00000000000E+00 0. -1.
          1   -1    0    0  501    0 -0.00000000000E+00 -0.00000000000E+00 -0.11467617321E+04  0.11467617321E+04  0.00000000000E+00 0. -1.
         25    2    1    2    0    0  0.47381582887E+02  0.89102011505E+02 -0.13946645742E+03  0.21273054194E+03  0.12497682937E+03 0.  0.
          2    1    1    2  501    0  0.49266841167E+02  0.30289627996E+02 -0.95564917846E+03  0.95739753263E+03  0.00000000000E+00 0. -1.
          1    1    1    2  502    0 -0.96648424054E+02 -0.11939163950E+03  0.40303634112E+03  0.43131609490E+03  0.00000000000E+00 0. -1.
         22    1    3    3    0    0  0.69819599248E+02  0.44452940846E+02 -0.14013805410E+03  0.16275599711E+03  0.00000000000E+00 0.  1.
         22    1    3    3    0    0 -0.22438016361E+02  0.44649070658E+02  0.67159667935E+00  0.49974544830E+02  0.00000000000E+00 0.  1.
</event>
<event>
 7    1  0.5977291E-006  0.3891025E+02  0.7818608E-02  0.1622169E+00
          2   -1    0    0  502    0  0.00000000000E+00  0.00000000000E+00  0.38756236512E+02  0.38756236512E+02  0.00000000000E+00 0. -1.
          1   -1    0    0  501    0 -0.00000000000E+00 -0.00000000000E+00 -0.11188872240E+04  0.11188872240E+04  0.00000000000E+00 0. -1.
         25    2    1    2    0    0  0.12519794891E+02  0.25707611969E+02 -0.28634646889E+03  0.31374654116E+03  0.12499986106E+03 0.  0.
          2    1    1    2  501    0  0.21881556935E+01 -0.39330912779E+02 -0.81427674492E+03  0.81522900221E+03  0.00000000000E+00 0. -1.
          1    1    1    2  502    0 -0.14707950584E+02  0.13623300810E+02  0.20492226309E+02  0.28667917162E+02  0.00000000000E+00 0. -1.
         22    1    3    3    0    0 -0.82365751588E+00  0.68782733606E+02 -0.95808004649E+02  0.11794454887E+03  0.00000000000E+00 0.  1.
         22    1    3    3    0    0  0.13343452407E+02 -0.43075121637E+02 -0.19053846424E+03  0.19580199229E+03  0.00000000000E+00 0.  1.
</event>
<event>
 7    1  0.5977291E-006  0.1282853E+03  0.7818608E-02  0.1367697E+00
          2   -1    0    0  502    0  0.00000000000E+00  0.00000000000E+00  0.15617373039E+04  0.15617373039E+04  0.00000000000E+00 0. -1.
          1   -1    0    0  501    0 -0.00000000000E+00 -0.00000000000E+00 -0.13657650219E+04  0.13657650219E+04  0.00000000000E+00 0. -1.
         25    2    1    2    0    0  0.14900406167E+03 -0.57746869126E+02 -0.33506656486E+03  0.39170291188E+03  0.12499862801E+03 0.  0.
          2    1    1    2  501    0 -0.11496681057E+03  0.46506755239E+02 -0.99833354469E+03  0.10060070140E+04  0.00000000000E+00 0. -1.
          1    1    1    2  502    0 -0.34037251094E+02  0.11240113887E+02  0.15293723916E+04  0.15297923999E+04  0.00000000000E+00 0. -1.
         22    1    3    3    0    0  0.13747570245E+01  0.91845813937E+01 -0.12989751379E+03  0.13022906964E+03  0.00000000000E+00 0.  1.
         22    1    3    3    0    0  0.14762930464E+03 -0.66931450520E+02 -0.20516905107E+03  0.26147384224E+03  0.00000000000E+00 0.  1.
</event>
<event>
 7    1  0.5977291E-006  0.3853814E+02  0.7818608E-02  0.1568161E+00
          2   -1    0    0  502    0  0.00000000000E+00  0.00000000000E+00  0.18293003335E+04  0.18293003335E+04  0.00000000000E+00 0. -1.
          1   -1    0    0  501    0 -0.00000000000E+00 -0.00000000000E+00 -0.21815886625E+03  0.21815886625E+03  0.00000000000E+00 0. -1.
         25    2    1    2    0    0 -0.21838173797E+02 -0.26946956567E+02 -0.37993949576E+02  0.13517960819E+03  0.12500776761E+03 0.  0.
          2    1    1    2  501    0  0.39045488594E+02  0.47663629795E+01 -0.12851882252E+03  0.13440370582E+03  0.00000000000E+00 0. -1.
          1    1    1    2  502    0 -0.17207314797E+02  0.22180593588E+02  0.17776542393E+04  0.17778758857E+04  0.00000000000E+00 0. -1.
         22    1    3    3    0    0  0.17558591469E+02 -0.32415677211E+02  0.35775349658E+02  0.51370768989E+02  0.00000000000E+00 0. -1.
         22    1    3    3    0    0 -0.39396765266E+02  0.54687206432E+01 -0.73769299234E+02  0.83808839202E+02  0.00000000000E+00 0. -1.
</event>
<event>
 7    1  0.5977291E-006  0.5283898E+02  0.7818608E-02  0.1458723E+00
          2   -1    0    0  502    0  0.00000000000E+00  0.00000000000E+00  0.15093802277E+04  0.15093802277E+04  0.00000000000E+00 0. -1.
          1   -1    0    0  501    0 -0.00000000000E+00 -0.00000000000E+00 -0.12328534159E+03  0.12328534159E+03  0.00000000000E+00 0. -1.
         25    2    1    2    0    0  0.34525868565E+01  0.70890637018E+01  0.10220445132E+04  0.10296900009E+04  0.12499734335E+03 0.  0.
          2    1    1    2  501    0  0.11018084912E+02  0.51677459908E+02 -0.11160709275E+03  0.12348320213E+03  0.00000000000E+00 0. -1.
          1    1    1    2  502    0 -0.14470671768E+02 -0.58766523610E+02  0.47565746568E+03  0.47949236626E+03  0.00000000000E+00 0. -1.
         22    1    3    3    0    0  0.63736078616E+02 -0.39054784650E+01  0.49973829333E+03  0.50380145126E+03  0.00000000000E+00 0.  1.
         22    1    3    3    0    0 -0.60283491760E+02  0.10994542167E+02  0.52230621989E+03  0.52588854967E+03  0.00000000000E+00 0.  1.
</event>
<event>
 7    1  0.5977291E-006  0.1895878E+03  0.7818608E-02  0.1260930E+00
          2   -1    0    0  502    0  0.00000000000E+00  0.00000000000E+00  0.14683151571E+04  0.14683151571E+04  0.00000000000E+00 0. -1.
          1   -1    0    0  501    0 -0.00000000000E+00 -0.00000000000E+00 -0.24329602986E+03  0.24329602986E+03  0.00000000000E+00 0. -1.
         25    2    1    2    0    0  0.55791611941E+02  0.21569491552E+03 -0.48603413977E+02  0.26004494746E+03  0.12499632918E+03 0.  0.
          2    1    1    2  501    0 -0.17300661749E+02 -0.16506809721E+03 -0.10090590195E+02  0.16627871067E+03  0.00000000000E+00 0. -1.
          1    1    1    2  502    0 -0.38490950192E+02 -0.50626818310E+02  0.12837131314E+04  0.12852875288E+04  0.00000000000E+00 0. -1.
         22    1    3    3    0    0  0.76195551779E+02  0.10492373755E+03  0.15257143259E+02  0.13056620249E+03  0.00000000000E+00 0.  1.
         22    1    3    3    0    0 -0.20403939838E+02  0.11077117797E+03 -0.63860557236E+02  0.12947874498E+03  0.00000000000E+00 0.  1.
</event>
<event>
 7    1  0.5977291E-006  0.1297737E+03  0.7818608E-02  0.1253713E+00
          2   -1    0    0  502    0  0.00000000000E+00  0.00000000000E+00  0.14518868895E+04  0.14518868895E+04  0.00000000000E+00 0. -1.
          1   -1    0    0  501    0 -0.00000000000E+00 -0.00000000000E+00 -0.36838618151E+02  0.36838618151E+02  0.00000000000E+00 0. -1.
         25    2    1    2    0    0 -0.87942648928E+02  0.72400858793E+02  0.30387728001E+03  0.34776853887E+03  0.12500304585E+03 0.  0.
          2    1    1    2  501    0 -0.52873384233E+02 -0.84608216076E+02  0.26694101187E+03  0.28497657589E+03  0.00000000000E+00 0. -1.
          1    1    1    2  502    0  0.14081603316E+03  0.12207357283E+02  0.84422997945E+03  0.85598039286E+03  0.00000000000E+00 0. -1.
         22    1    3    3    0    0  0.14357575135E+02  0.44271405547E+02  0.17372495586E+03  0.17985120962E+03  0.00000000000E+00 0.  1.
         22    1    3    3    0    0 -0.10230022406E+03  0.28129453245E+02  0.13015232415E+03  0.16791732925E+03  0.00000000000E+00 0.  1.
</event>
<event>
 7    1  0.5977291E-006  0.6908312E+02  0.7818608E-02  0.1391546E+00
          2   -1    0    0  502    0  0.00000000000E+00  0.00000000000E+00  0.15350746722E+04  0.15350746722E+04  0.00000000000E+00 0. -1.
          1   -1    0    0  501    0 -0.00000000000E+00 -0.00000000000E+00 -0.80109896697E+02  0.80109896697E+02  0.00000000000E+00 0. -1.
         25    2    1    2    0    0 -0.14915016988E+02 -0.65879120648E+01  0.69553628012E+02  0.14397390476E+03  0.12499967906E+03 0.  0.
          2    1    1    2  501    0 -0.39578178015E+02 -0.37890297364E+02 -0.24162763340E+02  0.59882768319E+02  0.00000000000E+00 0. -1.
          1    1    1    2  502    0  0.54493195004E+02  0.44478209428E+02  0.14095739108E+04  0.14113278958E+04  0.00000000000E+00 0. -1.
         22    1    3    3    0    0 -0.25436942464E+02  0.50767655702E+02  0.50323667941E+01  0.57006294590E+02  0.00000000000E+00 0. -1.
         22    1    3    3    0    0  0.10521925476E+02 -0.57355567767E+02  0.64521261218E+02  0.86967610170E+02  0.00000000000E+00 0. -1.
</event>
<event>
 7    1  0.5977291E-006  0.2081071E+02  0.7818608E-02  0.1733962E+00
          2   -1    0    0  502    0  0.00000000000E+00  0.00000000000E+00  0.15202288080E+03  0.15202288080E+03  0.00000000000E+00 0. -1.
          1   -1    0    0  501    0 -0.00000000000E+00 -0.00000000000E+00 -0.53977529291E+03  0.53977529291E+03  0.00000000000E+00 0. -1.
         25    2    1    2    0    0 -0.20174995848E+01  0.20177300773E+01  0.93428657768E+01  0.12538863530E+03  0.12500751650E+03 0.  0.
          2    1    1    2  501    0 -0.17589130648E+02 -0.10253078210E+02 -0.48019778800E+03  0.48062919046E+03  0.00000000000E+00 0. -1.
          1    1    1    2  502    0  0.19606630233E+02  0.82353481331E+01  0.83102510104E+02  0.85780347945E+02  0.00000000000E+00 0. -1.
         22    1    3    3    0    0  0.36805113085E+02 -0.48187427410E+02 -0.31051273582E+01  0.60714794947E+02  0.00000000000E+00 0.  1.
         22    1    3    3    0    0 -0.38822612670E+02  0.50205157487E+02  0.12447993135E+02  0.64673840352E+02  0.00000000000E+00 0.  1.
</event>
<event>
 7    1  0.5977291E-006  0.7613227E+02  0.7818608E-02  0.1497238E+00
          2   -1    0    0  502    0  0.00000000000E+00  0.00000000000E+00  0.92097264618E+03  0.92097264618E+03  0.00000000000E+00 0. -1.
          1   -1    0    0  501    0 -0.00000000000E+00 -0.00000000000E+00 -0.60182784603E+02  0.60182784603E+02  0.00000000000E+00 0. -1.
         25    2    1    2    0    0 -0.56982746994E+02  0.69004791769E+01  0.60270312737E+03  0.61819943071E+03  0.12499930527E+03 0.  0.
          2    1    1    2  501    0  0.73820513807E+02 -0.22058486677E+02 -0.23429652137E+02  0.80529458539E+02  0.00000000000E+00 0. -1.
          1    1    1    2  502    0 -0.16837766814E+02  0.15158007500E+02  0.28151638635E+03  0.28242654154E+03  0.00000000000E+00 0. -1.
         22    1    3    3    0    0 -0.69246754726E+02  0.36738564799E+01  0.60147453628E+03  0.60545869228E+03  0.00000000000E+00 0.  1.
         22    1    3    3    0    0  0.12264007732E+02  0.32266226970E+01  0.12285910888E+01  0.12740738430E+02  0.00000000000E+00 0.  1.
</event>
<event>
 7    1  0.5977291E-006  0.7962435E+02  0.7818608E-02  0.1364348E+00
          2   -1    0    0  502    0  0.00000000000E+00  0.00000000000E+00  0.32224325377E+03  0.32224325377E+03  0.00000000000E+00 0. -1.
          1   -1    0    0  501    0 -0.00000000000E+00 -0.00000000000E+00 -0.32837348803E+03  0.32837348803E+03  0.00000000000E+00 0. -1.
         25    2    1    2    0    0 -0.57082593068E+02  0.25627168142E+02  0.18266885432E+03  0.23001843114E+03  0.12500157658E+03 0.  0.
          2    1    1    2  501    0  0.22037499239E+00  0.59384171658E+02 -0.27837711616E+03  0.28464073358E+03  0.00000000000E+00 0. -1.
          1    1    1    2  502    0  0.56862218076E+02 -0.85011339801E+02  0.89578027582E+02  0.13595757708E+03  0.00000000000E+00 0. -1.
         22    1    3    3    0    0 -0.23800689209E+02 -0.42488685600E+02  0.12683945297E+03  0.13586761218E+03  0.00000000000E+00 0. -1.
         22    1    3    3    0    0 -0.33281903859E+02  0.68115853742E+02  0.55829401359E+02  0.94150818964E+02  0.00000000000E+00 0. -1.
</event>
<event>
 7    1  0.5977291E-006  0.1009733E+03  0.7818608E-02  0.1417315E+00
          2   -1    0    0  502    0  0.00000000000E+00  0.00000000000E+00  0.97967052419E+02  0.97967052419E+02  0.00000000000E+00 0. -1.
          1   -1    0    0  501    0 -0.00000000000E+00 -0.00000000000E+00 -0.38772546295E+03  0.38772546295E+03  0.00000000000E+00 0. -1.
         25    2    1    2    0    0 -0.63686933830E+02 -0.38004441549E+02 -0.25523774673E+03  0.29372011630E+03  0.12499934499E+03 0.  0.
          2    1    1    2  501    0 -0.28411914980E+02 -0.11384686922E+02 -0.74139079215E+02  0.80208796750E+02  0.00000000000E+00 0. -1.
          1    1    1    2  502    0  0.92098848810E+02  0.49389128472E+02  0.39618415411E+02  0.11176360232E+03  0.00000000000E+00 0. -1.
         22    1    3    3    0    0 -0.51800789793E+02 -0.35157368583E+02 -0.26848989964E+03  0.27569219902E+03  0.00000000000E+00 0.  1.
         22    1    3    3    0    0 -0.11886144037E+02 -0.28470729660E+01  0.13252152918E+02  0.18027917282E+02  0.00000000000E+00 0.  1.
</event>
<event>
 7    1  0.5977291E-006  0.8797304E+02  0.7818608E-02  0.1338280E+00
          2   -1    0    0  502    0  0.00000000000E+00  0.00000000000E+00  0.47165690146E+03  0.47165690146E+03  0.00000000000E+00 0. -1.
          1   -1    0    0  501    0 -0.00000000000E+00 -0.00000000000E+00 -0.54523363798E+03  0.54523363798E+03  0.00000000000E+00 0. -1.
         25    2    1    2    0    0  0.68581848688E+02 -0.41694670809E+02  0.60448774189E+02  0.16037888408E+03  0.12500166644E+03 0.  0.
          2    1    1    2  501    0 -0.86095855776E+02 -0.23087049741E+02 -0.48808036417E+03  0.49615315190E+03  0.00000000000E+00 0. -1.
          1    1    1    2  502    0  0.17514007087E+02  0.64781720550E+02  0.35405485346E+03  0.36035850347E+03  0.00000000000E+00 0. -1.
         22    1    3    3    0    0  0.16539038957E+02 -0.55230990409E+02  0.83829270902E+02  0.10174157838E+03  0.00000000000E+00 0. -1.
         22    1    3    3    0    0  0.52042809731E+02  0.13536319599E+02 -0.23380496713E+02  0.58637305699E+02  0.00000000000E+00 0. -1.
</event>
<event>
 7    1  0.5977291E-006  0.1240501E+03  0.7818608E-02  0.1261541E+00
          2   -1    0    0  502    0  0.00000000000E+00  0.00000000000E+00  0.63844720677E+03  0.63844720677E+03  0.00000000000E+00 0. -1.
          1   -1    0    0  501    0 -0.00000000000E+00 -0.00000000000E+00 -0.24885412017E+03  0.24885412017E+03  0.00000000000E+00 0. -1.
         25    2    1    2    0    0 -0.54822362452E+02 -0.27457251145E+02  0.19120372983E+03  0.23652275729E+03  0.12499902540E+03 0.  0.
          2    1    1    2  501    0  0.12553955095E+03 -0.38374803364E+02 -0.20088869214E+03  0.23997723020E+03  0.00000000000E+00 0. -1.
          1    1    1    2  502    0 -0.70717188501E+02  0.65832054509E+02  0.39927804890E+03  0.41080133944E+03  0.00000000000E+00 0. -1.
         22    1    3    3    0    0 -0.72247170906E+02 -0.41564266563E+02  0.19653432722E+03  0.21347829804E+03  0.00000000000E+00 0. -1.
         22    1    3    3    0    0  0.17424808454E+02  0.14107015418E+02 -0.53305973874E+01  0.23044459251E+02  0.00000000000E+00 0. -1.
</event>
<event>
 7    1  0.5977291E-006  0.8002802E+02  0.7818608E-02  0.1441901E+00
          2   -1    0    0  502    0  0.00000000000E+00  0.00000000000E+00  0.63481135443E+03  0.63481135443E+03  0.00000000000E+00 0. -1.
          1   -1    0    0  501    0 -0.00000000000E+00 -0.00000000000E+00 -0.16553228336E+03  0.16553228336E+03  0.00000000000E+00 0. -1.
         25    2    1    2    0    0 -0.62582825850E+02 -0.10459747835E+02 -0.52900827062E+02  0.14983114299E+03  0.12499942996E+03 0.  0.
          2    1    1    2  501    0 -0.16164673684E+02  0.27673155010E+02 -0.57192433557E+02  0.65559702865E+02  0.00000000000E+00 0. -1.
          1    1    1    2  502    0  0.78747499533E+02 -0.17213407176E+02  0.57937233169E+03  0.58495279194E+03  0.00000000000E+00 0. -1.
         22    1    3    3    0    0 -0.95833089666E+02 -0.27909245007E+02 -0.51349479876E+02  0.11224827890E+03  0.00000000000E+00 0.  1.
         22    1    3    3    0    0  0.33250263816E+02  0.17449497172E+02 -0.15513471854E+01  0.37582864094E+02  0.00000000000E+00 0.  1.
</event>
<event>
 7    1  0.5977291E-006  0.1862867E+03  0.7818608E-02  0.1191785E+00
          2   -1    0    0  502    0  0.00000000000E+00  0.00000000000E+00  0.12837891472E+03  0.12837891472E+03  0.00000000000E+00 0. -1.
          1   -1    0    0  501    0 -0.00000000000E+00 -0.00000000000E+00 -0.12870071745E+04  0.12870071745E+04  0.00000000000E+00 0. -1.
         25    2    1    2    0    0  0.71914336258E+02  0.63585770240E+02 -0.28536089298E+03  0.32599198426E+03  0.12500045049E+03 0.  0.
          2    1    1    2  501    0  0.50984403253E+02  0.12263939528E+03 -0.85529792213E+03  0.86554859266E+03  0.00000000000E+00 0. -1.
          1    1    1    2  502    0 -0.12289873951E+03 -0.18622516552E+03 -0.17969444691E+02  0.22384551233E+03  0.00000000000E+00 0. -1.
         22    1    3    3    0    0  0.94941545324E+02  0.69971856621E+02 -0.27632894423E+03  0.30044574080E+03  0.00000000000E+00 0.  1.
         22    1    3    3    0    0 -0.23027209067E+02 -0.63860863808E+01 -0.90319487519E+01  0.25546243460E+02  0.00000000000E+00 0.  1.
</event>
<event>
 7    1  0.5977291E-006  0.1049687E+03  0.7818608E-02  0.1463211E+00
          2   -1    0    0  502    0  0.00000000000E+00  0.00000000000E+00  0.79770792573E+03  0.79770792573E+03  0.00000000000E+00 0. -1.
          1   -1    0    0  501    0 -0.00000000000E+00 -0.00000000000E+00 -0.29221666168E+03  0.29221666168E+03  0.00000000000E+00 0. -1.
         25    2    1    2    0    0 -0.51304221985E+02 -0.10096210722E+03 -0.70668119545E+02  0.18287946427E+03  0.12500178016E+03 0.  0.
          2    1    1    2  501    0  0.61377800564E+02  0.82655377834E+02 -0.14926153187E+03  0.18132333215E+03  0.00000000000E+00 0. -1.
          1    1    1    2  502    0 -0.10073578580E+02  0.18306729391E+02  0.72542091546E+03  0.72572179099E+03  0.00000000000E+00 0. -1.
         22    1    3    3    0    0  0.95986785194E+01 -0.21671323942E+02  0.31835723694E+02  0.39689976239E+02  0.00000000000E+00 0.  1.
         22    1    3    3    0    0 -0.60902900504E+02 -0.79290783282E+02 -0.10250384324E+03  0.14318948803E+03  0.00000000000E+00 0.  1.
</event>
<event>
 7    1  0.5977291E-006  0.5061001E+02  0.7818608E-02  0.1481783E+00
          2   -1    0    0  502    0  0.00000000000E+00  0.00000000000E+00  0.83062794949E+03  0.83062794949E+03  0.00000000000E+00 0. -1.
          1   -1    0    0  501    0 -0.00000000000E+00 -0.00000000000E+00 -0.10437175525E+04  0.10437175525E+04  0.00000000000E+00 0. -1.
         25    2    1    2    0    0  0.59237853372E+02 -0.49224578897E+02  0.13143935300E+02  0.14741168035E+03  0.12500103211E+03 0.  0.
          2    1    1    2  501    0 -0.37781182268E+02  0.36565294515E+01 -0.97536889325E+03  0.97610719998E+03  0.00000000000E+00 0. -1.
          1    1    1    2  502    0 -0.21456671104E+02  0.45568049446E+02  0.74913535490E+03  0.75082662169E+03  0.00000000000E+00 0. -1.
         22    1    3    3    0    0  0.15064859320E+02 -0.84828170270E+02  0.24457262443E+02  0.89559623402E+02  0.00000000000E+00 0. -1.
         22    1    3    3    0    0  0.44172994052E+02  0.35603591373E+02 -0.11313327143E+02  0.57852056949E+02  0.00000000000E+00 0. -1.
</event>
<event>
 7    1  0.5977291E-006  0.4414271E+02  0.7818608E-02  0.1508451E+00
          2   -1    0    0  502    0  0.00000000000E+00  0.00000000000E+00  0.10100065301E+04  0.10100065301E+04  0.00000000000E+00 0. -1.
          1   -1    0    0  501    0 -0.00000000000E+00 -0.00000000000E+00 -0.43431897963E+03  0.43431897963E+03  0.00000000000E+00 0. -1.
         25    2    1    2    0    0  0.71266930390E+02  0.23709256478E+00  0.62486814980E+02  0.15687096996E+03  0.12499947036E+03 0.  0.
          2    1    1    2  501    0 -0.40031176690E+02  0.18034101959E+02 -0.38551671459E+03  0.38800884161E+03  0.00000000000E+00 0. -1.
          1    1    1    2  502    0 -0.31235753700E+02 -0.18271194524E+02  0.89871745003E+03  0.89944569811E+03  0.00000000000E+00 0. -1.
         22    1    3    3    0    0  0.27949909756E+00 -0.44974211085E+02  0.56893235412E+02  0.72523086105E+02  0.00000000000E+00 0.  1.
         22    1    3    3    0    0  0.70987431292E+02  0.45211303650E+02  0.55935795679E+01  0.84347883860E+02  0.00000000000E+00 0.  1.
</event>
<event>
 7    1  0.5977291E-006  0.8463636E+02  0.7818608E-02  0.1363272E+00
          2   -1    0    0  502    0  0.00000000000E+00  0.00000000000E+00  0.88713639356E+03  0.88713639356E+03  0.00000000000E+00 0. -1.
          1   -1    0    0  501    0 -0.00000000000E+00 -0.00000000000E+00 -0.51223419701E+03  0.51223419701E+03  0.00000000000E+00 0. -1.
         25    2    1    2    0    0  0.28535980946E+02 -0.49934396770E+02 -0.72238629485E+02  0.15540288059E+03  0.12499555799E+03 0.  0.
          2    1    1    2  501    0 -0.82583432234E+02  0.33911591765E+02 -0.39245526911E+03  0.40248125122E+03  0.00000000000E+00 0. -1.
          1    1    1    2  502    0  0.54047451289E+02  0.16022805006E+02  0.83959609514E+03  0.84148645875E+03  0.00000000000E+00 0. -1.
         22    1    3    3    0    0  0.54851557995E+02 -0.40040328617E+01  0.11641657244E+02  0.56216135380E+02  0.00000000000E+00 0.  1.
         22    1    3    3    0    0 -0.26315577050E+02 -0.45930363909E+02 -0.83880286730E+02  0.99186745214E+02  0.00000000000E+00 0.  1.
</event>
<event>
 7    1  0.5977291E-006  0.7414765E+02  0.7818608E-02  0.1426455E+00
          2   -1    0    0  502    0  0.00000000000E+00  0.00000000000E+00  0.29007255668E+03  0.29007255668E+03  0.00000000000E+00 0. -1.
          1   -1    0    0  501    0 -0.00000000000E+00 -0.00000000000E+00 -0.15330014767E+03  0.15330014767E+03  0.00000000000E+00 0. -1.
         25    2    1    2    0    0  0.36389283948E+02 -0.17935279933E+02  0.56506327480E+02  0.14305401949E+03  0.12500253275E+03 0.  0.
          2    1    1    2  501    0 -0.67219065195E+02  0.41591209406E+02 -0.93399299478E+02  0.12235873720E+03  0.00000000000E+00 0. -1.
          1    1    1    2  502    0  0.30829781247E+02 -0.23655929473E+02  0.17366538100E+03  0.17795994766E+03  0.00000000000E+00 0. -1.
         22    1    3    3    0    0  0.52737400309E+02 -0.18290824942E+02 -0.24104476615E+02  0.60801426475E+02  0.00000000000E+00 0. -1.
         22    1    3    3    0    0 -0.16348116362E+02  0.35554500913E+00  0.80610804095E+02  0.82252593015E+02  0.00000000000E+00 0. -1.
</event>
<event>
 7    1  0.5977291E-006  0.7212877E+02  0.7818608E-02  0.1436504E+00
          2   -1    0    0  502    0  0.00000000000E+00  0.00000000000E+00  0.46224329405E+04  0.46224329405E+04  0.00000000000E+00 0. -1.
          1   -1    0    0  501    0 -0.00000000000E+00 -0.00000000000E+00 -0.46590077483E+02  0.46590077483E+02  0.00000000000E+00 0. -1.
         25    2    1    2    0    0  0.70508711768E+02  0.63063317160E+02  0.23256138895E+04  0.23308909100E+04  0.12499604204E+03 0.  0.
          2    1    1    2  501    0 -0.66972413743E+02 -0.26209192301E+02 -0.14278580085E+02  0.73321919049E+02  0.00000000000E+00 0. -1.
          1    1    1    2  502    0 -0.35362980241E+01 -0.36854124859E+02  0.22645075536E+04  0.22648101890E+04  0.00000000000E+00 0. -1.
         22    1    3    3    0    0  0.50393587526E+02 -0.20881857620E+02  0.14516115223E+04  0.14526360788E+04  0.00000000000E+00 0. -1.
         22    1    3    3    0    0  0.20115124241E+02  0.83945174780E+02  0.87400236723E+03  0.87825483119E+03  0.00000000000E+00 0. -1.
</event>
<event>
 7    1  0.5977291E-006  0.1485807E+03  0.7818608E-02  0.1361018E+00
          2   -1    0    0  502    0  0.00000000000E+00  0.00000000000E+00  0.87445796965E+03  0.87445796965E+03  0.00000000000E+00 0. -1.
          1   -1    0    0  501    0 -0.00000000000E+00 -0.00000000000E+00 -0.65170854158E+03  0.65170854158E+03  0.00000000000E+00 0. -1.
         25    2    1    2    0    0  0.10842152520E+03 -0.72577312249E+02 -0.49947857433E+03  0.53115645915E+03  0.12500257797E+03 0.  0.
          2    1    1    2  501    0  0.28942198490E+02  0.15270206359E+02 -0.12786488401E+03  0.13198582734E+03  0.00000000000E+00 0. -1.
          1    1    1    2  502    0 -0.13736372369E+03  0.57307105890E+02  0.85009288641E+03  0.86302422475E+03  0.00000000000E+00 0. -1.
         22    1    3    3    0    0 -0.14143584555E+02 -0.49403578838E+02 -0.96716569875E+02  0.10952100015E+03  0.00000000000E+00 0.  1.
         22    1    3    3    0    0  0.12256510975E+03 -0.23173733412E+02 -0.40276200446E+03  0.42163545900E+03  0.00000000000E+00 0.  1.
</event>
<event>
 7    1  0.5977291E-006  0.8703938E+02  0.7818608E-02  0.1372284E+00
          2   -1    0    0  502    0  0.00000000000E+00  0.00000000000E+00  0.11802352859E+04  0.11802352859E+04  0.00000000000E+00 0. -1.
          1   -1    0    0  501    0 -0.00000000000E+00 -0.00000000000E+00 -0.36598681585E+02  0.36598681585E+02  0.00000000000E+00 0. -1.
         25    2    1    2    0    0  0.17281292206E+02 -0.11613461241E+03  0.28656374842E+03  0.33396006719E+03  0.12499861324E+03 0.  0.
          2    1    1    2  501    0 -0.34624649128E+02  0.68319724646E+02  0.10981612201E+03  0.13388813150E+03  0.00000000000E+00 0. -1.
          1    1    1    2  502    0  0.17343356922E+02  0.47814887760E+02  0.74725673389E+03  0.74898576880E+03  0.00000000000E+00 0. -1.
         22    1    3    3    0    0 -0.40791863576E+02 -0.52848386216E+02  0.53434946058E+02  0.85511528578E+02  0.00000000000E+00 0. -1.
         22    1    3    3    0    0  0.58073155781E+02 -0.63286226190E+02  0.23312880237E+03  0.24844853862E+03  0.00000000000E+00 0. -1.
</event>
<event>
 7    1  0.5977291E-006  0.7131684E+02  0.7818608E-02  0.1519469E+00
          2   -1    0    0  502    0  0.00000000000E+00  0.00000000000E+00  0.80130144803E+02  0.80130144803E+02  0.00000000000E+00 0. -1.
          1   -1    0    0  501    0 -0.00000000000E+00 -0.00000000000E+00 -0.18608744563E+04  0.18608744563E+04  0.00000000000E+00 0. -1.
         25    2    1    2    0    0 -0.43037437416E+02 -0.73637728287E+02 -0.36602565193E+03  0.39607398797E+03  0.12500036012E+03 0.  0.
          2    1    1    2  501    0  0.19599162634E+02  0.69506514743E+01 -0.14605426838E+04  0.14606907167E+04  0.00000000000E+00 0. -1.
          1    1    1    2  502    0  0.23438274782E+02  0.66687076813E+02  0.45824024275E+02  0.84239896363E+02  0.00000000000E+00 0. -1.
         22    1    3    3    0    0 -0.32500954041E+02 -0.82222849840E+02 -0.37116014512E+03  0.38154522979E+03  0.00000000000E+00 0. -1.
         22    1    3    3    0    0 -0.10536483374E+02  0.85851215535E+01  0.51344931893E+01  0.14528758182E+02  0.00000000000E+00 0. -1.
</event>
<event>
 7    1  0.5977291E-006  0.1792048E+03  0.7818608E-02  0.1379397E+00
          2   -1    0    0  502    0  0.00000000000E+00  0.00000000000E+00  0.18620677580E+04  0.18620677580E+04  0.00000000000E+00 0. -1.
          1   -1    0    0  501    0 -0.00000000000E+00 -0.00000000000E+00 -0.72261481721E+03  0.72261481721E+03  0.00000000000E+00 0. -1.
         25    2    1    2    0    0 -0.18798215327E+03 -0.44971629642E+02  0.48125945759E+03  0.53347499757E+03  0.12500068036E+03 0.  0.
          2    1    1    2  501    0  0.16905106669E+03  0.58560533741E+02 -0.68491569487E+03  0.70789625535E+03  0.00000000000E+00 0. -1.
          1    1    1    2  502    0  0.18931086582E+02 -0.13588904099E+02  0.13431091781E+04  0.13433113223E+04  0.00000000000E+00 0. -1.
         22    1    3    3    0    0 -0.18475549405E+03 -0.46237851817E+02  0.32149594079E+03  0.37367388385E+03  0.00000000000E+00 0.  1.
         22    1    3    3    0    0 -0.32266592229E+01  0.12662221750E+01  0.15976351679E+03  0.15980111372E+03  0.00000000000E+00 0.  1.
</event>
<event>
 7    1  0.5977291E-006  0.8493977E+02  0.7818608E-02  0.1409134E+00
          2   -1    0    0  502    0  0.00000000000E+00  0.00000000000E+00  0.13914500060E+04  0.13914500060E+04  0.00000000000E+00 0. -1.
          1   -1    0    0  501    0 -0.00000000000E+00 -0.00000000000E+00 -0.37430872869E+03  0.37430872869E+03  0.00000000000E+00 0. -1.
         25    2    1    2    0    0 -0.30776973771E+02  0.57220190299E+02  0.57393031387E+02  0.15212002052E+03  0.12500067319E+03 0.  0.
          2    1    1    2  501    0  0.50179002079E+01 -0.86199100476E+02 -0.32094587448E+03  0.33235781711E+03  0.00000000000E+00 0. -1.
          1    1    1    2  502    0  0.25759073563E+02  0.28978910177E+02  0.12806941204E+04  0.12812808971E+04  0.00000000000E+00 0. -1.
         22    1    3    3    0    0  0.70837209043E+01  0.90296437235E+02  0.35401554853E+02  0.97246571997E+02  0.00000000000E+00 0. -1.
         22    1    3    3    0    0 -0.37860694675E+02 -0.33076246936E+02  0.21991476534E+02  0.54873448523E+02  0.00000000000E+00 0. -1.
</event>
<event>
 7    1  0.5977291E-006  0.6354180E+02  0.7818608E-02  0.1394701E+00
          2   -1    0    0  502    0  0.00000000000E+00  0.00000000000E+00  0.14545549587E+03  0.14545549587E+03  0.00000000000E+00 0. -1.
          1   -1    0    0  501    0 -0.00000000000E+00 -0.00000000000E+00 -0.23122904711E+03  0.23122904711E+03  0.00000000000E+00 0. -1.
         25    2    1    2    0    0  0.69017935771E+01 -0.12651618503E+02 -0.24544171170E+02  0.12820117872E+03  0.12500171071E+03 0.  0.
          2    1    1    2  501    0  0.59479519761E+02  0.22355024135E+02 -0.13473455212E+03  0.14896630462E+03  0.00000000000E+00 0. -1.
          1    1    1    2  502    0 -0.66381313338E+02 -0.97034056324E+01  0.73505172053E+02  0.99517059643E+02  0.00000000000E+00 0. -1.
         22    1    3    3    0    0 -0.26181786065E+02  0.45784316535E+02 -0.30262184274E+02  0.60806984460E+02  0.00000000000E+00 0. -1.
         22    1    3    3    0    0  0.33083579642E+02 -0.58435935038E+02  0.57180131036E+01  0.67394194257E+02  0.00000000000E+00 0. -1.
</event>
<event>
 7    1  0.5977291E-006  0.6420931E+02  0.7818608E-02  0.1471322E+00
          2   -1    0    0  502    0  0.00000000000E+00  0.00000000000E+00  0.22195364930E+03  0.22195364930E+03  0.00000000000E+00 0. -1.
          1   -1    0    0  501    0 -0.00000000000E+00 -0.00000000000E+00 -0.42756544596E+03  0.42756544596E+03  0.00000000000E+00 0. -1.
         25    2    1    2    0    0 -0.88562494883E+02 -0.30812227142E+02 -0.28551474396E+03  0.32547879101E+03  0.12500026215E+03 0.  0.
          2    1    1    2  501    0  0.32207309406E+02  0.10429125848E+01 -0.11476564970E+03  0.11920382879E+03  0.00000000000E+00 0. -1.
          1    1    1    2  502    0  0.56355185477E+02  0.29769314557E+02  0.19466859701E+03  0.20483647546E+03  0.00000000000E+00 0. -1.
         22    1    3    3    0    0  0.14334190572E+02 -0.49293500488E+01 -0.16175241558E+03  0.16246110752E+03  0.00000000000E+00 0. -1.
         22    1    3    3    0    0 -0.10289668546E+03 -0.25882877093E+02 -0.12376232839E+03  0.16301768350E+03  0.00000000000E+00 0. -1.
</event>
<event>
 7    1  0.5977291E-006  0.3058435E+02  0.7818608E-02  0.1620428E+00
          2   -1    0    0  502    0  0.00000000000E+00  0.00000000000E+00  0.29535488963E+03  0.29535488963E+03  0.00000000000E+00 0. -1.
          1   -1    0    0  501    0 -0.00000000000E+00 -0.00000000000E+00 -0.15070951113E+04  0.15070951113E+04  0.00000000000E+00 0. -1.
         25    2    1    2    0    0  0.53724364479E+02 -0.13390133882E+02 -0.39058756680E+02  0.14218240477E+03  0.12499858691E+03 0.  0.
          2    1    1    2  501    0 -0.30412029237E+02  0.24147111159E+01 -0.14156288966E+04  0.14159575895E+04  0.00000000000E+00 0. -1.
          1    1    1    2  502    0 -0.23312335242E+02  0.10975422766E+02  0.24294743156E+03  0.24431000672E+03  0.00000000000E+00 0. -1.
         22    1    3    3    0    0  0.14216260310E+02  0.11664141222E+02  0.43535123595E+02  0.47259509456E+02  0.00000000000E+00 0.  1.
         22    1    3    3    0    0  0.39508104169E+02 -0.25054275104E+02 -0.82593880275E+02  0.94922895315E+02  0.00000000000E+00 0.  1.
</event>
<event>
 7    1  0.5977291E-006  0.9359950E+02  0.7818608E-02  0.1452348E+00
          2   -1    0    0  502    0  0.00000000000E+00  0.00000000000E+00  0.55024670258E+03  0.55024670258E+03  0.00000000000E+00 0. -1.
          1   -1    0    0  501    0 -0.00000000000E+00 -0.00000000000E+00 -0.76446868457E+03  0.76446868457E+03  0.00000000000E+00 0. -1.
         25    2    1    2    0    0 -0.84056154260E+02  0.50189621506E+02  0.33847264535E+03  0.37386249698E+03  0.12499999929E+03 0.  0.
          2    1    1    2  501    0 -0.45978385318E+01 -0.24943486663E+02 -0.73559769954E+03  0.73603484511E+03  0.00000000000E+00 0. -1.
          1    1    1    2  502    0  0.88653992792E+02 -0.25246134843E+02  0.18290307220E+03  0.20481804507E+03  0.00000000000E+00 0. -1.
         22    1    3    3    0    0  0.45680598390E+01  0.40997916288E+02  0.22913321441E+03  0.23281693722E+03  0.00000000000E+00 0. -1.
         22    1    3    3    0    0 -0.88624214099E+02  0.91917052175E+01  0.10933943094E+03  0.14104555976E+03  0.00000000000E+00 0. -1.
</event>
<event>
 7    1  0.5977291E-006  0.5387432E+02  0.7818608E-02  0.1451813E+00
          2   -1    0    0  502    0  0.00000000000E+00  0.00000000000E+00  0.59163304894E+03  0.59163304894E+03  0.00000000000E+00 0. -1.
          1   -1    0    0  501    0 -0.00000000000E+00 -0.00000000000E+00 -0.13780927137E+03  0.13780927137E+03  0.00000000000E+00 0. -1.
         25    2    1    2    0    0  0.13259731223E+02  0.14003770850E+02  0.26194017307E+03  0.29088360953E+03  0.12501477495E+03 0.  0.
          2    1    1    2  501    0  0.42879298795E+02  0.10885591911E+02 -0.11624071968E+03  0.12437457653E+03  0.00000000000E+00 0. -1.
          1    1    1    2  502    0 -0.56139030019E+02 -0.24889362761E+02  0.30812432417E+03  0.31418413425E+03  0.00000000000E+00 0. -1.
         22    1    3    3    0    0  0.63250406025E+01  0.44448296054E+01  0.27393901109E+03  0.27404806958E+03  0.00000000000E+00 0.  1.
         22    1    3    3    0    0  0.69346906208E+01  0.95589412450E+01 -0.11998838011E+02  0.16835539948E+02  0.00000000000E+00 0.  1.
</event>
<event>
 7    1  0.5977291E-006  0.6396603E+02  0.7818608E-02  0.1396304E+00
          2   -1    0    0  502    0  0.00000000000E+00  0.00000000000E+00  0.90546440479E+03  0.90546440479E+03  0.00000000000E+00 0. -1.
          1   -1    0    0  501    0 -0.00000000000E+00 -0.00000000000E+00 -0.77396161281E+02  0.77396161281E+02  0.00000000000E+00 0. -1.
         25    2    1    2    0    0  0.27564262097E+02  0.76715462717E+01  0.48207553178E+03  0.49883900794E+03  0.12499958533E+03 0.  0.
          2    1    1    2  501    0  0.38817837112E+02  0.41695627522E+02 -0.52235756024E+02  0.77291164048E+02  0.00000000000E+00 0. -1.
          1    1    1    2  502    0 -0.66382099210E+02 -0.49367173794E+02  0.39822846776E+03  0.40673039409E+03  0.00000000000E+00 0. -1.
         22    1    3    3    0    0 -0.75269526525E+01  0.25923979393E+02  0.16609041005E+02  0.31694920207E+02  0.00000000000E+00 0.  1.
         22    1    3    3    0    0  0.35091214750E+02 -0.18252433121E+02  0.46546649077E+03  0.46714408773E+03  0.00000000000E+00 0.  1.
</event>
<event>
 7    1  0.5977291E-006  0.1716912E+03  0.7818608E-02  0.1187918E+00
          2   -1    0    0  502    0  0.00000000000E+00  0.00000000000E+00  0.59287842867E+03  0.59287842867E+03  0.00000000000E+00 0. -1.
          1   -1    0    0  501    0 -0.00000000000E+00 -0.00000000000E+00 -0.87627201711E+03  0.87627201711E+03  0.00000000000E+00 0. -1.
         25    2    1    2    0    0 -0.12214179245E+03 -0.17101347372E+02 -0.23354293813E+03  0.29219659341E+03  0.12500188681E+03 0.  0.
          2    1    1    2  501    0  0.66061957899E+02  0.17937560770E+03 -0.58473643098E+03  0.61518817010E+03  0.00000000000E+00 0. -1.
          1    1    1    2  502    0  0.56079834548E+02 -0.16227426033E+03  0.53488578067E+03  0.56176568227E+03  0.00000000000E+00 0. -1.
         22    1    3    3    0    0 -0.10115958626E+03 -0.61667520040E+02 -0.12098731952E+03  0.16933421510E+03  0.00000000000E+00 0. -1.
         22    1    3    3    0    0 -0.20982206189E+02  0.44566172668E+02 -0.11255561861E+03  0.12286237831E+03  0.00000000000E+00 0. -1.
</event>
<event>
 7    1  0.5977291E-006  0.9590228E+02  0.7818608E-02  0.1292998E+00
          2   -1    0    0  502    0  0.00000000000E+00  0.00000000000E+00  0.29102435735E+04  0.29102435735E+04  0.00000000000E+00 0. -1.
          1   -1    0    0  501    0 -0.00000000000E+00 -0.00000000000E+00 -0.16626517390E+02  0.16626517390E+02  0.00000000000E+00 0. -1.
         25    2    1    2    0    0  0.15490703127E+02  0.14999332578E+02  0.11492913362E+04  0.11562705400E+04  0.12500417749E+03 0.  0.
          2    1    1    2  501    0 -0.69741484754E+02 -0.89943846509E+02  0.26530072834E+03  0.28868364464E+03  0.00000000000E+00 0. -1.
          1    1    1    2  502    0  0.54250781627E+02  0.74944513931E+02  0.14790249916E+04  0.14819159062E+04  0.00000000000E+00 0. -1.
         22    1    3    3    0    0 -0.44530304647E+00 -0.14106207275E+02  0.12085559742E+02  0.18580746292E+02  0.00000000000E+00 0. -1.
         22    1    3    3    0    0  0.15936006173E+02  0.29105539852E+02  0.11372057764E+04  0.11376897937E+04  0.00000000000E+00 0. -1.
</event>
<event>
 7    1  0.5977291E-006  0.1202175E+03  0.7818608E-02  0.1326471E+00
          2   -1    0    0  502    0  0.00000000000E+00  0.00000000000E+00  0.19243142559E+04  0.19243142559E+04  0.00000000000E+00 0. -1.
          1   -1    0    0  501    0 -0.00000000000E+00 -0.00000000000E+00 -0.19543621820E+03  0.19543621820E+03  0.00000000000E+00 0. -1.
         25    2    1    2    0    0 -0.53585983412E+02 -0.15070808763E+03  0.75838508642E+03  0.78508436048E+03  0.12500051385E+03 0.  0.
          2    1    1    2  501    0 -0.44131893603E+01  0.54284124834E+02 -0.17519519110E+03  0.18346552110E+03  0.00000000000E+00 0. -1.
          1    1    1    2  502    0  0.57999172772E+02  0.96423962791E+02  0.11456881424E+04  0.11512005925E+04  0.00000000000E+00 0. -1.
         22    1    3    3    0    0  0.79704368302E+01 -0.11676833648E+01 -0.14899014599E+01  0.81921397733E+01  0.00000000000E+00 0. -1.
         22    1    3    3    0    0 -0.61556420242E+02 -0.14954040426E+03  0.75987498788E+03  0.77689222070E+03  0.00000000000E+00 0. -1.
</event>
<event>
 7    1  0.5977291E-006  0.1054772E+03  0.7818608E-02  0.1324145E+00
          2   -1    0    0  502    0  0.00000000000E+00  0.00000000000E+00  0.71745565575E+02  0.71745565575E+02  0.00000000000E+00 0. -1.
          1   -1    0    0  501    0 -0.00000000000E+00 -0.00000000000E+00 -0.20953885743E+04  0.20953885743E+04  0.00000000000E+00 0. -1.
         25    2    1    2    0    0  0.10418230484E+03 -0.10342929411E+03 -0.45839329787E+03  0.49729290855E+03  0.12499699934E+03 0.  0.
          2    1    1    2  501    0 -0.94267165903E+02  0.40842762198E+02 -0.15960724849E+04  0.15993754428E+04  0.00000000000E+00 0. -1.
          1    1    1    2  502    0 -0.99151389326E+01  0.62586531914E+02  0.30822774061E+02  0.70465788563E+02  0.00000000000E+00 0. -1.
         22    1    3    3    0    0  0.67153487595E+01 -0.56106406511E+02 -0.52304811229E+02  0.76998818421E+02  0.00000000000E+00 0.  1.
         22    1    3    3    0    0  0.97466956076E+02 -0.47322887600E+02 -0.40608848664E+03  0.42029409013E+03  0.00000000000E+00 0.  1.
</event>
<event>
 7    1  0.5977291E-006  0.1007942E+03  0.7818608E-02  0.1315530E+00
          2   -1    0    0  502    0  0.00000000000E+00  0.00000000000E+00  0.14883117779E+04  0.14883117779E+04  0.00000000000E+00 0. -1.
          1   -1    0    0  501    0 -0.00000000000E+00 -0.00000000000E+00 -0.58264367718E+03  0.58264367718E+03  0.00000000000E+00 0. -1.
         25    2    1    2    0    0  0.13236630433E+03 -0.51066544474E+02 -0.12788720068E+03  0.22827221233E+03  0.12499774532E+03 0.  0.
          2    1    1    2  501    0 -0.64324313850E+02  0.73413017454E+02 -0.39776835353E+03  0.40956898265E+03  0.00000000000E+00 0. -1.
          1    1    1    2  502    0 -0.68041990483E+02 -0.22346472980E+02  0.14313236549E+04  0.14331142600E+04  0.00000000000E+00 0. -1.
         22    1    3    3    0    0 -0.70821294570E+01 -0.15054170963E+02  0.17136364813E+02  0.23883877826E+02  0.00000000000E+00 0.  1.
         22    1    3    3    0    0  0.13944843379E+03 -0.36012373510E+02 -0.14502356549E+03  0.20438833450E+03  0.00000000000E+00 0.  1.
</event>
<event>
 7    1  0.5977291E-006  0.1472303E+03  0.7818608E-02  0.1375159E+00
          2   -1    0    0  502    0  0.00000000000E+00  0.00000000000E+00  0.19067271679E+03  0.19067271679E+03  0.00000000000E+00 0. -1.
          1   -1    0    0  501    0 -0.00000000000E+00 -0.00000000000E+00 -0.34366776889E+04  0.34366776889E+04  0.00000000000E+00 0. -1.
         25    2    1    2    0    0 -0.17157786423E+03 -0.33803475300E+02 -0.16273301023E+03  0.26960584732E+03  0.12499456730E+03 0.  0.
          2    1    1    2  501    0  0.14472398739E+03  0.21919636552E+02 -0.32172540151E+04  0.32205820748E+04  0.00000000000E+00 0. -1.
          1    1    1    2  502    0  0.26853876841E+02  0.11883838747E+02  0.13398205319E+03  0.13716248358E+03  0.00000000000E+00 0. -1.
         22    1    3    3    0    0 -0.31364091366E+02 -0.63575035459E+02 -0.43628319184E+02  0.83240144135E+02  0.00000000000E+00 0. -1.
         22    1    3    3    0    0 -0.14021377286E+03  0.29771560159E+02 -0.11910469105E+03  0.18636570319E+03  0.00000000000E+00 0. -1.
</event>
<event>
 7    1  0.5977291E-006  0.7951914E+02  0.7818608E-02  0.1438620E+00
          2   -1    0    0  502    0  0.00000000000E+00  0.00000000000E+00  0.18724618755E+03  0.18724618755E+03  0.00000000000E+00 0. -1.
          1   -1    0    0  501    0 -0.00000000000E+00 -0.00000000000E+00 -0.16455271090E+04  0.16455271090E+04  0.00000000000E+00 0. -1.
         25    2    1    2    0    0 -0.45499890028E+02  0.37788341176E+02 -0.63148415837E+03  0.64644670395E+03  0.12499159994E+03 0.  0.
          2    1    1    2  501    0 -0.30404253257E+02 -0.12966785181E+02 -0.99740508525E+03  0.99795263426E+03  0.00000000000E+00 0. -1.
          1    1    1    2  502    0  0.75904143285E+02 -0.24821555995E+02  0.17060832214E+03  0.18837395837E+03  0.00000000000E+00 0. -1.
         22    1    3    3    0    0  0.93836868283E+01  0.72653834115E+02 -0.33501344148E+03  0.34292949591E+03  0.00000000000E+00 0.  1.
         22    1    3    3    0    0 -0.54883576856E+02 -0.34865492939E+02 -0.29647071689E+03  0.30351720805E+03  0.00000000000E+00 0.  1.
</event>
<event>
 7    1  0.5977291E-006  0.1973331E+03  0.7818608E-02  0.1221715E+00
          2   -1    0    0  502    0  0.00000000000E+00  0.00000000000E+00  0.28929879384E+03  0.28929879384E+03  0.00000000000E+00 0. -1.
          1   -1    0    0  501    0 -0.00000000000E+00 -0.00000000000E+00 -0.15324087761E+04  0.15324087761E+04  0.00000000000E+00 0. -1.
         25    2    1    2    0    0 -0.19098047318E+03  0.20939549314E+03  0.30180392131E+02  0.31121578229E+03  0.12499757356E+03 0.  0.
          2    1    1    2  501    0  0.12058882393E+03 -0.15184928118E+03 -0.13665544269E+04  0.13802430476E+04  0.00000000000E+00 0. -1.
          1    1    1    2  502    0  0.70391649252E+02 -0.57546211963E+02  0.93264052528E+02  0.13024874007E+03  0.00000000000E+00 0. -1.
         22    1    3    3    0    0 -0.67544677670E+02  0.69494410564E+01  0.29683696127E+02  0.74106005345E+02  0.00000000000E+00 0.  1.
         22    1    3    3    0    0 -0.12343579551E+03  0.20244605208E+03  0.49669600344E+00  0.23710977695E+03  0.00000000000E+00 0.  1.
</event>
<event>
 7    1  0.5977291E-006  0.4713095E+02  0.7818608E-02  0.1536711E+00
          2   -1    0    0  502    0  0.00000000000E+00  0.00000000000E+00  0.13714166243E+02  0.13714166243E+02  0.00000000000E+00 0. -1.
          1   -1    0    0  501    0 -0.00000000000E+00 -0.00000000000E+00 -0.34929003493E+04  0.34929003493E+04  0.00000000000E+00 0. -1.
         25    2    1    2    0    0 -0.16142537228E+02 -0.27762310303E+02 -0.13973737297E+04  0.14033207615E+04  0.12499796740E+03 0.  0.
          2    1    1    2  501    0  0.19674526230E+02 -0.20028056039E+02 -0.20385200447E+04  0.20387133646E+04  0.00000000000E+00 0. -1.
          1    1    1    2  502    0 -0.35319890023E+01  0.47790366341E+02 -0.43292408628E+02  0.64580389486E+02  0.00000000000E+00 0. -1.
         22    1    3    3    0    0  0.49228262633E+02  0.11844797314E+02 -0.68145517210E+03  0.68333364666E+03  0.00000000000E+00 0. -1.
         22    1    3    3    0    0 -0.65370799861E+02 -0.39607107617E+02 -0.71591855761E+03  0.71998711487E+03  0.00000000000E+00 0. -1.
</event>
<event>
 7    1  0.5977291E-006  0.6706901E+02  0.7818608E-02  0.1505824E+00
          2   -1    0    0  502    0  0.00000000000E+00  0.00000000000E+00  0.76395714169E+03  0.76395714169E+03  0.00000000000E+00 0. -1.
          1   -1    0    0  501    0 -0.00000000000E+00 -0.00000000000E+00 -0.50271618523E+03  0.50271618523E+03  0.00000000000E+00 0. -1.
         25    2    1    2    0    0  0.87010809372E+02 -0.11393684127E+02  0.75387632260E+02  0.17031944673E+03  0.12499888740E+03 0.  0.
          2    1    1    2  501    0 -0.23236107520E+02 -0.69277930139E+01 -0.45320841847E+03  0.45385656498E+03  0.00000000000E+00 0. -1.
          1    1    1    2  502    0 -0.63774701852E+02  0.18321477141E+02  0.63906174266E+03  0.64249731521E+03  0.00000000000E+00 0. -1.
         22    1    3    3    0    0  0.87287587898E+02  0.14288567124E+02  0.10085796617E+03  0.13414773755E+03  0.00000000000E+00 0.  1.
         22    1    3    3    0    0 -0.27677852628E+00 -0.25682251251E+02 -0.25470333905E+02  0.36171709178E+02  0.00000000000E+00 0.  1.
</event>
<event>
 7    1  0.5977291E-006  0.8329475E+02  0.7818608E-02  0.1460945E+00
          2   -1    0    0  502    0  0.00000000000E+00  0.00000000000E+00  0.81852612254E+03  0.81852612254E+03  0.00000000000E+00 0. -1.
          1   -1    0    0  501    0 -0.00000000000E+00 -0.00000000000E+00 -0.32950719655E+02  0.32950719655E+02  0.00000000000E+00 0. -1.
         25    2    1    2    0    0 -0.74705621583E+02  0.67790361645E+02  0.51953256391E+03  0.54379782169E+03  0.12500209154E+03 0.  0.
          2    1    1    2  501    0  0.48085229010E+02 -0.64981064532E+02  0.61969246376E+02  0.10185732911E+03  0.00000000000E+00 0. -1.
          1    1    1    2  502    0  0.26620392573E+02 -0.28092971131E+01  0.20407359260E+03  0.20582169139E+03  0.00000000000E+00 0. -1.
         22    1    3    3    0    0 -0.71501688267E+02  0.99230767033E+02  0.46453756168E+03  0.48036900687E+03  0.00000000000E+00 0.  1.
         22    1    3    3    0    0 -0.32039333159E+01 -0.31440405388E+02  0.54995002226E+02  0.63428814820E+02  0.00000000000E+00 0.  1.
</event>
<event>
 7    1  0.5977291E-006  0.1295665E+03  0.7818608E-02  0.1290312E+00
          2   -1    0    0  502    0  0.00000000000E+00  0.00000000000E+00  0.27547278419E+04  0.27547278419E+04  0.00000000000E+00 0. -1.
          1   -1    0    0  501    0 -0.00000000000E+00 -0.00000000000E+00 -0.23224417343E+03  0.23224417343E+03  0.00000000000E+00 0. -1.
         25    2    1    2    0    0  0.10853389692E+03  0.59499319427E+02  0.41587425925E+03  0.45154881456E+03  0.12500062649E+03 0.  0.
          2    1    1    2  501    0 -0.43356880456E+02  0.55236638192E+02 -0.20672634753E+03  0.21832702088E+03  0.00000000000E+00 0. -1.
          1    1    1    2  502    0 -0.65177016468E+02 -0.11473595762E+03  0.23133357568E+04  0.23170961799E+04  0.00000000000E+00 0. -1.
         22    1    3    3    0    0  0.11692139721E+03  0.13611806659E+01  0.28780541960E+03  0.31065161433E+03  0.00000000000E+00 0. -1.
         22    1    3    3    0    0 -0.83875002845E+01  0.58138138761E+02  0.12806883966E+03  0.14089720022E+03  0.00000000000E+00 0. -1.
</event>
<event>
 7    1  0.5977291E-006  0.6072598E+02  0.7818608E-02  0.1497599E+00
          2   -1    0    0  502    0  0.00000000000E+00  0.00000000000E+00  0.30489347598E+04  0.30489347598E+04  0.00000000000E+00 0. -1.
          1   -1    0    0  501    0 -0.00000000000E+00 -0.00000000000E+00 -0.90925893930E+01  0.90925893930E+01  0.00000000000E+00 0. -1.
         25    2    1    2    0    0 -0.28103257577E+02  0.47032949619E+02  0.18414914551E+04  0.18465419770E+04  0.12499840875E+03 0.  0.
          2    1    1    2  501    0  0.37746088356E+01 -0.61553944607E+02  0.14271260378E+03  0.15546711242E+03  0.00000000000E+00 0. -1.
          1    1    1    2  502    0  0.24328648741E+02  0.14520994988E+02  0.10556381115E+04  0.10560182597E+04  0.00000000000E+00 0. -1.
         22    1    3    3    0    0 -0.74387832104E+02  0.34507048987E+02  0.86629208605E+03  0.87016450418E+03  0.00000000000E+00 0.  1.
         22    1    3    3    0    0  0.46284574527E+02  0.12525900632E+02  0.97519936904E+03  0.97637747281E+03  0.00000000000E+00 0.  1.
</event>
<event>
 7    1  0.5977291E-006  0.7341249E+02  0.7818608E-02  0.1351028E+00
          2   -1    0    0  502    0  0.00000000000E+00  0.00000000000E+00  0.33156746519E+04  0.33156746519E+04  0.00000000000E+00 0. -1.
          1   -1    0    0  501    0 -0.00000000000E+00 -0.00000000000E+00 -0.62658196657E+02  0.62658196657E+02  0.00000000000E+00 0. -1.
         25    2    1    2    0    0 -0.10871116141E+02 -0.11813574264E+02  0.21768516475E+04  0.21804965933E+04  0.12499822559E+03 0.  0.
          2    1    1    2  501    0  0.64875331148E+02 -0.35905124623E+02 -0.36635271494E+02  0.82705076526E+02  0.00000000000E+00 0. -1.
          1    1    1    2  502    0 -0.54004215008E+02  0.47718698887E+02  0.11128000793E+04  0.11151311788E+04  0.00000000000E+00 0. -1.
         22    1    3    3    0    0 -0.37673946704E+02 -0.58069353265E+02  0.14684880245E+04  0.14701185170E+04  0.00000000000E+00 0. -1.
         22    1    3    3    0    0  0.26802830564E+02  0.46255779001E+02  0.70836362300E+03  0.71037807624E+03  0.00000000000E+00 0. -1.
</event>
<event>
 7    1  0.5977291E-006  0.7699471E+02  0.7818608E-02  0.1450643E+00
          2   -1    0    0  502    0  0.00000000000E+00  0.00000000000E+00  0.94280582028E+02  0.94280582028E+02  0.00000000000E+00 0. -1.
          1   -1    0    0  501    0 -0.00000000000E+00 -0.00000000000E+00 -0.97260467731E+03  0.97260467731E+03  0.00000000000E+00 0. -1.
         25    2    1    2    0    0  0.74461531088E+02 -0.74838944072E+02 -0.26716765731E+03  0.31328703737E+03  0.12499929405E+03 0.  0.
          2    1    1    2  501    0 -0.50880225680E+02  0.54375121709E+02 -0.67681219291E+03  0.68089661161E+03  0.00000000000E+00 0. -1.
          1    1    1    2  502    0 -0.23581305408E+02  0.20463822362E+02  0.65655754943E+02  0.72701610350E+02  0.00000000000E+00 0. -1.
         22    1    3    3    0    0 -0.18894510923E+02  0.21794949412E+02 -0.39198551142E+02  0.48667738539E+02  0.00000000000E+00 0.  1.
         22    1    3    3    0    0  0.93356042011E+02 -0.96633893484E+02 -0.22796910616E+03  0.26461929883E+03  0.00000000000E+00 0.  1.
</event>
<event>
 7    1  0.5977291E-006  0.1581564E+03  0.7818608E-02  0.1371940E+00
          2   -1    0    0  502    0  0.00000000000E+00  0.00000000000E+00  0.15501672134E+04  0.15501672134E+04  0.00000000000E+00 0. -1.
          1   -1    0    0  501    0 -0.00000000000E+00 -0.00000000000E+00 -0.21003301294E+04  0.21003301294E+04  0.00000000000E+00 0. -1.
         25    2    1    2    0    0 -0.34864955002E+02  0.16901788012E+03 -0.88894122500E+03  0.91412497596E+03  0.12500144511E+03 0.  0.
          2    1    1    2  501    0  0.49105265844E+02 -0.14482669945E+03 -0.11937909813E+04  0.12035460137E+04  0.00000000000E+00 0. -1.
          1    1    1    2  502    0 -0.14240310842E+02 -0.24191180663E+02  0.15325692903E+04  0.15328263532E+04  0.00000000000E+00 0. -1.
         22    1    3    3    0    0 -0.27666075301E+02  0.94429049173E+02 -0.22003633148E+03  0.24103577374E+03  0.00000000000E+00 0. -1.
         22    1    3    3    0    0 -0.71988797015E+01  0.74588830942E+02 -0.66890489352E+03  0.67308920222E+03  0.00000000000E+00 0. -1.
</event>
<event>
 7    1  0.5977291E-006  0.1097702E+03  0.7818608E-02  0.1270244E+00
          2   -1    0    0  502    0  0.00000000000E+00  0.00000000000E+00  0.77728672018E+03  0.77728672018E+03  0.00000000000E+00 0. -1.
          1   -1    0    0  501    0 -0.00000000000E+00 -0.00000000000E+00 -0.29830079740E+03  0.29830079740E+03  0.00000000000E+00 0. -1.
         25    2    1    2    0    0 -0.30053323885E+02 -0.76518005152E+01  0.49843474864E+02  0.13809924261E+03  0.12500110598E+03 0.  0.
          2    1    1    2  501    0  0.77868506532E+02  0.95840143984E+02 -0.23518311433E+03  0.26563120068E+03  0.00000000000E+00 0. -1.
          1    1    1    2  502    0 -0.47815182647E+02 -0.88188343469E+02  0.66432556225E+03  0.67185707429E+03  0.00000000000E+00 0. -1.
         22    1    3    3    0    0 -0.73470320463E+02  0.20177113138E+02  0.21093756699E+02  0.79056628155E+02  0.00000000000E+00 0.  1.
         22    1    3    3    0    0  0.43416996578E+02 -0.27828913653E+02  0.28749718166E+02  0.59042614454E+02  0.00000000000E+00 0.  1.
</event>
<event>
 7    1  0.5977291E-006  0.8987850E+02  0.7818608E-02  0.1391548E+00
          2   -1    0    0  502    0  0.00000000000E+00  0.00000000000E+00  0.18173797640E+03  0.18173797640E+03  0.00000000000E+00 0. -1.
          1   -1    0    0  501    0 -0.00000000000E+00 -0.00000000000E+00 -0.21873894425E+04  0.21873894425E+04  0.00000000000E+00 0. -1.
         25    2    1    2    0    0  0.13646076948E+02 -0.53848632607E+02 -0.34885689306E+03  0.37470695567E+03  0.12497311768E+03 0.  0.
          2    1    1    2  501    0  0.35226065079E+02 -0.23080277544E+02 -0.18130437473E+04  0.18135327967E+04  0.00000000000E+00 0. -1.
          1    1    1    2  502    0 -0.48872142027E+02  0.76928910150E+02  0.15624917424E+03  0.18088766661E+03  0.00000000000E+00 0. -1.
         22    1    3    3    0    0  0.27774332707E+01 -0.69997506016E+02 -0.85062120409E+02  0.11019496047E+03  0.00000000000E+00 0. -1.
         22    1    3    3    0    0  0.10868643677E+02  0.16148873409E+02 -0.26379477266E+03  0.26451199521E+03  0.00000000000E+00 0. -1.
</event>
<event>
 7    1  0.5977291E-006  0.1170130E+03  0.7818608E-02  0.1322672E+00
          2   -1    0    0  502    0  0.00000000000E+00  0.00000000000E+00  0.24750109651E+03  0.24750109651E+03  0.00000000000E+00 0. -1.
          1   -1    0    0  501    0 -0.00000000000E+00 -0.00000000000E+00 -0.92796906231E+03  0.92796906231E+03  0.00000000000E+00 0. -1.
         25    2    1    2    0    0 -0.12338501728E+03  0.30272145016E+02 -0.15753133280E+03  0.23786307755E+03  0.12498982998E+03 0.  0.
          2    1    1    2  501    0  0.11417120445E+03  0.26862157429E+02 -0.72140280675E+03  0.73087526228E+03  0.00000000000E+00 0. -1.
          1    1    1    2  502    0  0.92138128256E+01 -0.57134302444E+02  0.19846617375E+03  0.20673181899E+03  0.00000000000E+00 0. -1.
         22    1    3    3    0    0 -0.91652392401E+02  0.72150323515E+02 -0.70775894980E+02  0.13643700937E+03  0.00000000000E+00 0. -1.
         22    1    3    3    0    0 -0.31732624875E+02 -0.41878178500E+02 -0.86755437816E+02  0.10142606818E+03  0.00000000000E+00 0. -1.
</event>
<event>
 7    1  0.5977291E-006  0.6023551E+02  0.7818608E-02  0.1538529E+00
          2   -1    0    0  502    0  0.00000000000E+00  0.00000000000E+00  0.23220044311E+03  0.23220044311E+03  0.00000000000E+00 0. -1.
          1   -1    0    0  501    0 -0.00000000000E+00 -0.00000000000E+00 -0.77936950213E+03  0.77936950213E+03  0.00000000000E+00 0. -1.
         25    2    1    2    0    0 -0.28977244323E+02  0.26188401242E+02 -0.18475306727E+03  0.22645906152E+03  0.12499799052E+03 0.  0.
          2    1    1    2  501    0 -0.17573552000E+02  0.12743876746E+02 -0.56919605569E+03  0.56960985414E+03  0.00000000000E+00 0. -1.
          1    1    1    2  502    0  0.46550796323E+02 -0.38932277988E+02  0.20678006393E+03  0.21550102957E+03  0.00000000000E+00 0. -1.
         22    1    3    3    0    0  0.13917881859E+02  0.36350501728E+02 -0.25589815856E+01  0.39007881230E+02  0.00000000000E+00 0.  1.
         22    1    3    3    0    0 -0.42895126182E+02 -0.10162100486E+02 -0.18219408568E+03  0.18745118029E+03  0.00000000000E+00 0.  1.
</event>
<event>
 7    1  0.5977291E-006  0.1662194E+03  0.7818608E-02  0.1267668E+00
          2   -1    0    0  502    0  0.00000000000E+00  0.00000000000E+00  0.28371699577E+03  0.28371699577E+03  0.00000000000E+00 0. -1.
          1   -1    0    0  501    0 -0.00000000000E+00 -0.00000000000E+00 -0.50774325855E+03  0.50774325855E+03  0.00000000000E+00 0. -1.
         25    2    1    2    0    0 -0.54532562321E+01 -0.18886046670E+03 -0.25481506050E+02  0.22797423316E+03  0.12499971980E+03 0.  0.
          2    1    1    2  501    0 -0.55861270485E+02  0.38638038621E+02 -0.34092152476E+03  0.34762172776E+03  0.00000000000E+00 0. -1.
          1    1    1    2  502    0  0.61314526717E+02  0.15022242808E+03  0.14237676803E+03  0.21586429339E+03  0.00000000000E+00 0. -1.
         22    1    3    3    0    0 -0.49322226786E+02 -0.47336929198E+02  0.22919202881E+02  0.72102404826E+02  0.00000000000E+00 0. -1.
         22    1    3    3    0    0  0.43868970554E+02 -0.14152353750E+03 -0.48400708931E+02  0.15587182834E+03  0.00000000000E+00 0. -1.
</event>
<event>
 7    1  0.5977291E-006  0.2324755E+03  0.7818608E-02  0.1188283E+00
          2   -1    0    0  502    0  0.00000000000E+00  0.00000000000E+00  0.17950215294E+04  0.17950215294E+04  0.00000000000E+00 0. -1.
          1   -1    0    0  501    0 -0.00000000000E+00 -0.00000000000E+00 -0.40697735640E+03  0.40697735640E+03  0.00000000000E+00 0. -1.
         25    2    1    2    0    0  0.12514328479E+03  0.20713411272E+03  0.72720252167E+03  0.77654027644E+03  0.12500364405E+03 0.  0.
          2    1    1    2  501    0  0.75020602941E+02 -0.81301017880E+02 -0.36050858128E+03  0.37709996493E+03  0.00000000000E+00 0. -1.
          1    1    1    2  502    0 -0.20016388773E+03 -0.12583309484E+03  0.10213502326E+04  0.10483586445E+04  0.00000000000E+00 0. -1.
         22    1    3    3    0    0  0.75555085460E+02  0.93371360480E+02  0.53076358203E+03  0.54418449253E+03  0.00000000000E+00 0.  1.
         22    1    3    3    0    0  0.49588199329E+02  0.11376275224E+03  0.19643893964E+03  0.23235578391E+03  0.00000000000E+00 0.  1.
</event>
<event>
 7    1  0.5977291E-006  0.9479071E+02  0.7818608E-02  0.1308471E+00
          2   -1    0    0  502    0  0.00000000000E+00  0.00000000000E+00  0.20513144020E+04  0.20513144020E+04  0.00000000000E+00 0. -1.
          1   -1    0    0  501    0 -0.00000000000E+00 -0.00000000000E+00 -0.38988647859E+03  0.38988647859E+03  0.00000000000E+00 0. -1.
         25    2    1    2    0    0 -0.29402326959E+02 -0.34520327285E+01 -0.27984116445E+02  0.13147528399E+03  0.12500490457E+03 0.  0.
          2    1    1    2  501    0  0.90572111661E+02  0.56815577607E+02 -0.30009030146E+03  0.31856789904E+03  0.00000000000E+00 0. -1.
          1    1    1    2  502    0 -0.61169784702E+02 -0.53363544879E+02  0.19895023413E+04  0.19911576975E+04  0.00000000000E+00 0. -1.
         22    1    3    3    0    0 -0.76976783816E+01  0.59490363804E+02 -0.20446382958E+01  0.60021147805E+02  0.00000000000E+00 0.  1.
         22    1    3    3    0    0 -0.21704648577E+02 -0.62942396533E+02 -0.25939478150E+02  0.71454136184E+02  0.00000000000E+00 0.  1.
</event>
<event>
 7    1  0.5977291E-006  0.4455227E+02  0.7818608E-02  0.1498166E+00
          2   -1    0    0  502    0  0.00000000000E+00  0.00000000000E+00  0.83387959102E+03  0.83387959102E+03  0.00000000000E+00 0. -1.
          1   -1    0    0  501    0 -0.00000000000E+00 -0.00000000000E+00 -0.26397381680E+03  0.26397381680E+03  0.00000000000E+00 0. -1.
         25    2    1    2    0    0  0.59134246252E+02 -0.38351495231E+02  0.17108847625E+02  0.14451343550E+03  0.12499489632E+03 0.  0.
          2    1    1    2  501    0 -0.43924722374E+02  0.30183580870E+01 -0.19735289286E+03  0.20220449066E+03  0.00000000000E+00 0. -1.
          1    1    1    2  502    0 -0.15209523877E+02  0.35333137144E+02  0.75014981945E+03  0.75113548167E+03  0.00000000000E+00 0. -1.
         22    1    3    3    0    0 -0.35603479569E+02 -0.61763955134E+01  0.25322277357E+02  0.44124520954E+02  0.00000000000E+00 0.  1.
         22    1    3    3    0    0  0.94737725820E+02 -0.32175099718E+02 -0.82134297313E+01  0.10038891454E+03  0.00000000000E+00 0.  1.
</event>
<event>
 7    1  0.5977291E-006  0.8346188E+02  0.7818608E-02  0.1382786E+00
          2   -1    0    0  502    0  0.00000000000E+00  0.00000000000E+00  0.54517867961E+03  0.54517867961E+03  0.00000000000E+00 0. -1.
          1   -1    0    0  501    0 -0.00000000000E+00 -0.00000000000E+00 -0.34652332096E+03  0.34652332096E+03  0.00000000000E+00 0. -1.
         25    2    1    2    0    0 -0.96009066011E+02  0.27459561904E+02  0.27236646202E+03  0.31588023037E+03  0.12500024803E+03 0.  0.
          2    1    1    2  501    0  0.58932330816E+02 -0.58994999537E+02 -0.31696276665E+03  0.32774811217E+03  0.00000000000E+00 0. -1.
          1    1    1    2  502    0  0.37076735195E+02  0.31535437633E+02  0.24325166328E+03  0.24807365803E+03  0.00000000000E+00 0. -1.
         22    1    3    3    0    0 -0.22017987285E+02 -0.20889224324E+02  0.19816571063E+03  0.20047643334E+03  0.00000000000E+00 0.  1.
         22    1    3    3    0    0 -0.73991078725E+02  0.48348786228E+02  0.74200751394E+02  0.11540379703E+03  0.00000000000E+00 0.  1.
</event>
<event>
 7    1  0.5977291E-006  0.1008145E+03  0.7818608E-02  0.1279890E+00
          2   -1    0    0  502    0  0.00000000000E+00  0.00000000000E+00  0.17753745112E+04  0.17753745112E+04  0.00000000000E+00 0. -1.
          1   -1    0    0  501    0 -0.00000000000E+00 -0.00000000000E+00 -0.14027930107E+03  0.14027930107E+03  0.00000000000E+00 0. -1.
         25    2    1    2    0    0  0.10247944401E+03  0.45591293633E+02  0.35551786058E+03  0.39319001005E+03  0.12499932925E+03 0.  0.
          2    1    1    2  501    0 -0.17622811941E+02 -0.10002402374E+03 -0.98039281666E+02  0.14116327276E+03  0.00000000000E+00 0. -1.
          1    1    1    2  502    0 -0.84856632072E+02  0.54432730109E+02  0.13776166312E+04  0.13813005294E+04  0.00000000000E+00 0. -1.
         22    1    3    3    0    0  0.78712393524E+02  0.46023577924E+02  0.35786989084E+03  0.36930295069E+03  0.00000000000E+00 0.  1.
         22    1    3    3    0    0  0.23767050489E+02 -0.43228429152E+00 -0.23520302581E+01  0.23887059362E+02  0.00000000000E+00 0.  1.
</event>
<event>
 7    1  0.5977291E-006  0.3397231E+03  0.7818608E-02  0.1186498E+00
          2   -1    0    0  502    0  0.00000000000E+00  0.00000000000E+00  0.37605479087E+04  0.37605479087E+04  0.00000000000E+00 0. -1.
          1   -1    0    0  501    0 -0.00000000000E+00 -0.00000000000E+00 -0.28343277114E+04  0.28343277114E+04  0.00000000000E+00 0. -1.
         25    2    1    2    0    0  0.37334501485E+03  0.31206150074E+02  0.25511480300E+03  0.47017768423E+03  0.12499267226E+03 0.  0.
          2    1    1    2  501    0 -0.37795945073E+02 -0.67333426772E+02 -0.27178665399E+04  0.27189631944E+04  0.00000000000E+00 0. -1.
          1    1    1    2  502    0 -0.33554906978E+03  0.36127276698E+02  0.33889719342E+04  0.34057347415E+04  0.00000000000E+00 0. -1.
         22    1    3    3    0    0  0.13454481641E+03  0.43304650274E+02  0.15829043391E+03  0.21221088998E+03  0.00000000000E+00 0.  1.
         22    1    3    3    0    0  0.23880019845E+03 -0.12098500200E+02  0.96824369084E+02  0.25796679425E+03  0.00000000000E+00 0.  1.
</event>
<event>
 7    1  0.5977291E-006  0.6530445E+02  0.7818608E-02  0.1458890E+00
          2   -1    0    0  502    0  0.00000000000E+00  0.00000000000E+00  0.14359948117E+03  0.14359948117E+03  0.00000000000E+00 0. -1.
          1   -1    0    0  501    0 -0.00000000000E+00 -0.00000000000E+00 -0.38029967768E+03  0.38029967768E+03  0.00000000000E+00 0. -1.
         25    2    1    2    0    0  0.35923054279E+02 -0.11755450862E+01 -0.24958998639E+02  0.13243522848E+03  0.12499716155E+03 0.  0.
          2    1    1    2  501    0  0.34416094256E+02 -0.40689184532E+01 -0.28655481593E+03  0.28864283496E+03  0.00000000000E+00 0. -1.
          1    1    1    2  502    0 -0.70339148535E+02  0.52444635394E+01  0.74813618059E+02  0.10282109541E+03  0.00000000000E+00 0. -1.
         22    1    3    3    0    0  0.63571265263E+02  0.37840522895E+02 -0.37579711612E+02  0.82978585581E+02  0.00000000000E+00 0.  1.
         22    1    3    3    0    0 -0.27648210985E+02 -0.39016067981E+02  0.12620712972E+02  0.49456642903E+02  0.00000000000E+00 0.  1.
</event>
<event>
 7    1  0.5977291E-006  0.5977226E+02  0.7818608E-02  0.1446401E+00
          2   -1    0    0  502    0  0.00000000000E+00  0.00000000000E+00  0.85437932513E+03  0.85437932513E+03  0.00000000000E+00 0. -1.
          1   -1    0    0  501    0 -0.00000000000E+00 -0.00000000000E+00 -0.76580137081E+03  0.76580137081E+03  0.00000000000E+00 0. -1.
         25    2    1    2    0    0  0.61890641666E+02 -0.73816335468E+02  0.15248111067E+03  0.21944292309E+03  0.12500161789E+03 0.  0.
          2    1    1    2  501    0 -0.48521553985E+02  0.34530338547E+02 -0.73046335293E+03  0.73288702775E+03  0.00000000000E+00 0. -1.
          1    1    1    2  502    0 -0.13369087682E+02  0.39285996921E+02  0.66656019657E+03  0.66785074509E+03  0.00000000000E+00 0. -1.
         22    1    3    3    0    0  0.83637892718E+02 -0.50867370063E+02  0.45614478417E+02  0.10799753273E+03  0.00000000000E+00 0. -1.
         22    1    3    3    0    0 -0.21747251052E+02 -0.22948965405E+02  0.10686663226E+03  0.11144539036E+03  0.00000000000E+00 0. -1.
</event>
<event>
 7    1  0.5977291E-006  0.4190335E+02  0.7818608E-02  0.1531248E+00
          2   -1    0    0  502    0  0.00000000000E+00  0.00000000000E+00  0.53852793710E+03  0.53852793710E+03  0.00000000000E+00 0. -1.
          1   -1    0    0  501    0 -0.00000000000E+00 -0.00000000000E+00 -0.89151919249E+03  0.89151919249E+03  0.00000000000E+00 0. -1.
         25    2    1    2    0    0 -0.34075593364E+02 -0.22061471364E+01  0.34331543586E+03  0.36695778193E+03  0.12500604815E+03 0.  0.
          2    1    1    2  501    0  0.25010354196E+02  0.33655778941E+02 -0.87773317723E+03  0.87873418034E+03  0.00000000000E+00 0. -1.
          1    1    1    2  502    0  0.90652391675E+01 -0.31449631805E+02  0.18142648599E+03  0.18435516733E+03  0.00000000000E+00 0. -1.
         22    1    3    3    0    0  0.17105568567E+02  0.41473327210E+02  0.55411465634E+02  0.71295637101E+02  0.00000000000E+00 0.  1.
         22    1    3    3    0    0 -0.51181161930E+02 -0.43679474347E+02  0.28790397022E+03  0.29566214483E+03  0.00000000000E+00 0.  1.
</event>
<event>
 7    1  0.5977291E-006  0.6751788E+02  0.7818608E-02  0.1463204E+00
          2   -1    0    0  502    0  0.00000000000E+00  0.00000000000E+00  0.36311217174E+04  0.36311217174E+04  0.00000000000E+00 0. -1.
          1   -1    0    0  501    0 -0.00000000000E+00 -0.00000000000E+00 -0.78608426792E+01  0.78608426792E+01  0.00000000000E+00 0. -1.
         25    2    1    2    0    0 -0.53858401492E+02 -0.34287237308E+02  0.28398227436E+04  0.28432891647E+04  0.12499486790E+03 0.  0.
          2    1    1    2  501    0  0.13821536484E+02 -0.29400322984E+02  0.58940999874E+02  0.67301228284E+02  0.00000000000E+00 0. -1.
          1    1    1    2  502    0  0.40036865008E+02  0.63687560293E+02  0.72449713128E+03  0.72839216712E+03  0.00000000000E+00 0. -1.
         22    1    3    3    0    0 -0.63441721768E+02 -0.72408144048E+02  0.16403264324E+04  0.16431489878E+04  0.00000000000E+00 0.  1.
         22    1    3    3    0    0  0.95833202761E+01  0.38120906740E+02  0.11994963112E+04  0.12001401769E+04  0.00000000000E+00 0.  1.
</event>
<event>
 7    1  0.5977291E-006  0.7292766E+02  0.7818608E-02  0.1437722E+00
          2   -1    0    0  502    0  0.00000000000E+00  0.00000000000E+00  0.12791212534E+03  0.12791212534E+03  0.00000000000E+00 0. -1.
          1   -1    0    0  501    0 -0.00000000000E+00 -0.00000000000E+00 -0.99661418188E+03  0.99661418188E+03  0.00000000000E+00 0. -1.
         25    2    1    2    0    0 -0.34546101394E+02  0.94565434746E+02 -0.17349226804E+02  0.16143210291E+03  0.12499309425E+03 0.  0.
          2    1    1    2  501    0  0.21987905244E+02 -0.28863632252E+02 -0.88669722569E+03  0.88743932034E+03  0.00000000000E+00 0. -1.
          1    1    1    2  502    0  0.12558196150E+02 -0.65701802494E+02  0.35344395952E+02  0.75654883959E+02  0.00000000000E+00 0. -1.
         22    1    3    3    0    0 -0.35720649731E+02  0.11066298991E+03  0.22496620623E+02  0.11844137829E+03  0.00000000000E+00 0. -1.
         22    1    3    3    0    0  0.11745483366E+01 -0.16097555163E+02 -0.39845847427E+02  0.42990724618E+02  0.00000000000E+00 0. -1.
</event>
<event>
 7    1  0.5977291E-006  0.9362345E+02  0.7818608E-02  0.1364673E+00
          2   -1    0    0  502    0  0.00000000000E+00  0.00000000000E+00  0.95819841565E+03  0.95819841565E+03  0.00000000000E+00 0. -1.
          1   -1    0    0  501    0 -0.00000000000E+00 -0.00000000000E+00 -0.16664208923E+03  0.16664208923E+03  0.00000000000E+00 0. -1.
         25    2    1    2    0    0  0.70183722977E+02 -0.96690550874E-02  0.36048548386E+03  0.38794369538E+03  0.12499908656E+03 0.  0.
          2    1    1    2  501    0 -0.81231934914E+02  0.49151385723E+02 -0.13695246170E+03  0.16664472009E+03  0.00000000000E+00 0. -1.
          1    1    1    2  502    0  0.11048211937E+02 -0.49141716668E+02  0.56802330426E+03  0.57025208942E+03  0.00000000000E+00 0. -1.
         22    1    3    3    0    0  0.26117371638E+02 -0.41473544159E+02  0.44444031952E+02  0.66162254667E+02  0.00000000000E+00 0. -1.
         22    1    3    3    0    0  0.44066351339E+02  0.41463875104E+02  0.31604145191E+03  0.32178144071E+03  0.00000000000E+00 0. -1.
</event>
<event>
 7    1  0.5977291E-006  0.5631889E+02  0.7818608E-02  0.1470429E+00
          2   -1    0    0  502    0  0.00000000000E+00  0.00000000000E+00  0.68747596187E+03  0.68747596187E+03  0.00000000000E+00 0. -1.
          1   -1    0    0  501    0 -0.00000000000E+00 -0.00000000000E+00 -0.43454441584E+03  0.43454441584E+03  0.00000000000E+00 0. -1.
         25    2    1    2    0    0  0.16735559051E+02 -0.90959282968E+02 -0.15752135062E+03  0.22134018452E+03  0.12499932515E+03 0.  0.
          2    1    1    2  501    0 -0.11618946588E+02  0.35101434390E+02 -0.24251000838E+03  0.24531248394E+03  0.00000000000E+00 0. -1.
          1    1    1    2  502    0 -0.51166124626E+01  0.55857848577E+02  0.65296290503E+03  0.65536770924E+03  0.00000000000E+00 0. -1.
         22    1    3    3    0    0  0.66851832769E+02 -0.71284521056E+02 -0.76718933848E+02  0.12424349197E+03  0.00000000000E+00 0.  1.
         22    1    3    3    0    0 -0.50116273718E+02 -0.19674761912E+02 -0.80802416773E+02  0.97096692550E+02  0.00000000000E+00 0.  1.
</event>
<event>
 7    1  0.5977291E-006  0.3472973E+03  0.7818608E-02  0.1246112E+00
          2   -1    0    0  502    0  0.00000000000E+00  0.00000000000E+00  0.91106859181E+03  0.91106859181E+03  0.00000000000E+00 0. -1.
          1   -1    0    0  501    0 -0.00000000000E+00 -0.00000000000E+00 -0.36650820335E+03  0.36650820335E+03  0.00000000000E+00 0. -1.
         25    2    1    2    0    0 -0.25540963330E+03 -0.24884599355E+03  0.10586933456E+03  0.39241895480E+03  0.12500364312E+03 0.  0.
          2    1    1    2  501    0 -0.16493894470E+02  0.36684647768E+02 -0.17588501634E+03  0.18042547190E+03  0.00000000000E+00 0. -1.
          1    1    1    2  502    0  0.27190352777E+03  0.21216134578E+03  0.61457607024E+03  0.70473236847E+03  0.00000000000E+00 0. -1.
         22    1    3    3    0    0 -0.11299245909E+01 -0.56910631629E+02  0.32302702366E+02  0.65448921321E+02  0.00000000000E+00 0. -1.
         22    1    3    3    0    0 -0.25427970871E+03 -0.19193536192E+03  0.73566632191E+02  0.32697003347E+03  0.00000000000E+00 0. -1.
</event>
<event>
 7    1  0.5977291E-006  0.1444791E+03  0.7818608E-02  0.1327911E+00
          2   -1    0    0  502    0  0.00000000000E+00  0.00000000000E+00  0.18383172273E+04  0.18383172273E+04  0.00000000000E+00 0. -1.
          1   -1    0    0  501    0 -0.00000000000E+00 -0.00000000000E+00 -0.13697134010E+04  0.13697134010E+04  0.00000000000E+00 0. -1.
         25    2    1    2    0    0 -0.18475256869E+03 -0.32413476039E+02  0.39629119342E+02  0.22887246043E+03  0.12501196333E+03 0.  0.
          2    1    1    2  501    0  0.14009520215E+03  0.29617067511E+02 -0.12707763125E+04  0.12788183111E+04  0.00000000000E+00 0. -1.
          1    1    1    2  502    0  0.44657366539E+02  0.27964085281E+01  0.16997510195E+04  0.17003398568E+04  0.00000000000E+00 0. -1.
         22    1    3    3    0    0 -0.14225460242E+03 -0.27773109747E+02  0.83783120068E+02  0.16741364563E+03  0.00000000000E+00 0.  1.
         22    1    3    3    0    0 -0.42497966267E+02 -0.46403662917E+01 -0.44154000726E+02  0.61458814797E+02  0.00000000000E+00 0.  1.
</event>
<event>
 7    1  0.5977291E-006  0.3469876E+02  0.7818608E-02  0.1565451E+00
          2   -1    0    0  502    0  0.00000000000E+00  0.00000000000E+00  0.10134314918E+04  0.10134314918E+04  0.00000000000E+00 0. -1.
          1   -1    0    0  501    0 -0.00000000000E+00 -0.00000000000E+00 -0.35766467083E+03  0.35766467083E+03  0.00000000000E+00 0. -1.
         25    2    1    2    0    0 -0.11586068498E+02 -0.58836982106E+02  0.35932088300E+03  0.38513926786E+03  0.12499892497E+03 0.  0.
          2    1    1    2  501    0  0.18701351384E+02  0.25613441266E+02 -0.34357455649E+03  0.34503516456E+03  0.00000000000E+00 0. -1.
          1    1    1    2  502    0 -0.71152828859E+01  0.33223540840E+02  0.64002049443E+03  0.64092173017E+03  0.00000000000E+00 0. -1.
         22    1    3    3    0    0  0.32759530283E+02 -0.71909551524E+02  0.29826141070E+03  0.30855151845E+03  0.00000000000E+00 0. -1.
         22    1    3    3    0    0 -0.44345598781E+02  0.13072569418E+02  0.61059472296E+02  0.76587749409E+02  0.00000000000E+00 0. -1.
</event>
<event>
 7    1  0.5977291E-006  0.9724938E+02  0.7818608E-02  0.1437986E+00
          2   -1    0    0  502    0  0.00000000000E+00  0.00000000000E+00  0.10709166601E+04  0.10709166601E+04  0.00000000000E+00 0. -1.
          1   -1    0    0  501    0 -0.00000000000E+00 -0.00000000000E+00 -0.39125445889E+03  0.39125445889E+03  0.00000000000E+00 0. -1.
         25    2    1    2    0    0 -0.61442528972E+02  0.37574516495E+02  0.10851456884E+03  0.18051292572E+03  0.12498990378E+03 0.  0.
          2    1    1    2  501    0  0.79953105263E+02 -0.57444463440E+02 -0.34823023674E+03  0.36187934896E+03  0.00000000000E+00 0. -1.
          1    1    1    2  502    0 -0.18510576291E+02  0.19869946945E+02  0.91937786914E+03  0.91977884434E+03  0.00000000000E+00 0. -1.
         22    1    3    3    0    0 -0.93779558414E+02  0.26144721614E+02  0.10908433777E+03  0.14621061792E+03  0.00000000000E+00 0. -1.
         22    1    3    3    0    0  0.32337029442E+02  0.11429794881E+02 -0.56976893669E+00  0.34302307805E+02  0.00000000000E+00 0. -1.
</event>
<event>
 7    1  0.5977291E-006  0.1793991E+03  0.7818608E-02  0.1219745E+00
          2   -1    0    0  502    0  0.00000000000E+00  0.00000000000E+00  0.37720984380E+03  0.37720984380E+03  0.00000000000E+00 0. -1.
          1   -1    0    0  501    0 -0.00000000000E+00 -0.00000000000E+00 -0.97669747047E+03  0.97669747047E+03  0.00000000000E+00 0. -1.
         25    2    1    2    0    0  0.18189796702E+03 -0.98858100793E+02  0.20289862583E+03  0.31568025429E+03  0.12500550422E+03 0.  0.
          2    1    1    2  501    0 -0.94519499226E+02 -0.38596987376E+02 -0.85956356374E+03  0.86560567424E+03  0.00000000000E+00 0. -1.
          1    1    1    2  502    0 -0.87378467797E+02  0.13745508817E+03  0.57177311232E+02  0.17262138575E+03  0.00000000000E+00 0. -1.
         22    1    3    3    0    0  0.83366817355E+02 -0.28590723921E+02  0.16802384490E+03  0.18973525815E+03  0.00000000000E+00 0. -1.
         22    1    3    3    0    0  0.98531149668E+02 -0.70267376872E+02  0.34874780928E+02  0.12594499614E+03  0.00000000000E+00 0. -1.
</event>
<event>
 7    1  0.5977291E-006  0.1141906E+03  0.7818608E-02  0.1432287E+00
          2   -1    0    0  502    0  0.00000000000E+00  0.00000000000E+00  0.65385555118E+03  0.65385555118E+03  0.00000000000E+00 0. -1.
          1   -1    0    0  501    0 -0.00000000000E+00 -0.00000000000E+00 -0.19264161035E+04  0.19264161035E+04  0.00000000000E+00 0. -1.
         25    2    1    2    0    0 -0.89174397163E+01  0.13375893486E+03 -0.27210811245E+03  0.32808574529E+03  0.12500583192E+03 0.  0.
          2    1    1    2  501    0  0.18004008166E+02 -0.11139357989E+03 -0.16241280920E+04  0.16280432222E+04  0.00000000000E+00 0. -1.
          1    1    1    2  502    0 -0.90865684499E+01 -0.22365354979E+02  0.62367565219E+03  0.62414268718E+03  0.00000000000E+00 0. -1.
         22    1    3    3    0    0 -0.45978801702E+02  0.73481420954E+02 -0.22988951243E+03  0.24568833378E+03  0.00000000000E+00 0. -1.
         22    1    3    3    0    0  0.37061361986E+02  0.60277513911E+02 -0.42218600025E+02  0.82397411510E+02  0.00000000000E+00 0. -1.
</event>
<event>
 7    1  0.5977291E-006  0.1179132E+03  0.7818608E-02  0.1287516E+00
          2   -1    0    0  502    0  0.00000000000E+00  0.00000000000E+00  0.32588179653E+04  0.32588179653E+04  0.00000000000E+00 0. -1.
          1   -1    0    0  501    0 -0.00000000000E+00 -0.00000000000E+00 -0.58686969733E+03  0.58686969733E+03  0.00000000000E+00 0. -1.
         25    2    1    2    0    0  0.13192755181E+03  0.75531405414E+02  0.40932891638E+03  0.45418547818E+03  0.12499765867E+03 0.  0.
          2    1    1    2  501    0 -0.14786713521E+02 -0.77818685280E+02 -0.56044128398E+03  0.56601133157E+03  0.00000000000E+00 0. -1.
          1    1    1    2  502    0 -0.11714083829E+03  0.22872798662E+01  0.28230606356E+04  0.28254908529E+04  0.00000000000E+00 0. -1.
         22    1    3    3    0    0  0.91178062556E+02 -0.19505211532E+02  0.18482554689E+03  0.20701298305E+03  0.00000000000E+00 0. -1.
         22    1    3    3    0    0  0.40749489257E+02  0.95036616946E+02  0.22450336950E+03  0.24717249513E+03  0.00000000000E+00 0. -1.
</event>
<event>
 7    1  0.8127453E-006  0.7749228E+02  0.7818608E-02  0.1372545E+00
          2   -1    0    0  502    0  0.00000000000E+00  0.00000000000E+00  0.32835405005E+04  0.32835405005E+04  0.00000000000E+00 0. -1.
          1   -1    0    0  501    0 -0.00000000000E+00 -0.00000000000E+00 -0.10702567803E+04  0.10702567803E+04  0.00000000000E+00 0. -1.
         25    2    1    2    0    0  0.10813351795E+02  0.13334675462E+03 -0.13129779393E+03  0.22530591910E+03  0.12500144377E+03 0.  0.
          2    1    1    2  501    0  0.15040067459E+01 -0.56986382804E+02 -0.89058136603E+03  0.89240398889E+03  0.00000000000E+00 0. -1.
          1    1    1    2  502    0 -0.12317358541E+02 -0.76360371814E+02  0.32351628801E+04  0.32360873729E+04  0.00000000000E+00 0. -1.
         22    1    3    3    0    0  0.20510082984E+02  0.27708602075E+02  0.20504304225E+02  0.40110555028E+02  0.00000000000E+00 0. -1.
         22    1    3    3    0    0 -0.96967311886E+01  0.10563815254E+03 -0.15180209815E+03  0.18519536407E+03  0.00000000000E+00 0. -1.
</event>
<event>
 7    1  0.5977291E-006  0.8002163E+02  0.7818608E-02  0.1466687E+00
          2   -1    0    0  502    0  0.00000000000E+00  0.00000000000E+00  0.18372918034E+03  0.18372918034E+03  0.00000000000E+00 0. -1.
          1   -1    0    0  501    0 -0.00000000000E+00 -0.00000000000E+00 -0.83191440286E+03  0.83191440286E+03  0.00000000000E+00 0. -1.
         25    2    1    2    0    0 -0.65539750525E+02  0.34521698135E+02 -0.11393764589E+03  0.18464246218E+03  0.12499538051E+03 0.  0.
          2    1    1    2  501    0  0.54964695737E+02 -0.59071793374E+02 -0.67901204288E+03  0.68378940393E+03  0.00000000000E+00 0. -1.
          1    1    1    2  502    0  0.10575054788E+02  0.24550095239E+02  0.14476446625E+03  0.14721171709E+03  0.00000000000E+00 0. -1.
         22    1    3    3    0    0 -0.74770519495E+02 -0.37001699879E+01 -0.12562609310E+02  0.75908767584E+02  0.00000000000E+00 0. -1.
         22    1    3    3    0    0  0.92307689701E+01  0.38221868123E+02 -0.10137503658E+03  0.10873369460E+03  0.00000000000E+00 0. -1.
</event>
<event>
 7    1  0.5977291E-006  0.4466388E+02  0.7818608E-02  0.1529474E+00
          2   -1    0    0  502    0  0.00000000000E+00  0.00000000000E+00  0.38097388536E+03  0.38097388536E+03  0.00000000000E+00 0. -1.
          1   -1    0    0  501    0 -0.00000000000E+00 -0.00000000000E+00 -0.78001116258E+02  0.78001116258E+02  0.00000000000E+00 0. -1.
         25    2    1    2    0    0  0.64500333061E+01 -0.58437988452E+02  0.28597748694E+03  0.31759482397E+03  0.12500699081E+03 0.  0.
          2    1    1    2  501    0 -0.27142987435E+02  0.35263771289E+02 -0.50360400415E+02  0.67204503289E+02  0.00000000000E+00 0. -1.
          1    1    1    2  502    0  0.20692954129E+02  0.23174217163E+02  0.67355682579E+02  0.74175674364E+02  0.00000000000E+00 0. -1.
         22    1    3    3    0    0 -0.13417399660E+02 -0.67154902884E+01  0.25232088862E+03  0.25276660234E+03  0.00000000000E+00 0.  1.
         22    1    3    3    0    0  0.19867432966E+02 -0.51722498164E+02  0.33656598316E+02  0.64828221626E+02  0.00000000000E+00 0.  1.
</event>
<event>
 7    1  0.5977291E-006  0.1132125E+03  0.7818608E-02  0.1329180E+00
          2   -1    0    0  502    0  0.00000000000E+00  0.00000000000E+00  0.32141882670E+03  0.32141882670E+03  0.00000000000E+00 0. -1.
          1   -1    0    0  501    0 -0.00000000000E+00 -0.00000000000E+00 -0.12229621425E+04  0.12229621425E+04  0.00000000000E+00 0. -1.
         25    2    1    2    0    0 -0.60895316233E+02  0.30987544489E+02  0.74787187365E+02  0.16089466725E+03  0.12500201239E+03 0.  0.
          2    1    1    2  501    0  0.11382066816E+03 -0.11304041352E+02 -0.11731571668E+04  0.11787199260E+04  0.00000000000E+00 0. -1.
          1    1    1    2  502    0 -0.52925351924E+02 -0.19683503136E+02  0.19682666369E+03  0.20476637593E+03  0.00000000000E+00 0. -1.
         22    1    3    3    0    0 -0.15639433240E+02  0.67123929165E+02  0.34483829387E+01  0.69008007387E+02  0.00000000000E+00 0.  1.
         22    1    3    3    0    0 -0.45255882993E+02 -0.36136384677E+02  0.71338804426E+02  0.91886659859E+02  0.00000000000E+00 0.  1.
</event>
<event>
 7    1  0.5977291E-006  0.1137291E+03  0.7818608E-02  0.1276883E+00
          2   -1    0    0  502    0  0.00000000000E+00  0.00000000000E+00  0.31818576864E+03  0.31818576864E+03  0.00000000000E+00 0. -1.
          1   -1    0    0  501    0 -0.00000000000E+00 -0.00000000000E+00 -0.17531351856E+03  0.17531351856E+03  0.00000000000E+00 0. -1.
         25    2    1    2    0    0  0.10578830691E+03 -0.30692288651E+02  0.10491732937E+03  0.19689293886E+03  0.12500400358E+03 0.  0.
          2    1    1    2  501    0 -0.41513632205E+02 -0.80796298645E+02 -0.80742358743E+02  0.12153498274E+03  0.00000000000E+00 0. -1.
          1    1    1    2  502    0 -0.64274674702E+02  0.11148858730E+03  0.11869727945E+03  0.17507136561E+03  0.00000000000E+00 0. -1.
         22    1    3    3    0    0 -0.25182337351E+02  0.94806194186E+01  0.50880956567E+01  0.27384685071E+02  0.00000000000E+00 0.  1.
         22    1    3    3    0    0  0.13097064426E+03 -0.40172908070E+02  0.99829233714E+02  0.16950825379E+03  0.00000000000E+00 0.  1.
</event>
<event>
 7    1  0.5977291E-006  0.1033305E+03  0.7818608E-02  0.1332842E+00
          2   -1    0    0  502    0  0.00000000000E+00  0.00000000000E+00  0.13662131025E+04  0.13662131025E+04  0.00000000000E+00 0. -1.
          1   -1    0    0  501    0 -0.00000000000E+00 -0.00000000000E+00 -0.87753314750E+03  0.87753314750E+03  0.00000000000E+00 0. -1.
         25    2    1    2    0    0 -0.29856090129E+02  0.11507121100E+03 -0.55579092869E+02  0.18123136999E+03  0.12499201648E+03 0.  0.
          2    1    1    2  501    0 -0.27981151939E+02 -0.99453830267E+02 -0.75491922435E+03  0.76195606468E+03  0.00000000000E+00 0. -1.
          1    1    1    2  502    0  0.57837242068E+02 -0.15617380735E+02  0.12991782722E+04  0.13005588153E+04  0.00000000000E+00 0. -1.
         22    1    3    3    0    0 -0.39981558481E+02  0.13999686625E+03 -0.47100517226E+02  0.15302322145E+03  0.00000000000E+00 0. -1.
         22    1    3    3    0    0  0.10125468352E+02 -0.24925655251E+02 -0.84785756433E+01  0.28208148539E+02  0.00000000000E+00 0. -1.
</event>
<event>
 7    1  0.5977291E-006  0.8895301E+02  0.7818608E-02  0.1362817E+00
          2   -1    0    0  502    0  0.00000000000E+00  0.00000000000E+00  0.85447124322E+03  0.85447124322E+03  0.00000000000E+00 0. -1.
          1   -1    0    0  501    0 -0.00000000000E+00 -0.00000000000E+00 -0.39620276125E+03  0.39620276125E+03  0.00000000000E+00 0. -1.
         25    2    1    2    0    0  0.11662071292E+03 -0.78867942169E+02  0.25586396856E+03  0.31766739687E+03  0.12500264654E+03 0.  0.
          2    1    1    2  501    0 -0.77267541168E+02  0.42122301009E+02 -0.35869349531E+03  0.36933126694E+03  0.00000000000E+00 0. -1.
          1    1    1    2  502    0 -0.39353171756E+02  0.36745641160E+02  0.56109800873E+03  0.56367534066E+03  0.00000000000E+00 0. -1.
         22    1    3    3    0    0  0.12637156945E+03 -0.19225061150E+02  0.17535088705E+03  0.21699610626E+03  0.00000000000E+00 0. -1.
         22    1    3    3    0    0 -0.97508565276E+01 -0.59642881018E+02  0.80513081508E+02  0.10067129061E+03  0.00000000000E+00 0. -1.
</event>
<event>
 7    1  0.5977291E-006  0.3382994E+03  0.7818608E-02  0.1223592E+00
          2   -1    0    0  502    0  0.00000000000E+00  0.00000000000E+00  0.11439634292E+04  0.11439634292E+04  0.00000000000E+00 0. -1.
          1   -1    0    0  501    0 -0.00000000000E+00 -0.00000000000E+00 -0.25468501956E+03  0.25468501956E+03  0.00000000000E+00 0. -1.
         25    2    1    2    0    0  0.16646190976E+03 -0.24739176045E+03  0.48394528923E+03  0.58201389700E+03  0.12499953116E+03 0.  0.
          2    1    1    2  501    0 -0.20219626171E+03  0.28517449601E+03 -0.54556565503E+02  0.35381384974E+03  0.00000000000E+00 0. -1.
          1    1    1    2  502    0  0.35734351945E+02 -0.37782735562E+02  0.45988968592E+03  0.46282070203E+03  0.00000000000E+00 0. -1.
         22    1    3    3    0    0  0.39811611695E+02 -0.16068091391E+03  0.29810206886E+03  0.34098117833E+03  0.00000000000E+00 0. -1.
         22    1    3    3    0    0  0.12665029807E+03 -0.86710846543E+02  0.18584322037E+03  0.24103271866E+03  0.00000000000E+00 0. -1.
</event>
<event>
 7    1  0.5977291E-006  0.5826844E+02  0.7818608E-02  0.1473227E+00
          2   -1    0    0  502    0  0.00000000000E+00  0.00000000000E+00  0.64621719276E+03  0.64621719276E+03  0.00000000000E+00 0. -1.
          1   -1    0    0  501    0 -0.00000000000E+00 -0.00000000000E+00 -0.12585516597E+03  0.12585516597E+03  0.00000000000E+00 0. -1.
         25    2    1    2    0    0 -0.11987272688E+02  0.69568158505E+02  0.37046117091E+03  0.39730333591E+03  0.12500015276E+03 0.  0.
          2    1    1    2  501    0 -0.19753456052E+02 -0.54748300334E+02 -0.10361580797E+03  0.11884364130E+03  0.00000000000E+00 0. -1.
          1    1    1    2  502    0  0.31740728740E+02 -0.14819858171E+02  0.25351666385E+03  0.25592538152E+03  0.00000000000E+00 0. -1.
         22    1    3    3    0    0 -0.44434761859E+02  0.18357028241E+02  0.30222766428E+03  0.30602775953E+03  0.00000000000E+00 0. -1.
         22    1    3    3    0    0  0.32447489171E+02  0.51211130263E+02  0.68233506631E+02  0.91275576380E+02  0.00000000000E+00 0. -1.
</event>
<event>
 7    1  0.5977291E-006  0.1786164E+03  0.7818608E-02  0.1325550E+00
          2   -1    0    0  502    0  0.00000000000E+00  0.00000000000E+00  0.30122712150E+03  0.30122712150E+03  0.00000000000E+00 0. -1.
          1   -1    0    0  501    0 -0.00000000000E+00 -0.00000000000E+00 -0.49886962720E+03  0.49886962720E+03  0.00000000000E+00 0. -1.
         25    2    1    2    0    0 -0.25992809361E+02  0.14738110097E+03  0.72586353486E+02  0.20806217686E+03  0.12499710263E+03 0.  0.
          2    1    1    2  501    0  0.49504445434E+02 -0.17589397071E+03 -0.40924702055E+03  0.44818802179E+03  0.00000000000E+00 0. -1.
          1    1    1    2  502    0 -0.23511636074E+02  0.28512869735E+02  0.13901816136E+03  0.14384655004E+03  0.00000000000E+00 0. -1.
         22    1    3    3    0    0  0.35615310967E+02  0.12010950283E+03  0.31607917109E+02  0.12920450251E+03  0.00000000000E+00 0.  1.
         22    1    3    3    0    0 -0.61608120328E+02  0.27271598140E+02  0.40978436377E+02  0.78857674346E+02  0.00000000000E+00 0.  1.
</event>
<event>
 7    1  0.5977291E-006  0.1579130E+03  0.7818608E-02  0.1313310E+00
          2   -1    0    0  502    0  0.00000000000E+00  0.00000000000E+00  0.11350809758E+03  0.11350809758E+03  0.00000000000E+00 0. -1.
          1   -1    0    0  501    0 -0.00000000000E+00 -0.00000000000E+00 -0.77256742430E+03  0.77256742430E+03  0.00000000000E+00 0. -1.
         25    2    1    2    0    0  0.16672408580E+03  0.18525990077E+02 -0.47807172764E+03  0.52184061131E+03  0.12499965500E+03 0.  0.
          2    1    1    2  501    0 -0.21281608891E+02  0.41497803783E+02 -0.20035010399E+03  0.20570643832E+03  0.00000000000E+00 0. -1.
          1    1    1    2  502    0 -0.14544247690E+03 -0.60023793860E+02  0.19362504909E+02  0.15852847225E+03  0.00000000000E+00 0. -1.
         22    1    3    3    0    0  0.13314029130E+02 -0.14476982233E+01  0.52334957265E+01  0.14378757921E+02  0.00000000000E+00 0.  1.
         22    1    3    3    0    0  0.15341005667E+03  0.19973688300E+02 -0.48330522337E+03  0.50746185339E+03  0.00000000000E+00 0.  1.
</event>
<event>
 7    1  0.5977291E-006  0.3732119E+02  0.7818608E-02  0.1544199E+00
          2   -1    0    0  502    0  0.00000000000E+00  0.00000000000E+00  0.85710576320E+03  0.85710576320E+03  0.00000000000E+00 0. -1.
          1   -1    0    0  501    0 -0.00000000000E+00 -0.00000000000E+00 -0.50154914831E+02  0.50154914831E+02  0.00000000000E+00 0. -1.
         25    2    1    2    0    0  0.59589918776E+01 -0.97519401657E+01  0.30256620144E+03  0.32756998596E+03  0.12500071811E+03 0.  0.
          2    1    1    2  501    0  0.33020745964E+02  0.70686370880E+01 -0.29220994589E+02  0.44656486865E+02  0.00000000000E+00 0. -1.
          1    1    1    2  502    0 -0.38979737842E+02  0.26833030777E+01  0.53360564152E+03  0.53503420521E+03  0.00000000000E+00 0. -1.
         22    1    3    3    0    0  0.34422246027E+02  0.67985774218E+01  0.29033306133E+03  0.29244554738E+03  0.00000000000E+00 0.  1.
         22    1    3    3    0    0 -0.28463254149E+02 -0.16550517588E+02  0.12233140107E+02  0.35124438587E+02  0.00000000000E+00 0.  1.
</event>
<event>
 7    1  0.5977291E-006  0.7686511E+02  0.7818608E-02  0.1498502E+00
          2   -1    0    0  502    0  0.00000000000E+00  0.00000000000E+00  0.98769227128E+03  0.98769227128E+03  0.00000000000E+00 0. -1.
          1   -1    0    0  501    0 -0.00000000000E+00 -0.00000000000E+00 -0.29167137999E+03  0.29167137999E+03  0.00000000000E+00 0. -1.
         25    2    1    2    0    0  0.90218118249E+02 -0.32008031166E+02  0.29249368600E+03  0.33217722709E+03  0.12500132369E+03 0.  0.
          2    1    1    2  501    0 -0.22239367681E+02  0.49821550202E+00 -0.26929143675E+03  0.27020865197E+03  0.00000000000E+00 0. -1.
          1    1    1    2  502    0 -0.67978750567E+02  0.31509815664E+02  0.67281864203E+03  0.67697777222E+03  0.00000000000E+00 0. -1.
         22    1    3    3    0    0  0.74552418539E+02 -0.77585961073E+02  0.22306512962E+03  0.24766044601E+03  0.00000000000E+00 0.  1.
         22    1    3    3    0    0  0.15665699709E+02  0.45577929907E+02  0.69428556385E+02  0.84516781077E+02  0.00000000000E+00 0.  1.
</event>
<event>
 7    1  0.5977291E-006  0.1260929E+03  0.7818608E-02  0.1323014E+00
          2   -1    0    0  502    0  0.00000000000E+00  0.00000000000E+00  0.63063123630E+03  0.63063123630E+03  0.00000000000E+00 0. -1.
          1   -1    0    0  501    0 -0.00000000000E+00 -0.00000000000E+00 -0.81340964718E+03  0.81340964718E+03  0.00000000000E+00 0. -1.
         25    2    1    2    0    0  0.11055102885E+03  0.58976788924E+02 -0.31936688859E+03  0.36512979423E+03  0.12499906198E+03 0.  0.
          2    1    1    2  501    0 -0.79289662472E+02 -0.10244513131E+03 -0.46103727599E+03  0.47889166349E+03  0.00000000000E+00 0. -1.
          1    1    1    2  502    0 -0.31261366379E+02  0.43468342386E+02  0.59762575370E+03  0.60001942577E+03  0.00000000000E+00 0. -1.
         22    1    3    3    0    0  0.99421569349E+02  0.21578967017E+02 -0.10118949651E+03  0.14349081668E+03  0.00000000000E+00 0. -1.
         22    1    3    3    0    0  0.11129459503E+02  0.37397821906E+02 -0.21817739208E+03  0.22163897755E+03  0.00000000000E+00 0. -1.
</event>
<event>
 7    1  0.5977291E-006  0.6855489E+02  0.7818608E-02  0.1459830E+00
          2   -1    0    0  502    0  0.00000000000E+00  0.00000000000E+00  0.85897715010E+03  0.85897715010E+03  0.00000000000E+00 0. -1.
          1   -1    0    0  501    0 -0.00000000000E+00 -0.00000000000E+00 -0.31806588455E+02  0.31806588455E+02  0.00000000000E+00 0. -1.
         25    2    1    2    0    0 -0.42929150146E+02  0.22309314058E+02  0.27599922250E+03  0.30682661779E+03  0.12500554041E+03 0.  0.
          2    1    1    2  501    0 -0.39426738616E+01  0.32549976039E+02  0.51513664202E+01  0.33190091794E+02  0.00000000000E+00 0. -1.
          1    1    1    2  502    0  0.46871824008E+02 -0.54859290097E+02  0.54601997272E+03  0.55076702898E+03  0.00000000000E+00 0. -1.
         22    1    3    3    0    0 -0.41847712850E+02 -0.43926615171E+02  0.18188010903E+03  0.19173198130E+03  0.00000000000E+00 0. -1.
         22    1    3    3    0    0 -0.10814372959E+01  0.66235929229E+02  0.94119113470E+02  0.11509463649E+03  0.00000000000E+00 0. -1.
</event>
<event>
 7    1  0.5977291E-006  0.7845497E+02  0.7818608E-02  0.1385209E+00
          2   -1    0    0  502    0  0.00000000000E+00  0.00000000000E+00  0.14492264342E+04  0.14492264342E+04  0.00000000000E+00 0. -1.
          1   -1    0    0  501    0 -0.00000000000E+00 -0.00000000000E+00 -0.16703244006E+03  0.16703244006E+03  0.00000000000E+00 0. -1.
         25    2    1    2    0    0  0.30224079086E+02 -0.50883820975E+02  0.25034383227E+03  0.28601056275E+03  0.12500939745E+03 0.  0.
          2    1    1    2  501    0 -0.41500343092E+02 -0.29250709328E+02 -0.14344753957E+03  0.15216793053E+03  0.00000000000E+00 0. -1.
          1    1    1    2  502    0  0.11276264006E+02  0.80134530303E+02  0.11752977014E+04  0.11780803809E+04  0.00000000000E+00 0. -1.
         22    1    3    3    0    0  0.54691390267E+02  0.22242575391E+02  0.84121802366E+02  0.10277333294E+03  0.00000000000E+00 0.  1.
         22    1    3    3    0    0 -0.24467311181E+02 -0.73126396366E+02  0.16622202991E+03  0.18323722981E+03  0.00000000000E+00 0.  1.
</event>
<event>
 7    1  0.5977291E-006  0.8240497E+02  0.7818608E-02  0.1366984E+00
          2   -1    0    0  502    0  0.00000000000E+00  0.00000000000E+00  0.18732888644E+04  0.18732888644E+04  0.00000000000E+00 0. -1.
          1   -1    0    0  501    0 -0.00000000000E+00 -0.00000000000E+00 -0.30455240927E+02  0.30455240927E+02  0.00000000000E+00 0. -1.
         25    2    1    2    0    0 -0.19000160501E+02  0.11670089518E+03  0.31832419984E+03  0.36184983684E+03  0.12499961272E+03 0.  0.
          2    1    1    2  501    0 -0.26381551499E+02 -0.49548552709E+02  0.96892854900E+02  0.11197888491E+03  0.00000000000E+00 0. -1.
          1    1    1    2  502    0  0.45381712000E+02 -0.67152342471E+02  0.14276165687E+04  0.14299153836E+04  0.00000000000E+00 0. -1.
         22    1    3    3    0    0  0.25447453742E+02  0.40278823368E+02  0.21740439919E+02  0.52369869598E+02  0.00000000000E+00 0. -1.
         22    1    3    3    0    0 -0.44447614243E+02  0.76422071813E+02  0.29658375992E+03  0.30947996724E+03  0.00000000000E+00 0. -1.
</event>
<event>
 7    1  0.5977291E-006  0.4999303E+02  0.7818608E-02  0.1459524E+00
          2   -1    0    0  502    0  0.00000000000E+00  0.00000000000E+00  0.33801925389E+04  0.33801925389E+04  0.00000000000E+00 0. -1.
          1   -1    0    0  501    0 -0.00000000000E+00 -0.00000000000E+00 -0.21075914542E+03  0.21075914542E+03  0.00000000000E+00 0. -1.
         25    2    1    2    0    0 -0.39398970075E+02 -0.66428173492E+02  0.21873710719E+04  0.21923007403E+04  0.12500139482E+03 0.  0.
          2    1    1    2  501    0  0.45007874871E+02  0.21716858764E+02 -0.20486324842E+03  0.21087029498E+03  0.00000000000E+00 0. -1.
          1    1    1    2  502    0 -0.56089047956E+01  0.44711314727E+02  0.11869255701E+04  0.11877806491E+04  0.00000000000E+00 0. -1.
         22    1    3    3    0    0 -0.48910225269E+02 -0.99685269861E+02  0.17822801251E+04  0.17857356489E+04  0.00000000000E+00 0. -1.
         22    1    3    3    0    0  0.95112551944E+01  0.33257096369E+02  0.40509094676E+03  0.40656509145E+03  0.00000000000E+00 0. -1.
</event>
<event>
 7    1  0.5977291E-006  0.2398609E+03  0.7818608E-02  0.1206543E+00
          2   -1    0    0  502    0  0.00000000000E+00  0.00000000000E+00  0.47086394491E+04  0.47086394491E+04  0.00000000000E+00 0. -1.
          1   -1    0    0  501    0 -0.00000000000E+00 -0.00000000000E+00 -0.13216229088E+03  0.13216229088E+03  0.00000000000E+00 0. -1.
         25    2    1    2    0    0  0.25876312834E+03 -0.47485590608E+02  0.52368372864E+03  0.59923594158E+03  0.12500331253E+03 0.  0.
          2    1    1    2  501    0 -0.23387516466E+03 -0.36770569597E+02  0.55317874088E+02  0.24312493625E+03  0.00000000000E+00 0. -1.
          1    1    1    2  502    0 -0.24887963676E+02  0.84256160204E+02  0.39974755555E+04  0.39984408622E+04  0.00000000000E+00 0. -1.
         22    1    3    3    0    0  0.30846399978E+01 -0.21793865939E+02  0.86365713732E+01  0.23644829489E+02  0.00000000000E+00 0. -1.
         22    1    3    3    0    0  0.25567848834E+03 -0.25691724669E+02  0.51504715726E+03  0.57559111209E+03  0.00000000000E+00 0. -1.
</event>
<event>
 7    1  0.5977291E-006  0.8220200E+02  0.7818608E-02  0.1328350E+00
          2   -1    0    0  502    0  0.00000000000E+00  0.00000000000E+00  0.21705270609E+04  0.21705270609E+04  0.00000000000E+00 0. -1.
          1   -1    0    0  501    0 -0.00000000000E+00 -0.00000000000E+00 -0.13815683603E+04  0.13815683603E+04  0.00000000000E+00 0. -1.
         25    2    1    2    0    0 -0.99559076298E+02 -0.46000090270E+02  0.15517591125E+03  0.22744788533E+03  0.12499983652E+03 0.  0.
          2    1    1    2  501    0  0.76949529419E+02 -0.29006363091E+02 -0.13433993697E+04  0.13459139890E+04  0.00000000000E+00 0. -1.
          1    1    1    2  502    0  0.22609546880E+02  0.75006453361E+02  0.19771821591E+04  0.19787335470E+04  0.00000000000E+00 0. -1.
         22    1    3    3    0    0 -0.78686405508E+02 -0.81702155957E+02  0.14634714360E+03  0.18516014457E+03  0.00000000000E+00 0.  1.
         22    1    3    3    0    0 -0.20872670790E+02  0.35702065687E+02  0.88287676582E+01  0.42287740760E+02  0.00000000000E+00 0.  1.
</event>
<event>
 7    1  0.5977291E-006  0.2470509E+03  0.7818608E-02  0.1185033E+00
          2   -1    0    0  502    0  0.00000000000E+00  0.00000000000E+00  0.43280889973E+03  0.43280889973E+03  0.00000000000E+00 0. -1.
          1   -1    0    0  501    0 -0.00000000000E+00 -0.00000000000E+00 -0.15374431209E+04  0.15374431209E+04  0.00000000000E+00 0. -1.
         25    2    1    2    0    0  0.18665865417E+03 -0.50116122678E+02 -0.20814706640E+03  0.31032647980E+03  0.12499697551E+03 0.  0.
          2    1    1    2  501    0  0.69655151217E+02  0.82438846663E+02 -0.12318639722E+04  0.12365827306E+04  0.00000000000E+00 0. -1.
          1    1    1    2  502    0 -0.25631380539E+03 -0.32322723986E+02  0.33537681743E+03  0.42334281025E+03  0.00000000000E+00 0. -1.
         22    1    3    3    0    0  0.24015855608E+02 -0.60401651449E+02 -0.79563721665E+02  0.10273999525E+03  0.00000000000E+00 0. -1.
         22    1    3    3    0    0  0.16264279856E+03  0.10285528772E+02 -0.12858334474E+03  0.20758648455E+03  0.00000000000E+00 0. -1.
</event>
<event>
 7    1  0.5977291E-006  0.4488605E+02  0.7818608E-02  0.1480678E+00
          2   -1    0    0  502    0  0.00000000000E+00  0.00000000000E+00  0.11432478321E+04  0.11432478321E+04  0.00000000000E+00 0. -1.
          1   -1    0    0  501    0 -0.00000000000E+00 -0.00000000000E+00 -0.10433663674E+04  0.10433663674E+04  0.00000000000E+00 0. -1.
         25    2    1    2    0    0 -0.37521212231E+02  0.72756584276E+02  0.61561118545E+02  0.16160783783E+03  0.12500383997E+03 0.  0.
          2    1    1    2  501    0  0.33352377381E+02 -0.29825687851E+02 -0.99238788095E+03  0.99339602324E+03  0.00000000000E+00 0. -1.
          1    1    1    2  502    0  0.41688348495E+01 -0.42930896425E+02  0.10307082271E+04  0.10316103385E+04  0.00000000000E+00 0. -1.
         22    1    3    3    0    0  0.26802651811E+02  0.53532081233E+02  0.72030251105E+02  0.93661213634E+02  0.00000000000E+00 0.  1.
         22    1    3    3    0    0 -0.64323864042E+02  0.19224503043E+02 -0.10469132560E+02  0.67946624192E+02  0.00000000000E+00 0.  1.
</event>
<event>
 7    1  0.5977291E-006  0.3558038E+02  0.7818608E-02  0.1608554E+00
          2   -1    0    0  502    0  0.00000000000E+00  0.00000000000E+00  0.11875847731E+04  0.11875847731E+04  0.00000000000E+00 0. -1.
          1   -1    0    0  501    0 -0.00000000000E+00 -0.00000000000E+00 -0.12212596466E+04  0.12212596466E+04  0.00000000000E+00 0. -1.
         25    2    1    2    0    0 -0.13808766200E+02  0.49621612454E+02  0.20596892780E+00  0.13519627556E+03  0.12500001622E+03 0.  0.
          2    1    1    2  501    0 -0.86826579508E+01 -0.22114265838E+02 -0.11533602896E+04  0.11536049527E+04  0.00000000000E+00 0. -1.
          1    1    1    2  502    0  0.22491424151E+02 -0.27507346616E+02  0.11194794472E+04  0.11200431915E+04  0.00000000000E+00 0. -1.
         22    1    3    3    0    0 -0.23776332722E+02  0.64413721371E+01  0.57622284773E+02  0.62666841114E+02  0.00000000000E+00 0. -1.
         22    1    3    3    0    0  0.99675665222E+01  0.43180240316E+02 -0.57416315845E+02  0.72529434448E+02  0.00000000000E+00 0. -1.
</event>
<event>
 7    1  0.5977291E-006  0.5057899E+02  0.7818608E-02  0.1570595E+00
          2   -1    0    0  502    0  0.00000000000E+00  0.00000000000E+00  0.11318110875E+04  0.11318110875E+04  0.00000000000E+00 0. -1.
          1   -1    0    0  501    0 -0.00000000000E+00 -0.00000000000E+00 -0.44602715201E+03  0.44602715201E+03  0.00000000000E+00 0. -1.
         25    2    1    2    0    0  0.26148434257E+02  0.59639663797E+02  0.15026040344E+03  0.20601858903E+03  0.12499936029E+03 0.  0.
          2    1    1    2  501    0 -0.18580090348E+02 -0.99279679217E+01 -0.41721928429E+03  0.41775078156E+03  0.00000000000E+00 0. -1.
          1    1    1    2  502    0 -0.75683439093E+01 -0.49711695876E+02  0.95274281631E+03  0.95406886888E+03  0.00000000000E+00 0. -1.
         22    1    3    3    0    0 -0.17755414425E+02  0.26420949450E+02 -0.12499984020E+02  0.34198989922E+02  0.00000000000E+00 0. -1.
         22    1    3    3    0    0  0.43903848681E+02  0.33218714348E+02  0.16276038746E+03  0.17181959911E+03  0.00000000000E+00 0. -1.
</event>
<event>
 7    1  0.5977291E-006  0.8430015E+02  0.7818608E-02  0.1344693E+00
          2   -1    0    0  502    0  0.00000000000E+00  0.00000000000E+00  0.52663388345E+03  0.52663388345E+03  0.00000000000E+00 0. -1.
          1   -1    0    0  501    0 -0.00000000000E+00 -0.00000000000E+00 -0.24202180095E+04  0.24202180095E+04  0.00000000000E+00 0. -1.
         25    2    1    2    0    0 -0.85901250082E+02  0.11602553505E+03  0.54207838807E+02  0.19850678954E+03  0.12500202461E+03 0.  0.
          2    1    1    2  501    0  0.26858453457E+02 -0.60567285650E+02 -0.23434973259E+04  0.23444337246E+04  0.00000000000E+00 0. -1.
          1    1    1    2  502    0  0.59042796625E+02 -0.55458249401E+02  0.39570536098E+03  0.40391137885E+03  0.00000000000E+00 0. -1.
         22    1    3    3    0    0 -0.63822381248E+02 -0.33565561996E+01 -0.36578207591E+01  0.64015173751E+02  0.00000000000E+00 0.  1.
         22    1    3    3    0    0 -0.22078868835E+02  0.11938209125E+03  0.57865659566E+02  0.13449161579E+03  0.00000000000E+00 0.  1.
</event>
<event>
 7    1  0.5977291E-006  0.5576624E+02  0.7818608E-02  0.1452299E+00
          2   -1    0    0  502    0  0.00000000000E+00  0.00000000000E+00  0.81193186662E+03  0.81193186662E+03  0.00000000000E+00 0. -1.
          1   -1    0    0  501    0 -0.00000000000E+00 -0.00000000000E+00 -0.12546693542E+04  0.12546693542E+04  0.00000000000E+00 0. -1.
         25    2    1    2    0    0  0.69873300232E+02  0.61301859021E+02  0.13153737993E+03  0.20388158276E+03  0.12500168585E+03 0.  0.
          2    1    1    2  501    0 -0.29754783723E+02 -0.47015059990E+02 -0.12171572330E+04  0.12184282879E+04  0.00000000000E+00 0. -1.
          1    1    1    2  502    0 -0.40118516508E+02 -0.14286799030E+02  0.64288236549E+03  0.64429135012E+03  0.00000000000E+00 0. -1.
         22    1    3    3    0    0  0.76428129587E+02  0.89371670460E+02  0.12958867314E+03  0.17499079599E+03  0.00000000000E+00 0. -1.
         22    1    3    3    0    0 -0.65548293557E+01 -0.28069811439E+02  0.19487067852E+01  0.28890786771E+02  0.00000000000E+00 0. -1.
</event>
<event>
 7    1  0.5977291E-006  0.1049748E+03  0.7818608E-02  0.1343428E+00
          2   -1    0    0  502    0  0.00000000000E+00  0.00000000000E+00  0.41539588174E+03  0.41539588174E+03  0.00000000000E+00 0. -1.
          1   -1    0    0  501    0 -0.00000000000E+00 -0.00000000000E+00 -0.98388558105E+03  0.98388558105E+03  0.00000000000E+00 0. -1.
         25    2    1    2    0    0 -0.45468565764E+02  0.71600419609E+02 -0.45080791557E+01  0.15112699096E+03  0.12500013623E+03 0.  0.
          2    1    1    2  501    0  0.39474777415E+02  0.36538032198E+02 -0.89666956524E+03  0.89828146763E+03  0.00000000000E+00 0. -1.
          1    1    1    2  502    0  0.59937883494E+01 -0.10813845181E+03  0.33268794509E+03  0.34987300419E+03  0.00000000000E+00 0. -1.
         22    1    3    3    0    0 -0.37647719416E+02 -0.27876030140E+02  0.15529287038E+02  0.49351621954E+02  0.00000000000E+00 0. -1.
         22    1    3    3    0    0 -0.78208463483E+01  0.99476449750E+02 -0.20037366194E+02  0.10177536901E+03  0.00000000000E+00 0. -1.
</event>
<event>
 7    1  0.5977291E-006  0.1008232E+03  0.7818608E-02  0.1295606E+00
          2   -1    0    0  502    0  0.00000000000E+00  0.00000000000E+00  0.10832105139E+04  0.10832105139E+04  0.00000000000E+00 0. -1.
          1   -1    0    0  501    0 -0.00000000000E+00 -0.00000000000E+00 -0.68369646438E+03  0.68369646438E+03  0.00000000000E+00 0. -1.
         25    2    1    2    0    0  0.19728913737E+02  0.76133753656E+02  0.54118306331E+02  0.15728998691E+03  0.12500308164E+03 0.  0.
          2    1    1    2  501    0 -0.96144930150E+02 -0.36909226256E+02 -0.62600818469E+03  0.63442287622E+03  0.00000000000E+00 0. -1.
          1    1    1    2  502    0  0.76416016413E+02 -0.39224527399E+02  0.97140392792E+03  0.97519411518E+03  0.00000000000E+00 0. -1.
         22    1    3    3    0    0 -0.39081481010E+02  0.79695529388E+02  0.31818914531E+02  0.94293069121E+02  0.00000000000E+00 0.  1.
         22    1    3    3    0    0  0.58810394747E+02 -0.35617757323E+01  0.22299391800E+02  0.62996917792E+02  0.00000000000E+00 0.  1.
</event>
<event>
 7    1  0.5977291E-006  0.6923502E+02  0.7818608E-02  0.1376677E+00
          2   -1    0    0  502    0  0.00000000000E+00  0.00000000000E+00  0.15761616688E+04  0.15761616688E+04  0.00000000000E+00 0. -1.
          1   -1    0    0  501    0 -0.00000000000E+00 -0.00000000000E+00 -0.14825263025E+04  0.14825263025E+04  0.00000000000E+00 0. -1.
         25    2    1    2    0    0 -0.26763828826E+02 -0.12785265572E+03 -0.12053959028E+03  0.21729504079E+03  0.12499895127E+03 0.  0.
          2    1    1    2  501    0  0.13014726803E+02  0.60285196484E+02 -0.13121062989E+04  0.13135549580E+04  0.00000000000E+00 0. -1.
          1    1    1    2  502    0  0.13749102024E+02  0.67567459234E+02  0.15262812555E+04  0.15278379725E+04  0.00000000000E+00 0. -1.
         22    1    3    3    0    0 -0.67013892434E+02 -0.83201757092E+02 -0.34365187509E+02  0.11222459746E+03  0.00000000000E+00 0. -1.
         22    1    3    3    0    0  0.40250063608E+02 -0.44650898626E+02 -0.86174402773E+02  0.10507044333E+03  0.00000000000E+00 0. -1.
</event>
<event>
 7    1  0.5977291E-006  0.1308532E+03  0.7818608E-02  0.1303617E+00
          2   -1    0    0  502    0  0.00000000000E+00  0.00000000000E+00  0.23254070032E+03  0.23254070032E+03  0.00000000000E+00 0. -1.
          1   -1    0    0  501    0 -0.00000000000E+00 -0.00000000000E+00 -0.98160412433E+03  0.98160412433E+03  0.00000000000E+00 0. -1.
         25    2    1    2    0    0 -0.12529437684E+03 -0.10331712017E+03  0.43359986957E+02  0.20947085545E+03  0.12499937050E+03 0.  0.
          2    1    1    2  501    0  0.12311400760E+03  0.41887218490E+02 -0.88447588996E+03  0.89398500986E+03  0.00000000000E+00 0. -1.
          1    1    1    2  502    0  0.21803692368E+01  0.61429901681E+02  0.92052478995E+02  0.11068895934E+03  0.00000000000E+00 0. -1.
         22    1    3    3    0    0 -0.14964916465E+03 -0.83208120444E+02  0.47307679864E+02  0.17764143763E+03  0.00000000000E+00 0. -1.
         22    1    3    3    0    0  0.24354787811E+02 -0.20108999727E+02 -0.39476929070E+01  0.31829417818E+02  0.00000000000E+00 0. -1.
</event>
<event>
 7    1  0.5977291E-006  0.4884021E+02  0.7818608E-02  0.1485417E+00
          2   -1    0    0  502    0  0.00000000000E+00  0.00000000000E+00  0.54890384009E+03  0.54890384009E+03  0.00000000000E+00 0. -1.
          1   -1    0    0  501    0 -0.00000000000E+00 -0.00000000000E+00 -0.90651202452E+03  0.90651202452E+03  0.00000000000E+00 0. -1.
         25    2    1    2    0    0 -0.19593278197E+02  0.28035883225E+02  0.43831083353E+03  0.45706533485E+03  0.12498970453E+03 0.  0.
          2    1    1    2  501    0  0.48778279376E+02 -0.31706273361E+01 -0.89281110300E+03  0.89414821985E+03  0.00000000000E+00 0. -1.
          1    1    1    2  502    0 -0.29185001178E+02 -0.24865255889E+02  0.96892085052E+02  0.10420230991E+03  0.00000000000E+00 0. -1.
         22    1    3    3    0    0  0.43203677353E+02  0.45900687820E+02  0.24718603234E+03  0.25509677666E+03  0.00000000000E+00 0. -1.
         22    1    3    3    0    0 -0.62796955551E+02 -0.17864804595E+02  0.19112480119E+03  0.20196855820E+03  0.00000000000E+00 0. -1.
</event>
<event>
 7    1  0.5977291E-006  0.7216338E+02  0.7818608E-02  0.1436705E+00
          2   -1    0    0  502    0  0.00000000000E+00  0.00000000000E+00  0.11266796126E+04  0.11266796126E+04  0.00000000000E+00 0. -1.
          1   -1    0    0  501    0 -0.00000000000E+00 -0.00000000000E+00 -0.56652648921E+02  0.56652648921E+02  0.00000000000E+00 0. -1.
         25    2    1    2    0    0 -0.78298200559E+02  0.69621738343E+01  0.39378705844E+03  0.42056202202E+03  0.12500034759E+03 0.  0.
          2    1    1    2  501    0  0.66636394136E+02  0.28098897231E+02 -0.12199306416E+02  0.73340167207E+02  0.00000000000E+00 0. -1.
          1    1    1    2  502    0  0.11661806423E+02 -0.35061071065E+02  0.68843921169E+03  0.68943007232E+03  0.00000000000E+00 0. -1.
         22    1    3    3    0    0  0.12975296880E+02  0.21468518930E+01 -0.29115327181E+01  0.13470127132E+02  0.00000000000E+00 0.  1.
         22    1    3    3    0    0 -0.91273497439E+02  0.48153219413E+01  0.39669859116E+03  0.40709189489E+03  0.00000000000E+00 0.  1.
</event>
<event>
 7    1  0.5977291E-006  0.1258208E+03  0.7818608E-02  0.1287856E+00
          2   -1    0    0  502    0  0.00000000000E+00  0.00000000000E+00  0.60649310014E+03  0.60649310014E+03  0.00000000000E+00 0. -1.
          1   -1    0    0  501    0 -0.00000000000E+00 -0.00000000000E+00 -0.12632622502E+04  0.12632622502E+04  0.00000000000E+00 0. -1.
         25    2    1    2    0    0 -0.15691207996E+03  0.29945516524E+02  0.15736394240E+03  0.25672115719E+03  0.12499682950E+03 0.  0.
          2    1    1    2  501    0  0.59700538644E+02  0.43718284068E+02 -0.12031098141E+04  0.12053832036E+04  0.00000000000E+00 0. -1.
          1    1    1    2  502    0  0.97211541320E+02 -0.73663800592E+02  0.38897672167E+03  0.40765098955E+03  0.00000000000E+00 0. -1.
         22    1    3    3    0    0 -0.55151278525E+02  0.68819238074E+02  0.10094914321E+03  0.13404656119E+03  0.00000000000E+00 0.  1.
         22    1    3    3    0    0 -0.10176080144E+03 -0.38873721551E+02  0.56414799183E+02  0.12267459600E+03  0.00000000000E+00 0.  1.
</event>
<event>
 7    1  0.5977291E-006  0.1118153E+03  0.7818608E-02  0.1299708E+00
          2   -1    0    0  502    0  0.00000000000E+00  0.00000000000E+00  0.40127364205E+03  0.40127364205E+03  0.00000000000E+00 0. -1.
          1   -1    0    0  501    0 -0.00000000000E+00 -0.00000000000E+00 -0.17570393969E+04  0.17570393969E+04  0.00000000000E+00 0. -1.
         25    2    1    2    0    0  0.13143957212E+02  0.18071608466E+03 -0.35496087617E+03  0.41767793654E+03  0.12500627262E+03 0.  0.
          2    1    1    2  501    0  0.12883114111E+02 -0.73444898345E+02 -0.13614423111E+04  0.13634827810E+04  0.00000000000E+00 0. -1.
          1    1    1    2  502    0 -0.26027071322E+02 -0.10727118631E+03  0.36063743243E+03  0.37715232138E+03  0.00000000000E+00 0. -1.
         22    1    3    3    0    0  0.48585267779E+01  0.43941793578E+02 -0.83852680744E+01  0.44997769122E+02  0.00000000000E+00 0. -1.
         22    1    3    3    0    0  0.82854304337E+01  0.13677429108E+03 -0.34657560810E+03  0.37268016742E+03  0.00000000000E+00 0. -1.
</event>
<event>
 7    1  0.5977291E-006  0.1441027E+03  0.7818608E-02  0.1345928E+00
          2   -1    0    0  502    0  0.00000000000E+00  0.00000000000E+00  0.20268445316E+04  0.20268445316E+04  0.00000000000E+00 0. -1.
          1   -1    0    0  501    0 -0.00000000000E+00 -0.00000000000E+00 -0.71873192296E+02  0.71873192296E+02  0.00000000000E+00 0. -1.
         25    2    1    2    0    0  0.13971234157E+03  0.11161858517E+03  0.16201045077E+04  0.16347297617E+04  0.12499812407E+03 0.  0.
          2    1    1    2  501    0 -0.10423880536E+03 -0.97045216118E+02  0.16560588523E+02  0.14337976010E+03  0.00000000000E+00 0. -1.
          1    1    1    2  502    0 -0.35473536205E+02 -0.14573369050E+02  0.31830624304E+03  0.32060820204E+03  0.00000000000E+00 0. -1.
         22    1    3    3    0    0  0.33305508278E+02  0.10552543225E+03  0.90101257329E+03  0.90778220459E+03  0.00000000000E+00 0.  1.
         22    1    3    3    0    0  0.10640683329E+03  0.60931529217E+01  0.71909193441E+03  0.72694755713E+03  0.00000000000E+00 0.  1.
</event>
<event>
 7    1  0.5977291E-006  0.2011127E+03  0.7818608E-02  0.1301966E+00
          2   -1    0    0  502    0  0.00000000000E+00  0.00000000000E+00  0.16809473147E+04  0.16809473147E+04  0.00000000000E+00 0. -1.
          1   -1    0    0  501    0 -0.00000000000E+00 -0.00000000000E+00 -0.96517805803E+03  0.96517805803E+03  0.00000000000E+00 0. -1.
         25    2    1    2    0    0  0.23071126138E+03 -0.17019912180E+02 -0.21388381432E+03  0.33893483946E+03  0.12495269440E+03 0.  0.
          2    1    1    2  501    0 -0.30479753092E+02  0.26827868277E+02 -0.68195449652E+03  0.68316226856E+03  0.00000000000E+00 0. -1.
          1    1    1    2  502    0 -0.20023150828E+03 -0.98079560969E+01  0.16116075675E+04  0.16240282647E+04  0.00000000000E+00 0. -1.
         22    1    3    3    0    0  0.11831448975E+03  0.49672255482E+02 -0.13512285385E+03  0.18634333120E+03  0.00000000000E+00 0. -1.
         22    1    3    3    0    0  0.11239677163E+03 -0.66692167663E+02 -0.78760960461E+02  0.15259150826E+03  0.00000000000E+00 0. -1.
</event>
<event>
 7    1  0.5977291E-006  0.6441759E+02  0.7818608E-02  0.1396876E+00
          2   -1    0    0  502    0  0.00000000000E+00  0.00000000000E+00  0.15011316168E+02  0.15011316168E+02  0.00000000000E+00 0. -1.
          1   -1    0    0  501    0 -0.00000000000E+00 -0.00000000000E+00 -0.13778408742E+04  0.13778408742E+04  0.00000000000E+00 0. -1.
         25    2    1    2    0    0  0.51958802603E+01  0.14403029871E+02 -0.96839643229E+03  0.97655062926E+03  0.12500014792E+03 0.  0.
          2    1    1    2  501    0  0.58417805394E+02 -0.27147481044E+02 -0.24628992514E+03  0.25457484742E+03  0.00000000000E+00 0. -1.
          1    1    1    2  502    0 -0.63613685654E+02  0.12744451174E+02 -0.14814320061E+03  0.16172671371E+03  0.00000000000E+00 0. -1.
         22    1    3    3    0    0  0.49421917999E+02  0.43975166843E+02 -0.37647229237E+03  0.38224040629E+03  0.00000000000E+00 0.  1.
         22    1    3    3    0    0 -0.44226037739E+02 -0.29572136973E+02 -0.59192413992E+03  0.59431022297E+03  0.00000000000E+00 0.  1.
</event>
<event>
 7    1  0.5977291E-006  0.1068790E+03  0.7818608E-02  0.1345503E+00
          2   -1    0    0  502    0  0.00000000000E+00  0.00000000000E+00  0.22638211434E+03  0.22638211434E+03  0.00000000000E+00 0. -1.
          1   -1    0    0  501    0 -0.00000000000E+00 -0.00000000000E+00 -0.10476134970E+04  0.10476134970E+04  0.00000000000E+00 0. -1.
         25    2    1    2    0    0 -0.41193559567E+02 -0.42965797003E+02 -0.82649772894E+02  0.16124456310E+03  0.12500342039E+03 0.  0.
          2    1    1    2  501    0  0.69378440316E+02  0.86541362369E+02 -0.91866617832E+03  0.92533795047E+03  0.00000000000E+00 0. -1.
          1    1    1    2  502    0 -0.28184880750E+02 -0.43575565366E+02  0.18008456853E+03  0.18741309779E+03  0.00000000000E+00 0. -1.
         22    1    3    3    0    0 -0.23027234122E+02 -0.66191911170E+01 -0.10979434560E+03  0.11237822533E+03  0.00000000000E+00 0. -1.
         22    1    3    3    0    0 -0.18166325444E+02 -0.36346605886E+02  0.27144572709E+02  0.48866337771E+02  0.00000000000E+00 0. -1.
</event>
<event>
 7    1  0.5977291E-006  0.4605407E+02  0.7818608E-02  0.1513706E+00
          2   -1    0    0  502    0  0.00000000000E+00  0.00000000000E+00  0.56649233218E+03  0.56649233218E+03  0.00000000000E+00 0. -1.
          1   -1    0    0  501    0 -0.00000000000E+00 -0.00000000000E+00 -0.16496481644E+04  0.16496481644E+04  0.00000000000E+00 0. -1.
         25    2    1    2    0    0 -0.93822569252E+01 -0.13423638224E+02 -0.12794446424E+04  0.12856392506E+04  0.12498587501E+03 0.  0.
          2    1    1    2  501    0  0.75247922802E+01 -0.32616710349E+02 -0.36539779788E+03  0.36692781713E+03  0.00000000000E+00 0. -1.
          1    1    1    2  502    0  0.18574646450E+01  0.46040348573E+02  0.56168660812E+03  0.56357342877E+03  0.00000000000E+00 0. -1.
         22    1    3    3    0    0 -0.31226377797E+02  0.37677779062E+02 -0.25287594438E+03  0.25756736002E+03  0.00000000000E+00 0.  1.
         22    1    3    3    0    0  0.21844120872E+02 -0.51101417286E+02 -0.10265686980E+04  0.10280718906E+04  0.00000000000E+00 0.  1.
</event>
<event>
 7    1  0.5977291E-006  0.8814029E+02  0.7818608E-02  0.1331489E+00
          2   -1    0    0  502    0  0.00000000000E+00  0.00000000000E+00  0.36147435058E+03  0.36147435058E+03  0.00000000000E+00 0. -1.
          1   -1    0    0  501    0 -0.00000000000E+00 -0.00000000000E+00 -0.59682208968E+03  0.59682208968E+03  0.00000000000E+00 0. -1.
         25    2    1    2    0    0  0.68504751661E+02 -0.22203222152E+01  0.45917883153E+02  0.14977160702E+03  0.12500100578E+03 0.  0.
          2    1    1    2  501    0 -0.77857444276E+01 -0.70644147108E+02 -0.53393269421E+03  0.53864212171E+03  0.00000000000E+00 0. -1.
          1    1    1    2  502    0 -0.60719007234E+02  0.72864469323E+02  0.25266707195E+03  0.26988271152E+03  0.00000000000E+00 0. -1.
         22    1    3    3    0    0  0.65659761149E+02 -0.54550441655E+02  0.93646331153E+01  0.85875789791E+02  0.00000000000E+00 0.  1.
         22    1    3    3    0    0  0.28449905127E+01  0.52330119440E+02  0.36553250038E+02  0.63895817234E+02  0.00000000000E+00 0.  1.
</event>
<event>
 7    1  0.5977291E-006  0.1666525E+03  0.7818608E-02  0.1184731E+00
          2   -1    0    0  502    0  0.00000000000E+00  0.00000000000E+00  0.15817539589E+04  0.15817539589E+04  0.00000000000E+00 0. -1.
          1   -1    0    0  501    0 -0.00000000000E+00 -0.00000000000E+00 -0.51331570183E+03  0.51331570183E+03  0.00000000000E+00 0. -1.
         25    2    1    2    0    0 -0.42890637977E+02 -0.23451114002E+03  0.59620631852E+03  0.65415760557E+03  0.12500046822E+03 0.  0.
          2    1    1    2  501    0 -0.84487559311E+02  0.13650129597E+03 -0.46399975506E+03  0.49098525862E+03  0.00000000000E+00 0. -1.
          1    1    1    2  502    0  0.12737819729E+03  0.98009844049E+02  0.93623169361E+03  0.94992679655E+03  0.00000000000E+00 0. -1.
         22    1    3    3    0    0 -0.46906125135E+02 -0.18186365124E+03  0.55861354449E+03  0.58934172117E+03  0.00000000000E+00 0.  1.
         22    1    3    3    0    0  0.40154871582E+01 -0.52647488771E+02  0.37592774031E+02  0.64815884399E+02  0.00000000000E+00 0.  1.
</event>
<event>
 7    1  0.5977291E-006  0.1624112E+03  0.7818608E-02  0.1387012E+00
          2   -1    0    0  502    0  0.00000000000E+00  0.00000000000E+00  0.88900491669E+03  0.88900491669E+03  0.00000000000E+00 0. -1.
          1   -1    0    0  501    0 -0.00000000000E+00 -0.00000000000E+00 -0.29685946290E+04  0.29685946290E+04  0.00000000000E+00 0. -1.
         25    2    1    2    0    0  0.17859609038E+03  0.37566534780E+02 -0.18960644571E+03  0.29134656934E+03  0.12499764468E+03 0.  0.
          2    1    1    2  501    0 -0.15995700476E+03 -0.22176155527E+02 -0.27255534455E+04  0.27303332415E+04  0.00000000000E+00 0. -1.
          1    1    1    2  502    0 -0.18639085624E+02 -0.15390379252E+02  0.83557017890E+03  0.83591973487E+03  0.00000000000E+00 0. -1.
         22    1    3    3    0    0  0.19476247132E+02 -0.37616112180E+02 -0.19667434608E+02  0.46702292042E+02  0.00000000000E+00 0. -1.
         22    1    3    3    0    0  0.15911984325E+03  0.75182646960E+02 -0.16993901110E+03  0.24464427730E+03  0.00000000000E+00 0. -1.
</event>
<event>
 7    1  0.5977291E-006  0.1326498E+03  0.7818608E-02  0.1279946E+00
          2   -1    0    0  502    0  0.00000000000E+00  0.00000000000E+00  0.20461615933E+04  0.20461615933E+04  0.00000000000E+00 0. -1.
          1   -1    0    0  501    0 -0.00000000000E+00 -0.00000000000E+00 -0.56021149269E+02  0.56021149269E+02  0.00000000000E+00 0. -1.
         25    2    1    2    0    0  0.80670449366E+02 -0.15894689077E+02  0.61209088433E+03  0.63011109663E+03  0.12499752351E+03 0.  0.
          2    1    1    2  501    0  0.72516261664E+02 -0.21506208863E+02 -0.89243295859E+01  0.76162778862E+02  0.00000000000E+00 0. -1.
          1    1    1    2  502    0 -0.15318671103E+03  0.37400897940E+02  0.13869738893E+04  0.13959088671E+04  0.00000000000E+00 0. -1.
         22    1    3    3    0    0  0.69840212660E+01  0.19791307971E+02  0.11433916528E+02  0.23899934549E+02  0.00000000000E+00 0. -1.
         22    1    3    3    0    0  0.73686428100E+02 -0.35685997048E+02  0.60065696780E+03  0.60621116209E+03  0.00000000000E+00 0. -1.
</event>
<event>
 7    1  0.5977291E-006  0.9854744E+02  0.7818608E-02  0.1426445E+00
          2   -1    0    0  502    0  0.00000000000E+00  0.00000000000E+00  0.70022402765E+03  0.70022402765E+03  0.00000000000E+00 0. -1.
          1   -1    0    0  501    0 -0.00000000000E+00 -0.00000000000E+00 -0.46697729414E+03  0.46697729414E+03  0.00000000000E+00 0. -1.
         25    2    1    2    0    0  0.66463047544E+02  0.10648767299E+03  0.71248827603E+02  0.19094122452E+03  0.12500077839E+03 0.  0.
          2    1    1    2  501    0 -0.18969186047E+02 -0.22252475700E+02 -0.40248919535E+03  0.40354994123E+03  0.00000000000E+00 0. -1.
          1    1    1    2  502    0 -0.47493861498E+02 -0.84235197294E+02  0.56448710126E+03  0.57271015604E+03  0.00000000000E+00 0. -1.
         22    1    3    3    0    0  0.82839141922E+02  0.79417490830E+02  0.96911130497E+02  0.15020395633E+03  0.00000000000E+00 0. -1.
         22    1    3    3    0    0 -0.16376094378E+02  0.27070182164E+02 -0.25662302894E+02  0.40737268187E+02  0.00000000000E+00 0. -1.
</event>
<event>
 7    1  0.5977291E-006  0.4293712E+02  0.7818608E-02  0.1518791E+00
          2   -1    0    0  502    0  0.00000000000E+00  0.00000000000E+00  0.12429680249E+03  0.12429680249E+03  0.00000000000E+00 0. -1.
          1   -1    0    0  501    0 -0.00000000000E+00 -0.00000000000E+00 -0.18821090315E+03  0.18821090315E+03  0.00000000000E+00 0. -1.
         25    2    1    2    0    0  0.26876888292E+02  0.11578138636E+02 -0.79078489901E+02  0.15078105804E+03  0.12500039792E+03 0.  0.
          2    1    1    2  501    0 -0.15416316964E+02  0.31084090844E+02 -0.63011655298E+02  0.71932970436E+02  0.00000000000E+00 0. -1.
          1    1    1    2  502    0 -0.11460571328E+02 -0.42662229479E+02  0.78176044538E+02  0.89793677166E+02  0.00000000000E+00 0. -1.
         22    1    3    3    0    0 -0.50398581408E+02  0.39091401974E+01 -0.27352668297E+02  0.57475793583E+02  0.00000000000E+00 0.  1.
         22    1    3    3    0    0  0.77275469701E+02  0.76689984384E+01 -0.51725821604E+02  0.93305264456E+02  0.00000000000E+00 0.  1.
</event>
<event>
 7    1  0.5977291E-006  0.9448944E+02  0.7818608E-02  0.1396154E+00
          2   -1    0    0  502    0  0.00000000000E+00  0.00000000000E+00  0.13665590774E+04  0.13665590774E+04  0.00000000000E+00 0. -1.
          1   -1    0    0  501    0 -0.00000000000E+00 -0.00000000000E+00 -0.47946688307E+03  0.47946688307E+03  0.00000000000E+00 0. -1.
         25    2    1    2    0    0 -0.83107832485E+02 -0.90003854951E+02 -0.17344336728E+03  0.24640813393E+03  0.12500704416E+03 0.  0.
          2    1    1    2  501    0  0.47290460143E+02  0.75583264876E+02 -0.26187871967E+03  0.27663998512E+03  0.00000000000E+00 0. -1.
          1    1    1    2  502    0  0.35817372342E+02  0.14420590076E+02  0.13224142812E+04  0.13229778414E+04  0.00000000000E+00 0. -1.
         22    1    3    3    0    0  0.14351976587E+02 -0.33536226654E+02 -0.11265778354E+03  0.11841635834E+03  0.00000000000E+00 0.  1.
         22    1    3    3    0    0 -0.97459809072E+02 -0.56467628297E+02 -0.60785583739E+02  0.12799177560E+03  0.00000000000E+00 0.  1.
</event>
<event>
 7    1  0.5977291E-006  0.3643369E+02  0.7818608E-02  0.1590586E+00
          2   -1    0    0  502    0  0.00000000000E+00  0.00000000000E+00  0.12397997505E+04  0.12397997505E+04  0.00000000000E+00 0. -1.
          1   -1    0    0  501    0 -0.00000000000E+00 -0.00000000000E+00 -0.10195695176E+03  0.10195695176E+03  0.00000000000E+00 0. -1.
         25    2    1    2    0    0  0.34036210245E+02  0.42220076439E+02 -0.28973198404E+02  0.13929683164E+03  0.12499265025E+03 0.  0.
          2    1    1    2  501    0 -0.24886020439E+02 -0.69991278084E+01 -0.80149282309E+01  0.27065492382E+02  0.00000000000E+00 0. -1.
          1    1    1    2  502    0 -0.91501898066E+01 -0.35220948630E+02  0.11748309254E+04  0.11753943783E+04  0.00000000000E+00 0. -1.
         22    1    3    3    0    0  0.60926865730E+02 -0.17304095355E+02 -0.37217857521E+02  0.73462123589E+02  0.00000000000E+00 0.  1.
         22    1    3    3    0    0 -0.26890655485E+02  0.59524171793E+02  0.82446591168E+01  0.65834708050E+02  0.00000000000E+00 0.  1.
</event>
<event>
 7    1  0.5977291E-006  0.6521705E+02  0.7818608E-02  0.1487335E+00
          2   -1    0    0  502    0  0.00000000000E+00  0.00000000000E+00  0.17934308404E+04  0.17934308404E+04  0.00000000000E+00 0. -1.
          1   -1    0    0  501    0 -0.00000000000E+00 -0.00000000000E+00 -0.40961967964E+03  0.40961967964E+03  0.00000000000E+00 0. -1.
         25    2    1    2    0    0  0.31932051646E+02 -0.25225708368E+02  0.86313264215E+02  0.15727614712E+03  0.12501925687E+03 0.  0.
          2    1    1    2  501    0  0.28314285859E+02 -0.95129693159E+00 -0.37295549780E+03  0.37402995481E+03  0.00000000000E+00 0. -1.
          1    1    1    2  502    0 -0.60246337505E+02  0.26177005300E+02  0.16704533944E+04  0.16717444181E+04  0.00000000000E+00 0. -1.
         22    1    3    3    0    0  0.24271763792E+02  0.36933230641E+02 -0.71498169015E+01  0.44769430696E+02  0.00000000000E+00 0. -1.
         22    1    3    3    0    0  0.76602878537E+01 -0.62158939010E+02  0.93463081117E+02  0.11250671642E+03  0.00000000000E+00 0. -1.
</event>
<event>
 7    1  0.5977291E-006  0.6748308E+02  0.7818608E-02  0.1399493E+00
          2   -1    0    0  502    0  0.00000000000E+00  0.00000000000E+00  0.36346301253E+03  0.36346301253E+03  0.00000000000E+00 0. -1.
          1   -1    0    0  501    0 -0.00000000000E+00 -0.00000000000E+00 -0.78789342206E+03  0.78789342206E+03  0.00000000000E+00 0. -1.
         25    2    1    2    0    0  0.31453735105E+02 -0.20063342547E+02  0.64890011796E+01  0.13060890242E+03  0.12499881235E+03 0.  0.
          2    1    1    2  501    0 -0.65487220576E+02 -0.20106002756E+02 -0.72184912914E+03  0.72509240283E+03  0.00000000000E+00 0. -1.
          1    1    1    2  502    0  0.34033485471E+02  0.40169345303E+02  0.29092971843E+03  0.29565512933E+03  0.00000000000E+00 0. -1.
         22    1    3    3    0    0  0.11971220692E+02  0.51321508864E+02  0.18072624543E+02  0.55712001892E+02  0.00000000000E+00 0. -1.
         22    1    3    3    0    0  0.19482514413E+02 -0.71384851411E+02 -0.11583623364E+02  0.74896900530E+02  0.00000000000E+00 0. -1.
</event>
<event>
 7    1  0.5977291E-006  0.7597437E+02  0.7818608E-02  0.1385095E+00
          2   -1    0    0  502    0  0.00000000000E+00  0.00000000000E+00  0.53393266890E+03  0.53393266890E+03  0.00000000000E+00 0. -1.
          1   -1    0    0  501    0 -0.00000000000E+00 -0.00000000000E+00 -0.12178811563E+03  0.12178811563E+03  0.00000000000E+00 0. -1.
         25    2    1    2    0    0 -0.52881235364E+02 -0.47274227087E+02  0.18325998715E+03  0.23289144880E+03  0.12499170546E+03 0.  0.
          2    1    1    2  501    0 -0.26990668450E+02  0.45006272912E+02 -0.84471611767E+02  0.99446035514E+02  0.00000000000E+00 0. -1.
          1    1    1    2  502    0  0.79871903814E+02  0.22679541755E+01  0.31335617789E+03  0.32338330022E+03  0.00000000000E+00 0. -1.
         22    1    3    3    0    0 -0.94396452128E+00 -0.81470052129E+02  0.10715494110E+03  0.13461219063E+03  0.00000000000E+00 0. -1.
         22    1    3    3    0    0 -0.51937270842E+02  0.34195825042E+02  0.76105046048E+02  0.98279258172E+02  0.00000000000E+00 0. -1.
</event>
<event>
 7    1  0.5977291E-006  0.7363599E+02  0.7818608E-02  0.1383879E+00
          2   -1    0    0  502    0  0.00000000000E+00  0.00000000000E+00  0.25546870357E+03  0.25546870357E+03  0.00000000000E+00 0. -1.
          1   -1    0    0  501    0 -0.00000000000E+00 -0.00000000000E+00 -0.15586122875E+03  0.15586122875E+03  0.00000000000E+00 0. -1.
         25    2    1    2    0    0 -0.42277807592E+02 -0.58570236158E+02  0.12465787488E+03  0.19074169529E+03  0.12499969189E+03 0.  0.
          2    1    1    2  501    0  0.49932865513E+02 -0.22288662231E+02 -0.97476129192E+02  0.11176614552E+03  0.00000000000E+00 0. -1.
          1    1    1    2  502    0 -0.76550579215E+01  0.80858898389E+02  0.72425729137E+02  0.10882209151E+03  0.00000000000E+00 0. -1.
         22    1    3    3    0    0 -0.22699860273E+02 -0.79403644688E+02  0.23851794585E+02  0.85960052065E+02  0.00000000000E+00 0.  1.
         22    1    3    3    0    0 -0.19577947319E+02  0.20833408530E+02  0.10080608029E+03  0.10478164322E+03  0.00000000000E+00 0.  1.
</event>
<event>
 7    1  0.5977291E-006  0.3712937E+02  0.7818608E-02  0.1532744E+00
          2   -1    0    0  502    0  0.00000000000E+00  0.00000000000E+00  0.18734199876E+03  0.18734199876E+03  0.00000000000E+00 0. -1.
          1   -1    0    0  501    0 -0.00000000000E+00 -0.00000000000E+00 -0.12339342823E+03  0.12339342823E+03  0.00000000000E+00 0. -1.
         25    2    1    2    0    0  0.29275929406E+02  0.19940283915E+02  0.31096826261E+02  0.13358846062E+03  0.12499667693E+03 0.  0.
          2    1    1    2  501    0 -0.31596352159E+02  0.18425960002E+02 -0.63572811648E+02  0.73344037608E+02  0.00000000000E+00 0. -1.
          1    1    1    2  502    0  0.23204227533E+01 -0.38366243917E+02  0.96424555917E+02  0.10380292875E+03  0.00000000000E+00 0. -1.
         22    1    3    3    0    0  0.28723439259E+01 -0.29737844703E+02  0.62417063931E+02  0.69198841298E+02  0.00000000000E+00 0.  1.
         22    1    3    3    0    0  0.26403585480E+02  0.49678128619E+02 -0.31320237670E+02  0.64389619326E+02  0.00000000000E+00 0.  1.
</event>
<event>
 7    1  0.5977291E-006  0.1771362E+03  0.7818608E-02  0.1223536E+00
          2   -1    0    0  502    0  0.00000000000E+00  0.00000000000E+00  0.68807331346E+03  0.68807331346E+03  0.00000000000E+00 0. -1.
          1   -1    0    0  501    0 -0.00000000000E+00 -0.00000000000E+00 -0.19611129418E+04  0.19611129418E+04  0.00000000000E+00 0. -1.
         25    2    1    2    0    0  0.95842606102E+02 -0.25057520502E+02 -0.26305656164E+03  0.30763377547E+03  0.12500440278E+03 0.  0.
          2    1    1    2  501    0 -0.19488676541E+03  0.33183908658E+02 -0.16661831018E+04  0.16778701237E+04  0.00000000000E+00 0. -1.
          1    1    1    2  502    0  0.99044159307E+02 -0.81263881567E+01  0.65620003514E+03  0.66368235610E+03  0.00000000000E+00 0. -1.
         22    1    3    3    0    0  0.38830650455E+02  0.84427446868E+01 -0.36197573771E+01  0.39902405893E+02  0.00000000000E+00 0.  1.
         22    1    3    3    0    0  0.57011955647E+02 -0.33500265188E+02 -0.25943680426E+03  0.26773136958E+03  0.00000000000E+00 0.  1.
</event>
<event>
 7    1  0.5977291E-006  0.8700976E+02  0.7818608E-02  0.1342121E+00
          2   -1    0    0  502    0  0.00000000000E+00  0.00000000000E+00  0.10249734135E+04  0.10249734135E+04  0.00000000000E+00 0. -1.
          1   -1    0    0  501    0 -0.00000000000E+00 -0.00000000000E+00 -0.78652804863E+03  0.78652804863E+03  0.00000000000E+00 0. -1.
         25    2    1    2    0    0 -0.75133006629E+02 -0.18255169292E+02 -0.22655332671E+03  0.27005543634E+03  0.12500123584E+03 0.  0.
          2    1    1    2  501    0  0.79335136768E+02 -0.47241188477E+02 -0.53317790690E+03  0.54111410462E+03  0.00000000000E+00 0. -1.
          1    1    1    2  502    0 -0.42021301392E+01  0.65496357769E+02  0.99817659848E+03  0.10003319212E+04  0.00000000000E+00 0. -1.
         22    1    3    3    0    0 -0.36622960490E+02 -0.18598946036E+02 -0.22784929359E+03  0.23152205644E+03  0.00000000000E+00 0.  1.
         22    1    3    3    0    0 -0.38510046139E+02  0.34377674387E+00  0.12959668825E+01  0.38533379896E+02  0.00000000000E+00 0.  1.
</event>
<event>
 7    1  0.5977291E-006  0.9199372E+02  0.7818608E-02  0.1312012E+00
          2   -1    0    0  502    0  0.00000000000E+00  0.00000000000E+00  0.68780445622E+03  0.68780445622E+03  0.00000000000E+00 0. -1.
          1   -1    0    0  501    0 -0.00000000000E+00 -0.00000000000E+00 -0.76782219619E+03  0.76782219619E+03  0.00000000000E+00 0. -1.
         25    2    1    2    0    0 -0.11260116696E+03  0.93961404949E+01 -0.12846136674E+03  0.21188315694E+03  0.12499935677E+03 0.  0.
          2    1    1    2  501    0  0.53163067286E+02  0.61111670841E+02 -0.59158544267E+03  0.59710491877E+03  0.00000000000E+00 0. -1.
          1    1    1    2  502    0  0.59438099678E+02 -0.70507811336E+02  0.64002906944E+03  0.64663857670E+03  0.00000000000E+00 0. -1.
         22    1    3    3    0    0 -0.33276970878E+02  0.41549392306E+02  0.48568059803E+01  0.53453693568E+02  0.00000000000E+00 0.  1.
         22    1    3    3    0    0 -0.79324196087E+02 -0.32153251811E+02 -0.13331817272E+03  0.15842946337E+03  0.00000000000E+00 0.  1.
</event>
<event>
 7    1  0.5977291E-006  0.3574528E+02  0.7818608E-02  0.1623729E+00
          2   -1    0    0  502    0  0.00000000000E+00  0.00000000000E+00  0.78126478444E+03  0.78126478444E+03  0.00000000000E+00 0. -1.
          1   -1    0    0  501    0 -0.00000000000E+00 -0.00000000000E+00 -0.12944269763E+04  0.12944269763E+04  0.00000000000E+00 0. -1.
         25    2    1    2    0    0  0.12603012237E+00  0.57350245022E+02 -0.11528804243E+04  0.11610544122E+04  0.12500003595E+03 0.  0.
          2    1    1    2  501    0 -0.62038070912E+00 -0.21616061286E+02 -0.13619521343E+03  0.13790132392E+03  0.00000000000E+00 0. -1.
          1    1    1    2  502    0  0.49435058675E+00 -0.35734183736E+02  0.77591344591E+03  0.77673602453E+03  0.00000000000E+00 0. -1.
         22    1    3    3    0    0 -0.93072825418E+01  0.43567307139E+02 -0.11942415957E+03  0.12746319331E+03  0.00000000000E+00 0.  1.
         22    1    3    3    0    0  0.94333126642E+01  0.13782937883E+02 -0.10334562647E+04  0.10335912189E+04  0.00000000000E+00 0.  1.
</event>
<event>
 7    1  0.5977291E-006  0.5556129E+02  0.7818608E-02  0.1541481E+00
          2   -1    0    0  502    0  0.00000000000E+00  0.00000000000E+00  0.66270431615E+03  0.66270431615E+03  0.00000000000E+00 0. -1.
          1   -1    0    0  501    0 -0.00000000000E+00 -0.00000000000E+00 -0.32736704010E+03  0.32736704010E+03  0.00000000000E+00 0. -1.
         25    2    1    2    0    0  0.62035012081E+02 -0.25270321373E+02 -0.19656256933E+02  0.14317159781E+03  0.12499922447E+03 0.  0.
          2    1    1    2  501    0 -0.41667862839E+02  0.36140333206E+02 -0.24263504303E+03  0.24882543798E+03  0.00000000000E+00 0. -1.
          1    1    1    2  502    0 -0.20367149242E+02 -0.10870011833E+02  0.59762857601E+03  0.59807432046E+03  0.00000000000E+00 0. -1.
         22    1    3    3    0    0  0.13609509454E+02  0.21916004439E+02 -0.59387442913E+02  0.64748732604E+02  0.00000000000E+00 0. -1.
         22    1    3    3    0    0  0.48425502627E+02 -0.47186325812E+02  0.39731185979E+02  0.78422865209E+02  0.00000000000E+00 0. -1.
</event>
<event>
 7    1  0.5977291E-006  0.5214397E+02  0.7818608E-02  0.1465952E+00
          2   -1    0    0  502    0  0.00000000000E+00  0.00000000000E+00  0.55823700708E+03  0.55823700708E+03  0.00000000000E+00 0. -1.
          1   -1    0    0  501    0 -0.00000000000E+00 -0.00000000000E+00 -0.30136701719E+03  0.30136701719E+03  0.00000000000E+00 0. -1.
         25    2    1    2    0    0  0.12744041747E+02  0.86551303098E+02  0.67966950400E+02  0.16702750934E+03  0.12500057545E+03 0.  0.
          2    1    1    2  501    0  0.78648727826E+01 -0.50830479288E+02 -0.24822978627E+03  0.25350270341E+03  0.00000000000E+00 0. -1.
          1    1    1    2  502    0 -0.20608914530E+02 -0.35720823810E+02  0.43713282575E+03  0.43907381152E+03  0.00000000000E+00 0. -1.
         22    1    3    3    0    0  0.24231840315E+02  0.29022371447E+02  0.95138480958E+02  0.10237583059E+03  0.00000000000E+00 0.  1.
         22    1    3    3    0    0 -0.11487798568E+02  0.57528931651E+02 -0.27171530558E+02  0.64651678754E+02  0.00000000000E+00 0.  1.
</event>
<event>
 7    1  0.5977291E-006  0.8563764E+02  0.7818608E-02  0.1343432E+00
          2   -1    0    0  502    0  0.00000000000E+00  0.00000000000E+00  0.18601533276E+03  0.18601533276E+03  0.00000000000E+00 0. -1.
          1   -1    0    0  501    0 -0.00000000000E+00 -0.00000000000E+00 -0.32323972442E+03  0.32323972442E+03  0.00000000000E+00 0. -1.
         25    2    1    2    0    0  0.76900512195E+02 -0.64731344021E+02 -0.23028036082E+02  0.16204785557E+03  0.12500152548E+03 0.  0.
          2    1    1    2  501    0  0.96945842124E+01  0.65215724353E+02 -0.20879526082E+03  0.21895784208E+03  0.00000000000E+00 0. -1.
          1    1    1    2  502    0 -0.86595096408E+02 -0.48438033216E+00  0.94598905241E+02  0.12824935953E+03  0.00000000000E+00 0. -1.
         22    1    3    3    0    0  0.71043580646E+02 -0.61030237550E+02  0.37674134809E+02  0.10095157592E+03  0.00000000000E+00 0. -1.
         22    1    3    3    0    0  0.58569315492E+01 -0.37011064708E+01 -0.60702170890E+02  0.61096279650E+02  0.00000000000E+00 0. -1.
</event>
<event>
 7    1  0.5977291E-006  0.1144619E+03  0.7818608E-02  0.1267386E+00
          2   -1    0    0  502    0  0.00000000000E+00  0.00000000000E+00  0.44988401714E+03  0.44988401714E+03  0.00000000000E+00 0. -1.
          1   -1    0    0  501    0 -0.00000000000E+00 -0.00000000000E+00 -0.47464939109E+03  0.47464939109E+03  0.00000000000E+00 0. -1.
         25    2    1    2    0    0 -0.70050590766E+02 -0.64437621842E+02 -0.93858960008E+02  0.18302499839E+03  0.12501741193E+03 0.  0.
          2    1    1    2  501    0  0.12679658654E+03 -0.16570056220E+02 -0.31759468989E+03  0.34237162290E+03  0.00000000000E+00 0. -1.
          1    1    1    2  502    0 -0.56745995771E+02  0.81007678062E+02  0.38668827594E+03  0.39913678694E+03  0.00000000000E+00 0. -1.
         22    1    3    3    0    0  0.27147725187E+02  0.20543004458E+01 -0.50798116749E+02  0.57633911879E+02  0.00000000000E+00 0.  1.
         22    1    3    3    0    0 -0.97198315953E+02 -0.66491922288E+02 -0.43060843258E+02  0.12539108651E+03  0.00000000000E+00 0.  1.
</event>
<event>
 7    1  0.5977291E-006  0.8103077E+02  0.7818608E-02  0.1344042E+00
          2   -1    0    0  502    0  0.00000000000E+00  0.00000000000E+00  0.36304309667E+03  0.36304309667E+03  0.00000000000E+00 0. -1.
          1   -1    0    0  501    0 -0.00000000000E+00 -0.00000000000E+00 -0.25072523742E+04  0.25072523742E+04  0.00000000000E+00 0. -1.
         25    2    1    2    0    0  0.36077788929E+02 -0.82089153733E+02 -0.14811339208E+02  0.15454697631E+03  0.12500062441E+03 0.  0.
          2    1    1    2  501    0  0.41746924844E+02  0.55334130666E+02 -0.24162912558E+04  0.24172852758E+04  0.00000000000E+00 0. -1.
          1    1    1    2  502    0 -0.77824713774E+02  0.26755023066E+02  0.28689331748E+03  0.29846321875E+03  0.00000000000E+00 0. -1.
         22    1    3    3    0    0  0.49326283944E+02  0.18225365794E+02 -0.71881302001E+01  0.53074621636E+02  0.00000000000E+00 0. -1.
         22    1    3    3    0    0 -0.13248495014E+02 -0.10031451953E+03 -0.76232090083E+01  0.10147235468E+03  0.00000000000E+00 0. -1.
</event>
<event>
 7    1  0.5977291E-006  0.6158912E+02  0.7818608E-02  0.1395828E+00
          2   -1    0    0  502    0  0.00000000000E+00  0.00000000000E+00  0.84471801156E+03  0.84471801156E+03  0.00000000000E+00 0. -1.
          1   -1    0    0  501    0 -0.00000000000E+00 -0.00000000000E+00 -0.18395934584E+03  0.18395934584E+03  0.00000000000E+00 0. -1.
         25    2    1    2    0    0 -0.11807750719E+02  0.15592672890E+01  0.19103645271E+02  0.12701795507E+03  0.12500702922E+03 0.  0.
          2    1    1    2  501    0 -0.46491193718E+01  0.59208988820E+02 -0.12185509082E+03  0.13555803859E+03  0.00000000000E+00 0. -1.
          1    1    1    2  502    0  0.16456870090E+02 -0.60768256109E+02  0.76351011127E+03  0.76610136375E+03  0.00000000000E+00 0. -1.
         22    1    3    3    0    0 -0.18262285804E+02  0.56897865188E+02  0.34779237020E+02  0.69140968126E+02  0.00000000000E+00 0. -1.
         22    1    3    3    0    0  0.64545350854E+01 -0.55338597899E+02 -0.15675591749E+02  0.57876986940E+02  0.00000000000E+00 0. -1.
</event>
<event>
 7    1  0.5977291E-006  0.4734432E+02  0.7818608E-02  0.1538380E+00
          2   -1    0    0  502    0  0.00000000000E+00  0.00000000000E+00  0.22518587647E+04  0.22518587647E+04  0.00000000000E+00 0. -1.
          1   -1    0    0  501    0 -0.00000000000E+00 -0.00000000000E+00 -0.11740168306E+03  0.11740168306E+03  0.00000000000E+00 0. -1.
         25    2    1    2    0    0  0.11508662528E+02  0.26468159270E+02  0.12691936300E+04  0.12756604685E+04  0.12499659068E+03 0.  0.
          2    1    1    2  501    0  0.26161710255E+02  0.89355178169E+01 -0.11180128281E+03  0.11516859554E+03  0.00000000000E+00 0. -1.
          1    1    1    2  502    0 -0.37670372783E+02 -0.35403677087E+02  0.97706473453E+03  0.97843138380E+03  0.00000000000E+00 0. -1.
         22    1    3    3    0    0  0.54329119224E+02  0.51348892890E+02  0.91057213670E+03  0.91363558279E+03  0.00000000000E+00 0.  1.
         22    1    3    3    0    0 -0.42820456696E+02 -0.24880733619E+02  0.35862149325E+03  0.36202488566E+03  0.00000000000E+00 0.  1.
</event>
<event>
 7    1  0.5977291E-006  0.9099739E+02  0.7818608E-02  0.1396365E+00
          2   -1    0    0  502    0  0.00000000000E+00  0.00000000000E+00  0.21417132821E+04  0.21417132821E+04  0.00000000000E+00 0. -1.
          1   -1    0    0  501    0 -0.00000000000E+00 -0.00000000000E+00 -0.10252347560E+04  0.10252347560E+04  0.00000000000E+00 0. -1.
         25    2    1    2    0    0 -0.21006536202E+02 -0.83104566780E+02  0.47029645949E+03  0.49411699285E+03  0.12500079693E+03 0.  0.
          2    1    1    2  501    0  0.39324205751E+02 -0.74598914453E+01 -0.10116422917E+04  0.10124337852E+04  0.00000000000E+00 0. -1.
          1    1    1    2  502    0 -0.18317669549E+02  0.90564458225E+02  0.16578243583E+04  0.16603972601E+04  0.00000000000E+00 0. -1.
         22    1    3    3    0    0 -0.41996702115E+02 -0.10550687517E+03  0.29402485067E+03  0.31519206289E+03  0.00000000000E+00 0. -1.
         22    1    3    3    0    0  0.20990165912E+02  0.22402308388E+02  0.17627160882E+03  0.17892492996E+03  0.00000000000E+00 0. -1.
</event>
<event>
 7    1  0.5977291E-006  0.1097804E+03  0.7818608E-02  0.1283844E+00
          2   -1    0    0  502    0  0.00000000000E+00  0.00000000000E+00  0.27753718315E+03  0.27753718315E+03  0.00000000000E+00 0. -1.
          1   -1    0    0  501    0 -0.00000000000E+00 -0.00000000000E+00 -0.20469947941E+03  0.20469947941E+03  0.00000000000E+00 0. -1.
         25    2    1    2    0    0 -0.24759744495E+02  0.22110498646E+02  0.17184755955E+03  0.21507720929E+03  0.12499881254E+03 0.  0.
          2    1    1    2  501    0  0.10834710908E+03 -0.49870439799E+02 -0.12749772005E+03  0.17459045057E+03  0.00000000000E+00 0. -1.
          1    1    1    2  502    0 -0.83587364586E+02  0.27759941153E+02  0.28487864249E+02  0.92569002699E+02  0.00000000000E+00 0. -1.
         22    1    3    3    0    0 -0.30710299027E+02  0.60736263910E+02  0.16057453686E+03  0.17440240281E+03  0.00000000000E+00 0.  1.
         22    1    3    3    0    0  0.59505545322E+01 -0.38625765264E+02  0.11273022689E+02  0.40674806478E+02  0.00000000000E+00 0.  1.
</event>
<event>
 7    1  0.5977291E-006  0.1840996E+03  0.7818608E-02  0.1322511E+00
          2   -1    0    0  502    0  0.00000000000E+00  0.00000000000E+00  0.12964688445E+04  0.12964688445E+04  0.00000000000E+00 0. -1.
          1   -1    0    0  501    0 -0.00000000000E+00 -0.00000000000E+00 -0.50409798233E+03  0.50409798233E+03  0.00000000000E+00 0. -1.
         25    2    1    2    0    0 -0.12298397037E+03  0.11298021661E+03  0.45357187864E+03  0.49925163211E+03  0.12504062042E+03 0.  0.
          2    1    1    2  501    0  0.11098671176E+03 -0.14780804122E+03 -0.46307178449E+03  0.49859878142E+03  0.00000000000E+00 0. -1.
          1    1    1    2  502    0  0.11997258612E+02  0.34827824612E+02  0.80187076805E+03  0.80271641333E+03  0.00000000000E+00 0. -1.
         22    1    3    3    0    0 -0.79757117385E+02  0.43212624437E+02  0.94785495642E+02  0.13119763286E+03  0.00000000000E+00 0. -1.
         22    1    3    3    0    0 -0.43226852986E+02  0.69767592173E+02  0.35878638300E+03  0.36805399925E+03  0.00000000000E+00 0. -1.
</event>
<event>
 7    1  0.5977291E-006  0.7751843E+02  0.7818608E-02  0.1390469E+00
          2   -1    0    0  502    0  0.00000000000E+00  0.00000000000E+00  0.74822280395E+03  0.74822280395E+03  0.00000000000E+00 0. -1.
          1   -1    0    0  501    0 -0.00000000000E+00 -0.00000000000E+00 -0.34628736780E+03  0.34628736780E+03  0.00000000000E+00 0. -1.
         25    2    1    2    0    0  0.10466740003E+03 -0.48594974518E+02  0.48050943863E+03  0.50973590958E+03  0.12499856290E+03 0.  0.
          2    1    1    2  501    0 -0.43773643041E+02  0.22577193672E+02 -0.32545805355E+03  0.32916379831E+03  0.00000000000E+00 0. -1.
          1    1    1    2  502    0 -0.60893756985E+02  0.26017780846E+02  0.24688405106E+03  0.25561046385E+03  0.00000000000E+00 0. -1.
         22    1    3    3    0    0  0.12814728303E+02  0.43502707847E+01  0.30065312155E+03  0.30095754122E+03  0.00000000000E+00 0. -1.
         22    1    3    3    0    0  0.91852671723E+02 -0.52945245303E+02  0.17985631708E+03  0.20877836836E+03  0.00000000000E+00 0. -1.
</event>
<event>
 7    1  0.8563916E-006  0.8812810E+02  0.7818608E-02  0.1437425E+00
          2   -1    0    0  502    0  0.00000000000E+00  0.00000000000E+00  0.16260703659E+04  0.16260703659E+04  0.00000000000E+00 0. -1.
          1   -1    0    0  501    0 -0.00000000000E+00 -0.00000000000E+00 -0.14819720961E+04  0.14819720961E+04  0.00000000000E+00 0. -1.
         25    2    1    2    0    0 -0.72427728851E+02 -0.81658617934E+02 -0.88654114154E+03  0.90193923387E+03  0.12500112066E+03 0.  0.
          2    1    1    2  501    0  0.29741619869E+02  0.45865143235E+01 -0.58614654706E+03  0.58691854179E+03  0.00000000000E+00 0. -1.
          1    1    1    2  502    0  0.42686108983E+02  0.77072103611E+02  0.16167859584E+04  0.16191846863E+04  0.00000000000E+00 0. -1.
         22    1    3    3    0    0 -0.92450916274E+02 -0.98833112295E+02 -0.65050362247E+03  0.66443217777E+03  0.00000000000E+00 0.  1.
         22    1    3    3    0    0  0.20023187422E+02  0.17174494361E+02 -0.23603751907E+03  0.23750705611E+03  0.00000000000E+00 0.  1.
</event>
<event>
 7    1  0.5977291E-006  0.5315870E+02  0.7818608E-02  0.1461466E+00
          2   -1    0    0  502    0  0.00000000000E+00  0.00000000000E+00  0.56164551797E+03  0.56164551797E+03  0.00000000000E+00 0. -1.
          1   -1    0    0  501    0 -0.00000000000E+00 -0.00000000000E+00 -0.26341185249E+04  0.26341185249E+04  0.00000000000E+00 0. -1.
         25    2    1    2    0    0  0.12473320202E+00  0.12259995481E+02 -0.23538229384E+03  0.26679736993E+03  0.12500275718E+03 0.  0.
          2    1    1    2  501    0  0.15796366858E+02  0.38684076720E+02 -0.23815404516E+04  0.23819069892E+04  0.00000000000E+00 0. -1.
          1    1    1    2  502    0 -0.15921100060E+02 -0.50944072201E+02  0.54444973842E+03  0.54705968375E+03  0.00000000000E+00 0. -1.
         22    1    3    3    0    0  0.76311118906E+00 -0.56281390645E+02 -0.12096994433E+03  0.13342377862E+03  0.00000000000E+00 0.  1.
         22    1    3    3    0    0 -0.63837798704E+00  0.68541386126E+02 -0.11441234951E+03  0.13337359131E+03  0.00000000000E+00 0.  1.
</event>
<event>
 7    1  0.5977291E-006  0.7636792E+02  0.7818608E-02  0.1340979E+00
          2   -1    0    0  502    0  0.00000000000E+00  0.00000000000E+00  0.73627611135E+03  0.73627611135E+03  0.00000000000E+00 0. -1.
          1   -1    0    0  501    0 -0.00000000000E+00 -0.00000000000E+00 -0.16789902221E+03  0.16789902221E+03  0.00000000000E+00 0. -1.
         25    2    1    2    0    0 -0.45751739165E+02 -0.36376389511E+02  0.15987310816E+03  0.21118851327E+03  0.12499885629E+03 0.  0.
          2    1    1    2  501    0 -0.29358730316E+02  0.69577769629E+02 -0.12887380791E+03  0.14937020934E+03  0.00000000000E+00 0. -1.
          1    1    1    2  502    0  0.75110469481E+02 -0.33201380118E+02  0.53737778889E+03  0.54361641095E+03  0.00000000000E+00 0. -1.
         22    1    3    3    0    0 -0.56280156697E+02  0.10614135840E+02  0.15992623756E+02  0.59463265401E+02  0.00000000000E+00 0. -1.
         22    1    3    3    0    0  0.10528417533E+02 -0.46990525351E+02  0.14388048441E+03  0.15172524787E+03  0.00000000000E+00 0. -1.
</event>
<event>
 7    1  0.5977291E-006  0.7924737E+02  0.7818608E-02  0.1460078E+00
          2   -1    0    0  502    0  0.00000000000E+00  0.00000000000E+00  0.60113146747E+03  0.60113146747E+03  0.00000000000E+00 0. -1.
          1   -1    0    0  501    0 -0.00000000000E+00 -0.00000000000E+00 -0.60796774222E+03  0.60796774222E+03  0.00000000000E+00 0. -1.
         25    2    1    2    0    0  0.79275365047E+02 -0.37431365677E+02 -0.18533535371E+03  0.24012485759E+03  0.12500025304E+03 0.  0.
          2    1    1    2  501    0 -0.78076785394E+02  0.91438193234E+01 -0.39097367466E+03  0.39879820477E+03  0.00000000000E+00 0. -1.
          1    1    1    2  502    0 -0.11985796531E+01  0.28287546353E+02  0.56947275362E+03  0.57017614733E+03  0.00000000000E+00 0. -1.
         22    1    3    3    0    0 -0.41743561343E+01 -0.56998944262E+02 -0.34843705287E+02  0.66935705675E+02  0.00000000000E+00 0. -1.
         22    1    3    3    0    0  0.83449721181E+02  0.19567578586E+02 -0.15049164842E+03  0.17318915192E+03  0.00000000000E+00 0. -1.
</event>
<event>
 7    1  0.5977291E-006  0.1980543E+03  0.7818608E-02  0.1232398E+00
          2   -1    0    0  502    0  0.00000000000E+00  0.00000000000E+00  0.51689697867E+03  0.51689697867E+03  0.00000000000E+00 0. -1.
          1   -1    0    0  501    0 -0.00000000000E+00 -0.00000000000E+00 -0.91566104408E+03  0.91566104408E+03  0.00000000000E+00 0. -1.
         25    2    1    2    0    0  0.11690049792E+03 -0.64943906700E+02 -0.80259130380E+02  0.19987540728E+03  0.12500085198E+03 0.  0.
          2    1    1    2  501    0 -0.19344060756E+03  0.91707752589E+02 -0.75703357269E+03  0.78672066880E+03  0.00000000000E+00 0. -1.
          1    1    1    2  502    0  0.76540109642E+02 -0.26763845889E+02  0.43852863765E+03  0.44596194667E+03  0.00000000000E+00 0. -1.
         22    1    3    3    0    0  0.28380676105E+01 -0.25720732262E+02  0.27766401468E+02  0.37955022676E+02  0.00000000000E+00 0. -1.
         22    1    3    3    0    0  0.11406243030E+03 -0.39223174438E+02 -0.10802553185E+03  0.16192038461E+03  0.00000000000E+00 0. -1.
</event>
<event>
 7    1  0.5977291E-006  0.6165075E+02  0.7818608E-02  0.1434734E+00
          2   -1    0    0  502    0  0.00000000000E+00  0.00000000000E+00  0.37999992627E+03  0.37999992627E+03  0.00000000000E+00 0. -1.
          1   -1    0    0  501    0 -0.00000000000E+00 -0.00000000000E+00 -0.69473569754E+03  0.69473569754E+03  0.00000000000E+00 0. -1.
         25    2    1    2    0    0 -0.63710761961E+02 -0.34900783496E+02 -0.19487628979E+03  0.24265032491E+03  0.12500114390E+03 0.  0.
          2    1    1    2  501    0  0.26650376926E+01  0.43815230476E+02 -0.47227498887E+03  0.47431059651E+03  0.00000000000E+00 0. -1.
          1    1    1    2  502    0  0.61045724268E+02 -0.89144469805E+01  0.35241550739E+03  0.35777470238E+03  0.00000000000E+00 0. -1.
         22    1    3    3    0    0 -0.72538989468E+02  0.84735478967E+01 -0.18267930011E+03  0.19673696321E+03  0.00000000000E+00 0.  1.
         22    1    3    3    0    0  0.88282275073E+01 -0.43374331393E+02 -0.12196989683E+02  0.45913361693E+02  0.00000000000E+00 0.  1.
</event>
<event>
 7    1  0.5977291E-006  0.1234091E+03  0.7818608E-02  0.1360893E+00
          2   -1    0    0  502    0  0.00000000000E+00  0.00000000000E+00  0.35831633946E+04  0.35831633946E+04  0.00000000000E+00 0. -1.
          1   -1    0    0  501    0 -0.00000000000E+00 -0.00000000000E+00 -0.98525170235E+02  0.98525170235E+02  0.00000000000E+00 0. -1.
         25    2    1    2    0    0  0.13126372891E+03  0.92535419942E+02  0.76650864421E+03  0.79306571255E+03  0.12499900917E+03 0.  0.
          2    1    1    2  501    0 -0.97224919866E+02 -0.72614833176E+02 -0.41848978255E+02  0.12836251798E+03  0.00000000000E+00 0. -1.
          1    1    1    2  502    0 -0.34038809044E+02 -0.19920586766E+02  0.27599785584E+04  0.27602603343E+04  0.00000000000E+00 0. -1.
         22    1    3    3    0    0  0.13330471008E+03  0.30002487640E+02  0.44420549375E+03  0.46474596897E+03  0.00000000000E+00 0.  1.
         22    1    3    3    0    0 -0.20409811674E+01  0.62532932302E+02  0.32230315046E+03  0.32831974357E+03  0.00000000000E+00 0.  1.
</event>
<event>
 7    1  0.5977291E-006  0.1123224E+03  0.7818608E-02  0.1373774E+00
          2   -1    0    0  502    0  0.00000000000E+00  0.00000000000E+00  0.94623867326E+03  0.94623867326E+03  0.00000000000E+00 0. -1.
          1   -1    0    0  501    0 -0.00000000000E+00 -0.00000000000E+00 -0.11018586930E+04  0.11018586930E+04  0.00000000000E+00 0. -1.
         25    2    1    2    0    0  0.71039943625E+02 -0.71743110842E+02  0.22613877114E+03  0.27741415205E+03  0.12500448151E+03 0.  0.
          2    1    1    2  501    0 -0.46898008052E+02  0.10228752274E+03 -0.10727301623E+04  0.10786158545E+04  0.00000000000E+00 0. -1.
          1    1    1    2  502    0 -0.24141935573E+02 -0.30544411894E+02  0.69097137146E+03  0.69206735968E+03  0.00000000000E+00 0. -1.
         22    1    3    3    0    0  0.45407546916E+02 -0.41185045085E+02  0.15771523183E+02  0.63299243274E+02  0.00000000000E+00 0.  1.
         22    1    3    3    0    0  0.25632396709E+02 -0.30558065757E+02  0.21036724796E+03  0.21411490877E+03  0.00000000000E+00 0.  1.
</event>
<event>
 7    1  0.5977291E-006  0.9411698E+02  0.7818608E-02  0.1303479E+00
          2   -1    0    0  502    0  0.00000000000E+00  0.00000000000E+00  0.10443323739E+03  0.10443323739E+03  0.00000000000E+00 0. -1.
          1   -1    0    0  501    0 -0.00000000000E+00 -0.00000000000E+00 -0.22241056704E+04  0.22241056704E+04  0.00000000000E+00 0. -1.
         25    2    1    2    0    0 -0.19653347199E+02  0.10727124997E+02 -0.45510137211E+03  0.47248672148E+03  0.12500047122E+03 0.  0.
          2    1    1    2  501    0  0.92031484005E+02 -0.56372292579E+02 -0.17391793770E+04  0.17425247587E+04  0.00000000000E+00 0. -1.
          1    1    1    2  502    0 -0.72378136806E+02  0.45645167582E+02  0.74608316024E+02  0.11352742766E+03  0.00000000000E+00 0. -1.
         22    1    3    3    0    0 -0.38391611520E+02  0.72591296872E+01 -0.36552228878E+02  0.53503983355E+02  0.00000000000E+00 0.  1.
         22    1    3    3    0    0  0.18738264321E+02  0.34679953103E+01 -0.41854914323E+03  0.41898273812E+03  0.00000000000E+00 0.  1.
</event>
<event>
 7    1  0.5977291E-006  0.7582844E+02  0.7818608E-02  0.1462496E+00
          2   -1    0    0  502    0  0.00000000000E+00  0.00000000000E+00  0.16720549163E+04  0.16720549163E+04  0.00000000000E+00 0. -1.
          1   -1    0    0  501    0 -0.00000000000E+00 -0.00000000000E+00 -0.67294219109E+03  0.67294219109E+03  0.00000000000E+00 0. -1.
         25    2    1    2    0    0 -0.53557307011E+02 -0.58187385467E+02  0.10334471162E+04  0.10439794218E+04  0.12500373696E+03 0.  0.
          2    1    1    2  501    0  0.27329835085E+02  0.70737088770E+02 -0.66518688681E+03  0.66949551903E+03  0.00000000000E+00 0. -1.
          1    1    1    2  502    0  0.26227471926E+02 -0.12549703303E+02  0.63085249585E+03  0.63152216656E+03  0.00000000000E+00 0. -1.
         22    1    3    3    0    0 -0.66170051618E+02 -0.18614828815E+01  0.25694775008E+03  0.26533768508E+03  0.00000000000E+00 0.  1.
         22    1    3    3    0    0  0.12612744607E+02 -0.56325902586E+02  0.77649936609E+03  0.77864173673E+03  0.00000000000E+00 0.  1.
</event>
<event>
 7    1  0.5977291E-006  0.4499446E+02  0.7818608E-02  0.1554814E+00
          2   -1    0    0  502    0  0.00000000000E+00  0.00000000000E+00  0.27445622019E+04  0.27445622019E+04  0.00000000000E+00 0. -1.
          1   -1    0    0  501    0 -0.00000000000E+00 -0.00000000000E+00 -0.28760012336E+03  0.28760012336E+03  0.00000000000E+00 0. -1.
         25    2    1    2    0    0  0.55916256892E+02  0.25594256676E+02  0.10810101066E+04  0.10899491090E+04  0.12499806320E+03 0.  0.
          2    1    1    2  501    0 -0.44936879612E+02 -0.18467924571E+01 -0.28124067380E+03  0.28481406284E+03  0.00000000000E+00 0. -1.
          1    1    1    2  502    0 -0.10979377280E+02 -0.23747464219E+02  0.16571926457E+04  0.16573991534E+04  0.00000000000E+00 0. -1.
         22    1    3    3    0    0  0.24255507183E+02  0.60455084600E+02  0.27679913930E+03  0.28436052891E+03  0.00000000000E+00 0.  1.
         22    1    3    3    0    0  0.31660749709E+02 -0.34860827924E+02  0.80421096732E+03  0.80558858008E+03  0.00000000000E+00 0.  1.
</event>
<event>
 7    1  0.5977291E-006  0.1935042E+03  0.7818608E-02  0.1195985E+00
          2   -1    0    0  502    0  0.00000000000E+00  0.00000000000E+00  0.75188268359E+03  0.75188268359E+03  0.00000000000E+00 0. -1.
          1   -1    0    0  501    0 -0.00000000000E+00 -0.00000000000E+00 -0.13526562191E+04  0.13526562191E+04  0.00000000000E+00 0. -1.
         25    2    1    2    0    0 -0.26759785761E+02 -0.72051774276E+02  0.25921756761E+03  0.29786949758E+03  0.12499978368E+03 0.  0.
          2    1    1    2  501    0  0.10285110470E+03  0.16754466541E+03 -0.13180422758E+04  0.13326233547E+04  0.00000000000E+00 0. -1.
          1    1    1    2  502    0 -0.76091318937E+02 -0.95492891131E+02  0.45805117271E+03  0.47404605040E+03  0.00000000000E+00 0. -1.
         22    1    3    3    0    0 -0.66107548463E+02 -0.74791995104E+02  0.13744393006E+03  0.16986725525E+03  0.00000000000E+00 0. -1.
         22    1    3    3    0    0  0.39347762702E+02  0.27402208279E+01  0.12177363755E+03  0.12800224233E+03  0.00000000000E+00 0. -1.
</event>
<event>
 7    1  0.5977291E-006  0.1417033E+03  0.7818608E-02  0.1211416E+00
          2   -1    0    0  502    0  0.00000000000E+00  0.00000000000E+00  0.11476035362E+04  0.11476035362E+04  0.00000000000E+00 0. -1.
          1   -1    0    0  501    0 -0.00000000000E+00 -0.00000000000E+00 -0.69361502311E+03  0.69361502311E+03  0.00000000000E+00 0. -1.
         25    2    1    2    0    0  0.18976400373E+02 -0.18414785580E+02 -0.90717101548E+02  0.15669295909E+03  0.12499553118E+03 0.  0.
          2    1    1    2  501    0 -0.89379447538E+02 -0.10995970357E+03 -0.55617941127E+03  0.57394717490E+03  0.00000000000E+00 0. -1.
          1    1    1    2  502    0  0.70403047165E+02  0.12837448915E+03  0.11008850259E+04  0.11105784253E+04  0.00000000000E+00 0. -1.
         22    1    3    3    0    0 -0.53416110205E+02 -0.16031547870E+01 -0.38452339095E+02  0.65836413303E+02  0.00000000000E+00 0.  1.
         22    1    3    3    0    0  0.72392510578E+02 -0.16811630793E+02 -0.52264762453E+02  0.90856545785E+02  0.00000000000E+00 0.  1.
</event>
<event>
 7    1  0.5977291E-006  0.1671131E+03  0.7818608E-02  0.1205783E+00
          2   -1    0    0  502    0  0.00000000000E+00  0.00000000000E+00  0.61132963930E+03  0.61132963930E+03  0.00000000000E+00 0. -1.
          1   -1    0    0  501    0 -0.00000000000E+00 -0.00000000000E+00 -0.16882463288E+03  0.16882463288E+03  0.00000000000E+00 0. -1.
         25    2    1    2    0    0  0.87880533153E+02  0.11205865994E+03  0.20345495696E+03  0.27802719131E+03  0.12500027289E+03 0.  0.
          2    1    1    2  501    0 -0.87193372442E+02  0.92521536304E+02 -0.59371585248E+02  0.14031359169E+03  0.00000000000E+00 0. -1.
          1    1    1    2  502    0 -0.68716071103E+00 -0.20458019625E+03  0.29842163472E+03  0.36181348918E+03  0.00000000000E+00 0. -1.
         22    1    3    3    0    0  0.94824869239E+02  0.69678712054E+02  0.20351088889E+03  0.23508202959E+03  0.00000000000E+00 0.  1.
         22    1    3    3    0    0 -0.69443360855E+01  0.42379947887E+02 -0.55931937163E-01  0.42945161718E+02  0.00000000000E+00 0.  1.
</event>
<event>
 7    1  0.5977291E-006  0.2106628E+03  0.7818608E-02  0.1280331E+00
          2   -1    0    0  502    0  0.00000000000E+00  0.00000000000E+00  0.27903888254E+03  0.27903888254E+03  0.00000000000E+00 0. -1.
          1   -1    0    0  501    0 -0.00000000000E+00 -0.00000000000E+00 -0.60349747354E+03  0.60349747354E+03  0.00000000000E+00 0. -1.
         25    2    1    2    0    0 -0.19239045108E+03 -0.52112743179E+02  0.13986309459E+03  0.27370895988E+03  0.12500034330E+03 0.  0.
          2    1    1    2  501    0  0.21211388757E+03  0.89522738996E+01 -0.50405197313E+03  0.54693768943E+03  0.00000000000E+00 0. -1.
          1    1    1    2  502    0 -0.19723436492E+02  0.43160469280E+02  0.39730287544E+02  0.61889706768E+02  0.00000000000E+00 0. -1.
         22    1    3    3    0    0 -0.15704741970E+03 -0.26143811196E+02  0.15976317718E+03  0.22554747545E+03  0.00000000000E+00 0.  1.
         22    1    3    3    0    0 -0.35343031378E+02 -0.25968931983E+02 -0.19900082596E+02  0.48161484432E+02  0.00000000000E+00 0.  1.
</event>
<event>
 7    1  0.5977291E-006  0.6312523E+02  0.7818608E-02  0.1441687E+00
          2   -1    0    0  502    0  0.00000000000E+00  0.00000000000E+00  0.27942168622E+04  0.27942168622E+04  0.00000000000E+00 0. -1.
          1   -1    0    0  501    0 -0.00000000000E+00 -0.00000000000E+00 -0.35650174345E+03  0.35650174345E+03  0.00000000000E+00 0. -1.
         25    2    1    2    0    0  0.57892688897E+02  0.77466417363E+02  0.45270449894E+03  0.47950015343E+03  0.12500569797E+03 0.  0.
          2    1    1    2  501    0 -0.35814689018E+02 -0.19322832702E+02 -0.34148018929E+03  0.34389647205E+03  0.00000000000E+00 0. -1.
          1    1    1    2  502    0 -0.22077999880E+02 -0.58143584661E+02  0.23264908092E+04  0.23273219802E+04  0.00000000000E+00 0. -1.
         22    1    3    3    0    0  0.15201999466E+02  0.94667033795E+02  0.19029427826E+03  0.21308416275E+03  0.00000000000E+00 0. -1.
         22    1    3    3    0    0  0.42690689432E+02 -0.17200616432E+02  0.26241022068E+03  0.26641599068E+03  0.00000000000E+00 0. -1.
</event>
<event>
 7    1  0.5977291E-006  0.9100213E+02  0.7818608E-02  0.1442098E+00
          2   -1    0    0  502    0  0.00000000000E+00  0.00000000000E+00  0.18491696056E+04  0.18491696056E+04  0.00000000000E+00 0. -1.
          1   -1    0    0  501    0 -0.00000000000E+00 -0.00000000000E+00 -0.52893288502E+03  0.52893288502E+03  0.00000000000E+00 0. -1.
         25    2    1    2    0    0  0.21854010538E+02 -0.63110608216E+02  0.30525957667E+03  0.33655496112E+03  0.12500114424E+03 0.  0.
          2    1    1    2  501    0 -0.22532579767E+01 -0.28051867433E+02 -0.51147568555E+03  0.51224931561E+03  0.00000000000E+00 0. -1.
          1    1    1    2  502    0 -0.19600752562E+02  0.91162475650E+02  0.15264528294E+04  0.15292982139E+04  0.00000000000E+00 0. -1.
         22    1    3    3    0    0  0.38227373812E+02 -0.34350570886E+02  0.29835383137E+03  0.30274791910E+03  0.00000000000E+00 0.  1.
         22    1    3    3    0    0 -0.16373363273E+02 -0.28760037331E+02  0.69057453076E+01  0.33807042024E+02  0.00000000000E+00 0.  1.
</event>
<event>
 7    1  0.5977291E-006  0.9208674E+02  0.7818608E-02  0.1467236E+00
          2   -1    0    0  502    0  0.00000000000E+00  0.00000000000E+00  0.33692404965E+04  0.33692404965E+04  0.00000000000E+00 0. -1.
          1   -1    0    0  501    0 -0.00000000000E+00 -0.00000000000E+00 -0.53782004164E+02  0.53782004164E+02  0.00000000000E+00 0. -1.
         25    2    1    2    0    0  0.32071853326E+02  0.96603228825E+02  0.83496233800E+03  0.85038097145E+03  0.12499961251E+03 0.  0.
          2    1    1    2  501    0  0.14443648377E+02 -0.18074855422E+02 -0.42289708853E+02  0.48205174534E+02  0.00000000000E+00 0. -1.
          1    1    1    2  502    0 -0.46515501703E+02 -0.78528373403E+02  0.25227858632E+04  0.25244363547E+04  0.00000000000E+00 0. -1.
         22    1    3    3    0    0  0.71318136366E+02  0.28541829085E+02  0.52630305698E+03  0.53187951677E+03  0.00000000000E+00 0.  1.
         22    1    3    3    0    0 -0.39246283040E+02  0.68061399740E+02  0.30865928102E+03  0.31850145467E+03  0.00000000000E+00 0.  1.
</event>
<event>
 7    1  0.5977291E-006  0.1164432E+03  0.7818608E-02  0.1397288E+00
          2   -1    0    0  502    0  0.00000000000E+00  0.00000000000E+00  0.41422189573E+03  0.41422189573E+03  0.00000000000E+00 0. -1.
          1   -1    0    0  501    0 -0.00000000000E+00 -0.00000000000E+00 -0.21806473592E+03  0.21806473592E+03  0.00000000000E+00 0. -1.
         25    2    1    2    0    0 -0.14698026046E+02 -0.92679352419E+02  0.79910093127E+01  0.15651013054E+03  0.12500428152E+03 0.  0.
          2    1    1    2  501    0  0.10458381823E+02  0.12343888855E+03 -0.11618854176E+03  0.16984202717E+03  0.00000000000E+00 0. -1.
          1    1    1    2  502    0  0.42396442225E+01 -0.30759536131E+02  0.30435469225E+03  0.30593447394E+03  0.00000000000E+00 0. -1.
         22    1    3    3    0    0 -0.31970133658E+02 -0.11131507468E+02  0.52153600864E+02  0.62177150045E+02  0.00000000000E+00 0.  1.
         22    1    3    3    0    0  0.17272107612E+02 -0.81547844951E+02 -0.44162591551E+02  0.94332980500E+02  0.00000000000E+00 0.  1.
</event>
<event>
 7    1  0.5977291E-006  0.5319859E+02  0.7818608E-02  0.1454402E+00
          2   -1    0    0  502    0  0.00000000000E+00  0.00000000000E+00  0.14732829197E+02  0.14732829197E+02  0.00000000000E+00 0. -1.
          1   -1    0    0  501    0 -0.00000000000E+00 -0.00000000000E+00 -0.17784253502E+04  0.17784253502E+04  0.00000000000E+00 0. -1.
         25    2    1    2    0    0 -0.88119579928E+01  0.98277642490E+01 -0.98136552468E+03  0.98938214589E+03  0.12499800813E+03 0.  0.
          2    1    1    2  501    0 -0.39229886343E+02  0.19833858391E+02 -0.71305698533E+03  0.71441068738E+03  0.00000000000E+00 0. -1.
          1    1    1    2  502    0  0.48041844336E+02 -0.29661622639E+02 -0.69270011031E+02  0.89365346153E+02  0.00000000000E+00 0. -1.
         22    1    3    3    0    0  0.50517557124E+02 -0.23636346176E+02 -0.36010452415E+03  0.36439809103E+03  0.00000000000E+00 0. -1.
         22    1    3    3    0    0 -0.59329515117E+02  0.33464110425E+02 -0.62126100053E+03  0.62498405486E+03  0.00000000000E+00 0. -1.
</event>
<event>
 7    1  0.5977291E-006  0.3201390E+03  0.7818608E-02  0.1248484E+00
          2   -1    0    0  502    0  0.00000000000E+00  0.00000000000E+00  0.89821270463E+03  0.89821270463E+03  0.00000000000E+00 0. -1.
          1   -1    0    0  501    0 -0.00000000000E+00 -0.00000000000E+00 -0.63037588826E+03  0.63037588826E+03  0.00000000000E+00 0. -1.
         25    2    1    2    0    0 -0.39480560102E+02 -0.35267574471E+03  0.87071189192E+02  0.38619179567E+03  0.12499526200E+03 0.  0.
          2    1    1    2  501    0  0.40238432519E+02  0.31007423945E+03 -0.42916067653E+03  0.53098404091E+03  0.00000000000E+00 0. -1.
          1    1    1    2  502    0 -0.75787241681E+00  0.42601505268E+02  0.60992630371E+03  0.61141275631E+03  0.00000000000E+00 0. -1.
         22    1    3    3    0    0 -0.64869403860E+02 -0.15754285059E+03 -0.15417352514E+01  0.17038241188E+03  0.00000000000E+00 0. -1.
         22    1    3    3    0    0  0.25388843758E+02 -0.19513289412E+03  0.88612924443E+02  0.21580938380E+03  0.00000000000E+00 0. -1.
</event>
<event>
 7    1  0.5977291E-006  0.9429424E+02  0.7818608E-02  0.1335447E+00
          2   -1    0    0  502    0  0.00000000000E+00  0.00000000000E+00  0.14189603675E+04  0.14189603675E+04  0.00000000000E+00 0. -1.
          1   -1    0    0  501    0 -0.00000000000E+00 -0.00000000000E+00 -0.37622586344E+03  0.37622586344E+03  0.00000000000E+00 0. -1.
         25    2    1    2    0    0  0.66164284950E+02 -0.91438305215E+02 -0.17232120723E+03  0.24095369657E+03  0.12500163666E+03 0.  0.
          2    1    1    2  501    0 -0.20025744022E+01  0.92605319249E+02 -0.15613387446E+03  0.18154212241E+03  0.00000000000E+00 0. -1.
          1    1    1    2  502    0 -0.64161710547E+02 -0.11670140347E+01  0.13711895857E+04  0.13726904119E+04  0.00000000000E+00 0. -1.
         22    1    3    3    0    0 -0.20876841736E+02  0.17705749841E+02 -0.17511599301E+02  0.32496033733E+02  0.00000000000E+00 0. -1.
         22    1    3    3    0    0  0.87041126686E+02 -0.10914405506E+03 -0.15480960793E+03  0.20845766284E+03  0.00000000000E+00 0. -1.
</event>
<event>
 7    1  0.5977291E-006  0.9545093E+02  0.7818608E-02  0.1329878E+00
          2   -1    0    0  502    0  0.00000000000E+00  0.00000000000E+00  0.27317925775E+04  0.27317925775E+04  0.00000000000E+00 0. -1.
          1   -1    0    0  501    0 -0.00000000000E+00 -0.00000000000E+00 -0.45495744818E+03  0.45495744818E+03  0.00000000000E+00 0. -1.
         25    2    1    2    0    0  0.23297497843E+02 -0.93779959382E+02  0.36026801556E+03  0.39338839196E+03  0.12499571874E+03 0.  0.
          2    1    1    2  501    0 -0.66181745140E+02  0.71255331394E+01 -0.43487137431E+03  0.43993625539E+03  0.00000000000E+00 0. -1.
          1    1    1    2  502    0  0.42884247297E+02  0.86654426242E+02  0.23514384881E+04  0.23534253784E+04  0.00000000000E+00 0. -1.
         22    1    3    3    0    0 -0.43794259924E+02 -0.67619403341E+02  0.13855744011E+03  0.16027627747E+03  0.00000000000E+00 0. -1.
         22    1    3    3    0    0  0.67091757767E+02 -0.26160556040E+02  0.22171057545E+03  0.23311211449E+03  0.00000000000E+00 0. -1.
</event>
<event>
 7    1  0.5977291E-006  0.4733084E+02  0.7818608E-02  0.1585016E+00
          2   -1    0    0  502    0  0.00000000000E+00  0.00000000000E+00  0.17995862446E+03  0.17995862446E+03  0.00000000000E+00 0. -1.
          1   -1    0    0  501    0 -0.00000000000E+00 -0.00000000000E+00 -0.77741560304E+03  0.77741560304E+03  0.00000000000E+00 0. -1.
         25    2    1    2    0    0  0.63450845290E+02  0.62432259790E+01 -0.50817019189E+02  0.14923983197E+03  0.12500068148E+03 0.  0.
          2    1    1    2  501    0 -0.18972892107E+02  0.79953133781E+01 -0.67305442776E+03  0.67336925858E+03  0.00000000000E+00 0. -1.
          1    1    1    2  502    0 -0.44477953183E+02 -0.14238539357E+02  0.12641446837E+03  0.13476513694E+03  0.00000000000E+00 0. -1.
         22    1    3    3    0    0  0.64523546152E+02  0.57996079596E+02 -0.43201920402E+02  0.96918724625E+02  0.00000000000E+00 0.  1.
         22    1    3    3    0    0 -0.10727008622E+01 -0.51752853617E+02 -0.76150987876E+01  0.52321107348E+02  0.00000000000E+00 0.  1.
</event>
<event>
 7    1  0.5977291E-006  0.4849891E+02  0.7818608E-02  0.1478108E+00
          2   -1    0    0  502    0  0.00000000000E+00  0.00000000000E+00  0.31683665530E+03  0.31683665530E+03  0.00000000000E+00 0. -1.
          1   -1    0    0  501    0 -0.00000000000E+00 -0.00000000000E+00 -0.10652756778E+03  0.10652756778E+03  0.00000000000E+00 0. -1.
         25    2    1    2    0    0  0.26173517482E+01  0.24281740307E+02  0.57524088160E+01  0.12748178643E+03  0.12498824834E+03 0.  0.
          2    1    1    2  501    0  0.40646224095E+02  0.67128157293E+00 -0.33479301135E+02  0.52663362565E+02  0.00000000000E+00 0. -1.
          1    1    1    2  502    0 -0.43263575843E+02 -0.24953021880E+02  0.23803597985E+03  0.24321907408E+03  0.00000000000E+00 0. -1.
         22    1    3    3    0    0 -0.28757614252E+01 -0.44277050485E+02  0.31096592942E+02  0.54182333800E+02  0.00000000000E+00 0. -1.
         22    1    3    3    0    0  0.54931131735E+01  0.68558790792E+02 -0.25344184126E+02  0.73299452632E+02  0.00000000000E+00 0. -1.
</event>
<event>
 7    1  0.5977291E-006  0.8142785E+02  0.7818608E-02  0.1362204E+00
          2   -1    0    0  502    0  0.00000000000E+00  0.00000000000E+00  0.74779891218E+02  0.74779891218E+02  0.00000000000E+00 0. -1.
          1   -1    0    0  501    0 -0.00000000000E+00 -0.00000000000E+00 -0.13796585457E+04  0.13796585457E+04  0.00000000000E+00 0. -1.
         25    2    1    2    0    0  0.40313757635E+02  0.23754652192E+01 -0.36835593640E+03  0.39107843131E+03  0.12500160665E+03 0.  0.
          2    1    1    2  501    0 -0.79364313546E+02  0.42011766188E+02 -0.98365889832E+03  0.98774921463E+03  0.00000000000E+00 0. -1.
          1    1    1    2  502    0  0.39050555912E+02 -0.44387231407E+02  0.47136180220E+02  0.75610790994E+02  0.00000000000E+00 0. -1.
         22    1    3    3    0    0  0.81236365238E+02 -0.61176271953E+01 -0.17191687868E+03  0.19024243894E+03  0.00000000000E+00 0.  1.
         22    1    3    3    0    0 -0.40922607604E+02  0.84930924145E+01 -0.19643905772E+03  0.20083599237E+03  0.00000000000E+00 0.  1.
</event>
<event>
 7    1  0.1479189E-005  0.6150103E+02  0.7818608E-02  0.1428745E+00
          2   -1    0    0  502    0  0.00000000000E+00  0.00000000000E+00  0.16526936442E+04  0.16526936442E+04  0.00000000000E+00 0. -1.
          1   -1    0    0  501    0 -0.00000000000E+00 -0.00000000000E+00 -0.10172176738E+04  0.10172176738E+04  0.00000000000E+00 0. -1.
         25    2    1    2    0    0  0.31423206770E+01 -0.21173625797E+02 -0.47944061663E+03  0.49592070861E+03  0.12496338559E+03 0.  0.
          2    1    1    2  501    0  0.40089457180E+02 -0.22642135082E+02 -0.52795877716E+03  0.52996254701E+03  0.00000000000E+00 0. -1.
          1    1    1    2  502    0 -0.43231777857E+02  0.43815760878E+02  0.16428753642E+04  0.16440280624E+04  0.00000000000E+00 0. -1.
         22    1    3    3    0    0 -0.51973342769E+02  0.13495891745E+02 -0.30568740802E+03  0.31036778002E+03  0.00000000000E+00 0. -1.
         22    1    3    3    0    0  0.55115663446E+02 -0.34669517542E+02 -0.17375320862E+03  0.18555292859E+03  0.00000000000E+00 0. -1.
</event>
<event>
 7    1  0.5977291E-006  0.7731365E+02  0.7818608E-02  0.1441928E+00
          2   -1    0    0  502    0  0.00000000000E+00  0.00000000000E+00  0.73606013328E+03  0.73606013328E+03  0.00000000000E+00 0. -1.
          1   -1    0    0  501    0 -0.00000000000E+00 -0.00000000000E+00 -0.97705527852E+03  0.97705527852E+03  0.00000000000E+00 0. -1.
         25    2    1    2    0    0  0.70560721669E+02 -0.64223590471E+02 -0.16492298868E+03  0.22787507101E+03  0.12499588303E+03 0.  0.
          2    1    1    2  501    0 -0.33012479967E+02 -0.31974275536E+01 -0.77818883588E+03  0.77889531496E+03  0.00000000000E+00 0. -1.
          1    1    1    2  502    0 -0.37548241702E+02  0.67421018024E+02  0.70211667933E+03  0.70634502583E+03  0.00000000000E+00 0. -1.
         22    1    3    3    0    0  0.58670285087E+02 -0.86419660414E+02 -0.17242937383E+03  0.20159972475E+03  0.00000000000E+00 0. -1.
         22    1    3    3    0    0  0.11890436582E+02  0.22196069943E+02  0.75063851469E+01  0.26275346259E+02  0.00000000000E+00 0. -1.
</event>
<event>
 7    1  0.5977291E-006  0.9111155E+02  0.7818608E-02  0.1395678E+00
          2   -1    0    0  502    0  0.00000000000E+00  0.00000000000E+00  0.19584942086E+04  0.19584942086E+04  0.00000000000E+00 0. -1.
          1   -1    0    0  501    0 -0.00000000000E+00 -0.00000000000E+00 -0.33053786716E+03  0.33053786716E+03  0.00000000000E+00 0. -1.
         25    2    1    2    0    0 -0.11647289419E+03  0.33399427963E+02  0.31823637864E+03  0.36274035729E+03  0.12499886897E+03 0.  0.
          2    1    1    2  501    0  0.38650534411E+02  0.11034025163E+02 -0.30572858527E+03  0.30835950022E+03  0.00000000000E+00 0. -1.
          1    1    1    2  502    0  0.77822359777E+02 -0.44433453126E+02  0.16154485481E+04  0.16179322183E+04  0.00000000000E+00 0. -1.
         22    1    3    3    0    0 -0.13978487038E+03  0.36569355200E+02  0.23167886300E+03  0.27304253018E+03  0.00000000000E+00 0. -1.
         22    1    3    3    0    0  0.23311976195E+02 -0.31699272370E+01  0.86557515644E+02  0.89697827105E+02  0.00000000000E+00 0. -1.
</event>
<event>
 7    1  0.5977291E-006  0.4647954E+02  0.7818608E-02  0.1538051E+00
          2   -1    0    0  502    0  0.00000000000E+00  0.00000000000E+00  0.13999884364E+04  0.13999884364E+04  0.00000000000E+00 0. -1.
          1   -1    0    0  501    0 -0.00000000000E+00 -0.00000000000E+00 -0.16326023173E+03  0.16326023173E+03  0.00000000000E+00 0. -1.
         25    2    1    2    0    0 -0.14228686204E+02 -0.68514557857E+02 -0.38768906149E+02  0.14840610680E+03  0.12499857720E+03 0.  0.
          2    1    1    2  501    0  0.16585694389E+02  0.40392606895E+02 -0.62667873390E+02  0.76380038658E+02  0.00000000000E+00 0. -1.
          1    1    1    2  502    0 -0.23570081855E+01  0.28121950963E+02  0.13381649842E+04  0.13384625227E+04  0.00000000000E+00 0. -1.
         22    1    3    3    0    0  0.25716930336E+02 -0.44870667690E+02  0.34143367137E+02  0.61971822987E+02  0.00000000000E+00 0.  1.
         22    1    3    3    0    0 -0.39945616539E+02 -0.23643890168E+02 -0.72912273287E+02  0.86434283816E+02  0.00000000000E+00 0.  1.
</event>
<event>
 7    1  0.5977291E-006  0.5914267E+02  0.7818608E-02  0.1528576E+00
          2   -1    0    0  502    0  0.00000000000E+00  0.00000000000E+00  0.36053034834E+03  0.36053034834E+03  0.00000000000E+00 0. -1.
          1   -1    0    0  501    0 -0.00000000000E+00 -0.00000000000E+00 -0.29397839643E+03  0.29397839643E+03  0.00000000000E+00 0. -1.
         25    2    1    2    0    0  0.21607571659E+02  0.57958491713E+02  0.12980634678E+03  0.19052616433E+03  0.12499783085E+03 0.  0.
          2    1    1    2  501    0  0.19644598503E+01 -0.59148278097E+02 -0.25958130954E+03  0.26624205935E+03  0.00000000000E+00 0. -1.
          1    1    1    2  502    0 -0.23572031509E+02  0.11897863836E+01  0.19632691466E+03  0.19774052109E+03  0.00000000000E+00 0. -1.
         22    1    3    3    0    0 -0.33319042433E+02 -0.23376814954E+02  0.46457659387E+02  0.61765266791E+02  0.00000000000E+00 0.  1.
         22    1    3    3    0    0  0.54926614091E+02  0.81335306667E+02  0.83348687393E+02  0.12876089754E+03  0.00000000000E+00 0.  1.
</event>
<event>
 7    1  0.5977291E-006  0.7702514E+02  0.7818608E-02  0.1451321E+00
          2   -1    0    0  502    0  0.00000000000E+00  0.00000000000E+00  0.20271368932E+04  0.20271368932E+04  0.00000000000E+00 0. -1.
          1   -1    0    0  501    0 -0.00000000000E+00 -0.00000000000E+00 -0.11688260265E+04  0.11688260265E+04  0.00000000000E+00 0. -1.
         25    2    1    2    0    0 -0.10489337157E+03  0.14147845532E+02  0.28990632536E+03  0.33297722925E+03  0.12500150711E+03 0.  0.
          2    1    1    2  501    0  0.30917815549E+02  0.29153771218E+01 -0.11462403428E+04  0.11466609500E+04  0.00000000000E+00 0. -1.
          1    1    1    2  502    0  0.73975556021E+02 -0.17063222654E+02  0.17146448841E+04  0.17163247405E+04  0.00000000000E+00 0. -1.
         22    1    3    3    0    0 -0.12726946340E+03  0.13760953257E+02  0.18037641337E+03  0.22118438156E+03  0.00000000000E+00 0. -1.
         22    1    3    3    0    0  0.22376091831E+02  0.38689227592E+00  0.10952991199E+03  0.11179284768E+03  0.00000000000E+00 0. -1.
</event>
<event>
 7    1  0.5977291E-006  0.1123271E+03  0.7818608E-02  0.1395183E+00
          2   -1    0    0  502    0  0.00000000000E+00  0.00000000000E+00  0.16789546457E+04  0.16789546457E+04  0.00000000000E+00 0. -1.
          1   -1    0    0  501    0 -0.00000000000E+00 -0.00000000000E+00 -0.26194310835E+03  0.26194310835E+03  0.00000000000E+00 0. -1.
         25    2    1    2    0    0 -0.36077884188E+02  0.10694272586E+03  0.61572713080E+02  0.17931606248E+03  0.12499876369E+03 0.  0.
          2    1    1    2  501    0  0.38632256981E+01 -0.11273909391E+03 -0.18721871911E+03  0.21857693519E+03  0.00000000000E+00 0. -1.
          1    1    1    2  502    0  0.32214658490E+02  0.57963680486E+01  0.15426575434E+04  0.15430047564E+04  0.00000000000E+00 0. -1.
         22    1    3    3    0    0 -0.52436154950E+01 -0.28665048478E+02  0.14053671821E+02  0.32352530030E+02  0.00000000000E+00 0. -1.
         22    1    3    3    0    0 -0.30834268693E+02  0.13560777434E+03  0.47519041259E+02  0.14696353245E+03  0.00000000000E+00 0. -1.
</event>
<event>
 7    1  0.5977291E-006  0.2252733E+03  0.7818608E-02  0.1288886E+00
          2   -1    0    0  502    0  0.00000000000E+00  0.00000000000E+00  0.11823411027E+04  0.11823411027E+04  0.00000000000E+00 0. -1.
          1   -1    0    0  501    0 -0.00000000000E+00 -0.00000000000E+00 -0.24287243902E+03  0.24287243902E+03  0.00000000000E+00 0. -1.
         25    2    1    2    0    0 -0.14316733261E+03  0.13851025658E+03  0.76189008362E+02  0.24720850034E+03  0.12500120534E+03 0.  0.
          2    1    1    2  501    0  0.17410559119E+03 -0.16530873323E+03 -0.65077123313E+02  0.24874638921E+03  0.00000000000E+00 0. -1.
          1    1    1    2  502    0 -0.30938258577E+02  0.26798476649E+02  0.92835677865E+03  0.92925865219E+03  0.00000000000E+00 0. -1.
         22    1    3    3    0    0 -0.14777698762E+03  0.15663181007E+03  0.76448452163E+02  0.22850804764E+03  0.00000000000E+00 0. -1.
         22    1    3    3    0    0  0.46096550039E+01 -0.18121553490E+02 -0.25944380106E+00  0.18700452702E+02  0.00000000000E+00 0. -1.
</event>
<event>
 7    1  0.5977291E-006  0.6139777E+02  0.7818608E-02  0.1527611E+00
          2   -1    0    0  502    0  0.00000000000E+00  0.00000000000E+00  0.11629109148E+04  0.11629109148E+04  0.00000000000E+00 0. -1.
          1   -1    0    0  501    0 -0.00000000000E+00 -0.00000000000E+00 -0.27382500531E+02  0.27382500531E+02  0.00000000000E+00 0. -1.
         25    2    1    2    0    0  0.37020468461E+01 -0.80092444870E+02  0.52196754099E+03  0.54268108896E+03  0.12499658230E+03 0.  0.
          2    1    1    2  501    0  0.62691521920E+01  0.22005120385E+02 -0.72563578738E+01  0.24003798073E+02  0.00000000000E+00 0. -1.
          1    1    1    2  502    0 -0.99711990381E+01  0.58087324485E+02  0.62081723116E+03  0.62360852831E+03  0.00000000000E+00 0. -1.
         22    1    3    3    0    0 -0.14749111514E+02 -0.10688144894E+03  0.46229328803E+03  0.47471703632E+03  0.00000000000E+00 0. -1.
         22    1    3    3    0    0  0.18451158360E+02  0.26789004070E+02  0.59674252964E+02  0.67964052636E+02  0.00000000000E+00 0. -1.
</event>
<event>
 7    1  0.5977291E-006  0.7281894E+02  0.7818608E-02  0.1492909E+00
          2   -1    0    0  502    0  0.00000000000E+00  0.00000000000E+00  0.16229728351E+04  0.16229728351E+04  0.00000000000E+00 0. -1.
          1   -1    0    0  501    0 -0.00000000000E+00 -0.00000000000E+00 -0.27573047457E+02  0.27573047457E+02  0.00000000000E+00 0. -1.
         25    2    1    2    0    0  0.28958552089E+02 -0.50191451509E+02  0.20598614864E+03  0.24781837831E+03  0.12500350257E+03 0.  0.
          2    1    1    2  501    0 -0.11739542762E+02 -0.21397752520E+02  0.20608904504E+02  0.31943819778E+02  0.00000000000E+00 0. -1.
          1    1    1    2  502    0 -0.17219009327E+02  0.71589204030E+02  0.13688047345E+04  0.13707836845E+04  0.00000000000E+00 0. -1.
         22    1    3    3    0    0  0.75777295904E+02 -0.49752848727E+02  0.14355492015E+03  0.16978091657E+03  0.00000000000E+00 0. -1.
         22    1    3    3    0    0 -0.46818743815E+02 -0.43860278209E+00  0.62431228494E+02  0.78037461748E+02  0.00000000000E+00 0. -1.
</event>
<event>
 7    1  0.5977291E-006  0.6863108E+02  0.7818608E-02  0.1491143E+00
          2   -1    0    0  502    0  0.00000000000E+00  0.00000000000E+00  0.11580395213E+04  0.11580395213E+04  0.00000000000E+00 0. -1.
          1   -1    0    0  501    0 -0.00000000000E+00 -0.00000000000E+00 -0.62218647068E+03  0.62218647068E+03  0.00000000000E+00 0. -1.
         25    2    1    2    0    0  0.94349931855E+01  0.87218239140E+02  0.20723963679E+01  0.15274869578E+03  0.12502731262E+03 0.  0.
          2    1    1    2  501    0 -0.22342660144E+02 -0.64400560338E+02 -0.54456411883E+03  0.54881390849E+03  0.00000000000E+00 0. -1.
          1    1    1    2  502    0  0.12907666959E+02 -0.22817678802E+02  0.10783447731E+04  0.10786633877E+04  0.00000000000E+00 0. -1.
         22    1    3    3    0    0  0.58196428327E+02  0.19313564044E+02 -0.22971884049E+02  0.65479351576E+02  0.00000000000E+00 0. -1.
         22    1    3    3    0    0 -0.48761435142E+02  0.67904675096E+02  0.25044280417E+02  0.87269344208E+02  0.00000000000E+00 0. -1.
</event>
<event>
 7    1  0.5977291E-006  0.5855050E+02  0.7818608E-02  0.1428500E+00
          2   -1    0    0  502    0  0.00000000000E+00  0.00000000000E+00  0.81937880905E+03  0.81937880905E+03  0.00000000000E+00 0. -1.
          1   -1    0    0  501    0 -0.00000000000E+00 -0.00000000000E+00 -0.12898042262E+03  0.12898042262E+03  0.00000000000E+00 0. -1.
         25    2    1    2    0    0 -0.18169197904E+02 -0.66573558035E+01  0.42948776283E+03  0.44772540218E+03  0.12499542873E+03 0.  0.
          2    1    1    2  501    0  0.52596352488E+02 -0.27435565923E+02 -0.11085214515E+03  0.12572702437E+03  0.00000000000E+00 0. -1.
          1    1    1    2  502    0 -0.34427154584E+02  0.34092921727E+02  0.37176276876E+03  0.37490680511E+03  0.00000000000E+00 0. -1.
         22    1    3    3    0    0  0.36883993516E+02 -0.45534908713E+02  0.21947399111E+03  0.22716225404E+03  0.00000000000E+00 0.  1.
         22    1    3    3    0    0 -0.55053191421E+02  0.38877552910E+02  0.21001377172E+03  0.22056314814E+03  0.00000000000E+00 0.  1.
</event>
<event>
 7    1  0.5977291E-006  0.1439981E+03  0.7818608E-02  0.1245042E+00
          2   -1    0    0  502    0  0.00000000000E+00  0.00000000000E+00  0.13864219842E+03  0.13864219842E+03  0.00000000000E+00 0. -1.
          1   -1    0    0  501    0 -0.00000000000E+00 -0.00000000000E+00 -0.76404025428E+03  0.76404025428E+03  0.00000000000E+00 0. -1.
         25    2    1    2    0    0  0.90964191275E+02 -0.25088755082E+02 -0.67184130955E+02  0.17041837926E+03  0.12499914724E+03 0.  0.
          2    1    1    2  501    0 -0.97360004056E+02  0.12293821987E+03 -0.60401207189E+03  0.62403794699E+03  0.00000000000E+00 0. -1.
          1    1    1    2  502    0  0.63958127806E+01 -0.97849464787E+02  0.45798146986E+02  0.10822612646E+03  0.00000000000E+00 0. -1.
         22    1    3    3    0    0  0.77437164390E+02  0.22739724016E+02 -0.85380228453E+02  0.11748784145E+03  0.00000000000E+00 0.  1.
         22    1    3    3    0    0  0.13527026885E+02 -0.47828479097E+02  0.18196097498E+02  0.52930537814E+02  0.00000000000E+00 0.  1.
</event>
<event>
 7    1  0.5977291E-006  0.4910648E+02  0.7818608E-02  0.1528361E+00
          2   -1    0    0  502    0  0.00000000000E+00  0.00000000000E+00  0.15568927826E+04  0.15568927826E+04  0.00000000000E+00 0. -1.
          1   -1    0    0  501    0 -0.00000000000E+00 -0.00000000000E+00 -0.12842590416E+03  0.12842590416E+03  0.00000000000E+00 0. -1.
         25    2    1    2    0    0  0.29613969551E+02 -0.19576237585E+02  0.98935737499E+02  0.16332438777E+03  0.12500543674E+03 0.  0.
          2    1    1    2  501    0 -0.11126769400E+02 -0.26201556965E+02 -0.93689009582E+02  0.97918114264E+02  0.00000000000E+00 0. -1.
          1    1    1    2  502    0 -0.18487200151E+02  0.45777794550E+02  0.14232201505E+04  0.14240761847E+04  0.00000000000E+00 0. -1.
         22    1    3    3    0    0  0.78948514516E+02 -0.11858374482E+02  0.56656863870E+02  0.97895297197E+02  0.00000000000E+00 0. -1.
         22    1    3    3    0    0 -0.49334544965E+02 -0.77178631033E+01  0.42278873629E+02  0.65429090572E+02  0.00000000000E+00 0. -1.
</event>
<event>
 7    1  0.5977291E-006  0.7896297E+02  0.7818608E-02  0.1352397E+00
          2   -1    0    0  502    0  0.00000000000E+00  0.00000000000E+00  0.14046709394E+04  0.14046709394E+04  0.00000000000E+00 0. -1.
          1   -1    0    0  501    0 -0.00000000000E+00 -0.00000000000E+00 -0.64243658488E+03  0.64243658488E+03  0.00000000000E+00 0. -1.
         25    2    1    2    0    0  0.82216586823E+02 -0.41409769126E+02  0.23028261648E+03  0.27771879544E+03  0.12499323886E+03 0.  0.
          2    1    1    2  501    0 -0.25139358104E+02  0.74994180125E+02 -0.61523177226E+03  0.62029529095E+03  0.00000000000E+00 0. -1.
          1    1    1    2  502    0 -0.57077228719E+02 -0.33584411000E+02  0.11471835103E+04  0.11490934379E+04  0.00000000000E+00 0. -1.
         22    1    3    3    0    0 -0.31284685623E+02 -0.23514134607E+02  0.44369142674E+02  0.59163053525E+02  0.00000000000E+00 0. -1.
         22    1    3    3    0    0  0.11350127245E+03 -0.17895634519E+02  0.18591347380E+03  0.21855574191E+03  0.00000000000E+00 0. -1.
</event>
<event>
 7    1  0.5977291E-006  0.5660485E+03  0.7818608E-02  0.1120060E+00
          2   -1    0    0  502    0  0.00000000000E+00  0.00000000000E+00  0.59049410674E+03  0.59049410674E+03  0.00000000000E+00 0. -1.
          1   -1    0    0  501    0 -0.00000000000E+00 -0.00000000000E+00 -0.85303935525E+03  0.85303935525E+03  0.00000000000E+00 0. -1.
         25    2    1    2    0    0 -0.38093251530E+03  0.42093576569E+03 -0.18092943828E+03  0.60881557310E+03  0.12499776142E+03 0.  0.
          2    1    1    2  501    0  0.80575021350E+02  0.61589796554E+02 -0.22650187189E+03  0.24817077805E+03  0.00000000000E+00 0. -1.
          1    1    1    2  502    0  0.30035749395E+03 -0.48252556224E+03  0.14488606166E+03  0.58654711085E+03  0.00000000000E+00 0. -1.
         22    1    3    3    0    0 -0.59011865936E+02  0.17561765317E+02 -0.41425444629E+02  0.74208378132E+02  0.00000000000E+00 0.  1.
         22    1    3    3    0    0 -0.32192064936E+03  0.40337400037E+03 -0.13950399365E+03  0.53460719496E+03  0.00000000000E+00 0.  1.
</event>
<event>
 7    1  0.5977291E-006  0.9987884E+02  0.7818608E-02  0.1420090E+00
          2   -1    0    0  502    0  0.00000000000E+00  0.00000000000E+00  0.13086600634E+03  0.13086600634E+03  0.00000000000E+00 0. -1.
          1   -1    0    0  501    0 -0.00000000000E+00 -0.00000000000E+00 -0.35563597220E+03  0.35563597220E+03  0.00000000000E+00 0. -1.
         25    2    1    2    0    0 -0.69832011009E+02  0.60089874532E+02  0.21842584915E+02  0.15681139561E+03  0.12500164996E+03 0.  0.
          2    1    1    2  501    0  0.53603968503E+02 -0.85664529297E+02 -0.27200262090E+03  0.29016757709E+03  0.00000000000E+00 0. -1.
          1    1    1    2  502    0  0.16228042505E+02  0.25574654765E+02  0.25390070119E+02  0.39523005839E+02  0.00000000000E+00 0. -1.
         22    1    3    3    0    0 -0.31138023992E+02 -0.14657893982E+02 -0.39701582423E+02  0.52541850377E+02  0.00000000000E+00 0.  1.
         22    1    3    3    0    0 -0.38693987017E+02  0.74747768513E+02  0.61544167338E+02  0.10426954523E+03  0.00000000000E+00 0.  1.
</event>
<event>
 7    1  0.5977291E-006  0.7400935E+02  0.7818608E-02  0.1387459E+00
          2   -1    0    0  502    0  0.00000000000E+00  0.00000000000E+00  0.62403355499E+03  0.62403355499E+03  0.00000000000E+00 0. -1.
          1   -1    0    0  501    0 -0.00000000000E+00 -0.00000000000E+00 -0.18234701806E+04  0.18234701806E+04  0.00000000000E+00 0. -1.
         25    2    1    2    0    0  0.51578275555E+02 -0.87261328729E+02 -0.12528072346E+03  0.20394834677E+03  0.12499924191E+03 0.  0.
          2    1    1    2  501    0 -0.51113375548E+02  0.13449168241E+02 -0.16561027868E+04  0.16569459550E+04  0.00000000000E+00 0. -1.
          1    1    1    2  502    0 -0.46490000760E+00  0.73812160489E+02  0.58194688471E+03  0.58660943378E+03  0.00000000000E+00 0. -1.
         22    1    3    3    0    0  0.52220408617E+01  0.24195575498E+02 -0.63899177099E+02  0.68525910562E+02  0.00000000000E+00 0. -1.
         22    1    3    3    0    0  0.46356234694E+02 -0.11145690423E+03 -0.61381546362E+02  0.13542243621E+03  0.00000000000E+00 0. -1.
</event>
<event>
 7    1  0.5977291E-006  0.1272227E+03  0.7818608E-02  0.1324305E+00
          2   -1    0    0  502    0  0.00000000000E+00  0.00000000000E+00  0.18674736228E+04  0.18674736228E+04  0.00000000000E+00 0. -1.
          1   -1    0    0  501    0 -0.00000000000E+00 -0.00000000000E+00 -0.78559443448E+03  0.78559443448E+03  0.00000000000E+00 0. -1.
         25    2    1    2    0    0 -0.13334719928E+02 -0.82971997130E+02 -0.29190264931E+03  0.32847190598E+03  0.12499787710E+03 0.  0.
          2    1    1    2  501    0  0.29188238684E+02 -0.43591947063E+02 -0.47175182038E+03  0.47465986892E+03  0.00000000000E+00 0. -1.
          1    1    1    2  502    0 -0.15853518756E+02  0.12656394419E+03  0.18455336581E+04  0.18499362824E+04  0.00000000000E+00 0. -1.
         22    1    3    3    0    0  0.19861966487E+02 -0.39212563802E+02 -0.15413843547E+02  0.46580140034E+02  0.00000000000E+00 0.  1.
         22    1    3    3    0    0 -0.33196686415E+02 -0.43759433328E+02 -0.27648880577E+03  0.28189176595E+03  0.00000000000E+00 0.  1.
</event>
<event>
 7    1  0.5977291E-006  0.9057016E+02  0.7818608E-02  0.1364839E+00
          2   -1    0    0  502    0  0.00000000000E+00  0.00000000000E+00  0.79884557193E+03  0.79884557193E+03  0.00000000000E+00 0. -1.
          1   -1    0    0  501    0 -0.00000000000E+00 -0.00000000000E+00 -0.86271454477E+03  0.86271454477E+03  0.00000000000E+00 0. -1.
         25    2    1    2    0    0  0.29269925490E+02 -0.13076962868E+03 -0.60942115927E+02  0.19312862277E+03  0.12500919612E+03 0.  0.
          2    1    1    2  501    0  0.11302251131E+02  0.50750912160E+02 -0.73200740920E+03  0.73385164924E+03  0.00000000000E+00 0. -1.
          1    1    1    2  502    0 -0.40572176621E+02  0.80018716521E+02  0.72908055228E+03  0.73457984469E+03  0.00000000000E+00 0. -1.
         22    1    3    3    0    0 -0.37455950795E+02 -0.14384648208E+02 -0.41232762802E+02  0.57532661005E+02  0.00000000000E+00 0.  1.
         22    1    3    3    0    0  0.66725876285E+02 -0.11638498047E+03 -0.19709353125E+02  0.13559596176E+03  0.00000000000E+00 0.  1.
</event>
<event>
 7    1  0.5977291E-006  0.5042194E+02  0.7818608E-02  0.1503465E+00
          2   -1    0    0  502    0  0.00000000000E+00  0.00000000000E+00  0.36030788630E+04  0.36030788630E+04  0.00000000000E+00 0. -1.
          1   -1    0    0  501    0 -0.00000000000E+00 -0.00000000000E+00 -0.41377340185E+02  0.41377340185E+02  0.00000000000E+00 0. -1.
         25    2    1    2    0    0  0.59481373700E+02 -0.25359982634E+01  0.12928964969E+03  0.18943494038E+03  0.12500127206E+03 0.  0.
          2    1    1    2  501    0 -0.18600819378E+02 -0.26986153871E+02  0.13034966832E+02  0.35272557926E+02  0.00000000000E+00 0. -1.
          1    1    1    2  502    0 -0.40880554322E+02  0.29522152135E+02  0.34193769063E+04  0.34197487049E+04  0.00000000000E+00 0. -1.
         22    1    3    3    0    0  0.25492721221E+02  0.56147825081E+02  0.95472208113E+02  0.11365473865E+03  0.00000000000E+00 0. -1.
         22    1    3    3    0    0  0.33988652479E+02 -0.58683823344E+02  0.33817441575E+02  0.75780201730E+02  0.00000000000E+00 0. -1.
</event>
<event>
 7    1  0.5977291E-006  0.1317951E+03  0.7818608E-02  0.1263943E+00
          2   -1    0    0  502    0  0.00000000000E+00  0.00000000000E+00  0.69319268955E+03  0.69319268955E+03  0.00000000000E+00 0. -1.
          1   -1    0    0  501    0 -0.00000000000E+00 -0.00000000000E+00 -0.80307036994E+03  0.80307036994E+03  0.00000000000E+00 0. -1.
         25    2    1    2    0    0  0.12402672444E+03 -0.21799865892E+02 -0.26215847791E+02  0.17936556109E+03  0.12500748498E+03 0.  0.
          2    1    1    2  501    0 -0.87118297080E+02  0.10259510946E+03 -0.69054947466E+03  0.70354383739E+03  0.00000000000E+00 0. -1.
          1    1    1    2  502    0 -0.36908427358E+02 -0.80795243563E+02  0.60688764206E+03  0.61335366101E+03  0.00000000000E+00 0. -1.
         22    1    3    3    0    0  0.27646781361E+02  0.15747003607E+02 -0.62187258635E+02  0.69853903103E+02  0.00000000000E+00 0.  1.
         22    1    3    3    0    0  0.96379943077E+02 -0.37546869499E+02  0.35971410844E+02  0.10951165799E+03  0.00000000000E+00 0.  1.
</event>
<event>
 7    1  0.5977291E-006  0.1452329E+03  0.7818608E-02  0.1271841E+00
          2   -1    0    0  502    0  0.00000000000E+00  0.00000000000E+00  0.32029753727E+03  0.32029753727E+03  0.00000000000E+00 0. -1.
          1   -1    0    0  501    0 -0.00000000000E+00 -0.00000000000E+00 -0.18113907422E+04  0.18113907422E+04  0.00000000000E+00 0. -1.
         25    2    1    2    0    0  0.12972173668E+03  0.52843427162E+01  0.20513778760E+03  0.27306195211E+03  0.12500265815E+03 0.  0.
          2    1    1    2  501    0  0.73786516615E+02  0.11396508690E+02 -0.16468601873E+04  0.16485517302E+04  0.00000000000E+00 0. -1.
          1    1    1    2  502    0 -0.20350825330E+03 -0.16680851406E+02 -0.49370805151E+02  0.21007459714E+03  0.00000000000E+00 0. -1.
         22    1    3    3    0    0  0.43691068368E+02  0.33979349717E+02  0.78172593050E+01  0.55898257623E+02  0.00000000000E+00 0. -1.
         22    1    3    3    0    0  0.86030668313E+02 -0.28695007000E+02  0.19732052829E+03  0.21716369448E+03  0.00000000000E+00 0. -1.
</event>
<event>
 7    1  0.5977291E-006  0.1953686E+03  0.7818608E-02  0.1354764E+00
          2   -1    0    0  502    0  0.00000000000E+00  0.00000000000E+00  0.15695403708E+04  0.15695403708E+04  0.00000000000E+00 0. -1.
          1   -1    0    0  501    0 -0.00000000000E+00 -0.00000000000E+00 -0.56291771414E+03  0.56291771414E+03  0.00000000000E+00 0. -1.
         25    2    1    2    0    0  0.19310352934E+03  0.89105783484E+02 -0.32282623532E+02  0.24878596283E+03  0.12499389516E+03 0.  0.
          2    1    1    2  501    0 -0.18019325219E+03 -0.66268284390E+02 -0.40044039906E+03  0.44408738650E+03  0.00000000000E+00 0. -1.
          1    1    1    2  502    0 -0.12910277152E+02 -0.22837499094E+02  0.14393456793E+04  0.14395847356E+04  0.00000000000E+00 0. -1.
         22    1    3    3    0    0  0.17448591259E+03  0.20688492901E+02 -0.25665576083E+02  0.17757271532E+03  0.00000000000E+00 0.  1.
         22    1    3    3    0    0  0.18617616745E+02  0.68417290583E+02 -0.66170474489E+01  0.71213247510E+02  0.00000000000E+00 0.  1.
</event>
<event>
 7    1  0.5977291E-006  0.1376228E+03  0.7818608E-02  0.1233355E+00
          2   -1    0    0  502    0  0.00000000000E+00  0.00000000000E+00  0.70649012865E+03  0.70649012865E+03  0.00000000000E+00 0. -1.
          1   -1    0    0  501    0 -0.00000000000E+00 -0.00000000000E+00 -0.24069431394E+04  0.24069431394E+04  0.00000000000E+00 0. -1.
         25    2    1    2    0    0  0.83326059336E+02  0.20267999822E+03 -0.23841686492E+03  0.34711862176E+03  0.12500528889E+03 0.  0.
          2    1    1    2  501    0  0.10226062368E+02 -0.13486082145E+03 -0.21068717106E+04  0.21112082840E+04  0.00000000000E+00 0. -1.
          1    1    1    2  502    0 -0.93552121704E+02 -0.67819176775E+02  0.64483556481E+03  0.65510636225E+03  0.00000000000E+00 0. -1.
         22    1    3    3    0    0  0.10359600515E+03  0.14199823189E+03 -0.21784590838E+03  0.27991511203E+03  0.00000000000E+00 0. -1.
         22    1    3    3    0    0 -0.20269945809E+02  0.60681766327E+02 -0.20570956542E+02  0.67203509736E+02  0.00000000000E+00 0. -1.
</event>
<event>
 7    1  0.5977291E-006  0.5155039E+02  0.7818608E-02  0.1555571E+00
          2   -1    0    0  502    0  0.00000000000E+00  0.00000000000E+00  0.43926955497E+03  0.43926955497E+03  0.00000000000E+00 0. -1.
          1   -1    0    0  501    0 -0.00000000000E+00 -0.00000000000E+00 -0.55258466031E+03  0.55258466031E+03  0.00000000000E+00 0. -1.
         25    2    1    2    0    0  0.60380339316E+02  0.88710334536E+01 -0.16547462353E+03  0.21617537604E+03  0.12500184623E+03 0.  0.
          2    1    1    2  501    0 -0.49883306820E+02  0.11284904471E+02 -0.35963717960E+03  0.36325554961E+03  0.00000000000E+00 0. -1.
          1    1    1    2  502    0 -0.10497032496E+02 -0.20155937925E+02  0.41179669779E+03  0.41242328964E+03  0.00000000000E+00 0. -1.
         22    1    3    3    0    0  0.20024226466E+01 -0.26252093261E+00 -0.15637815059E+03  0.15639119092E+03  0.00000000000E+00 0. -1.
         22    1    3    3    0    0  0.58377916670E+02  0.91335543862E+01 -0.90964729365E+01  0.59784185119E+02  0.00000000000E+00 0. -1.
</event>
<event>
 7    1  0.5977291E-006  0.9030697E+02  0.7818608E-02  0.1371165E+00
          2   -1    0    0  502    0  0.00000000000E+00  0.00000000000E+00  0.11907820357E+04  0.11907820357E+04  0.00000000000E+00 0. -1.
          1   -1    0    0  501    0 -0.00000000000E+00 -0.00000000000E+00 -0.36720924389E+03  0.36720924389E+03  0.00000000000E+00 0. -1.
         25    2    1    2    0    0 -0.28198555636E+02 -0.11777509945E+03 -0.18800251829E+03  0.25619269581E+03  0.12499447152E+03 0.  0.
          2    1    1    2  501    0 -0.49465983174E+01  0.81040400768E+02 -0.13317848900E+03  0.15597604086E+03  0.00000000000E+00 0. -1.
          1    1    1    2  502    0  0.33145153953E+02  0.36734698678E+02  0.11447537991E+04  0.11458225429E+04  0.00000000000E+00 0. -1.
         22    1    3    3    0    0 -0.13862940539E+02 -0.11398062561E+03 -0.64288791748E+02  0.13159336183E+03  0.00000000000E+00 0. -1.
         22    1    3    3    0    0 -0.14335615096E+02 -0.37944738407E+01 -0.12371372654E+03  0.12459933398E+03  0.00000000000E+00 0. -1.
</event>
<event>
 7    1  0.5977291E-006  0.8598008E+02  0.7818608E-02  0.1343007E+00
          2   -1    0    0  502    0  0.00000000000E+00  0.00000000000E+00  0.17314369667E+04  0.17314369667E+04  0.00000000000E+00 0. -1.
          1   -1    0    0  501    0 -0.00000000000E+00 -0.00000000000E+00 -0.55797298889E+03  0.55797298889E+03  0.00000000000E+00 0. -1.
         25    2    1    2    0    0  0.12138385141E+03 -0.86819116704E+02  0.45425293990E+03  0.49420899038E+03  0.12500077745E+03 0.  0.
          2    1    1    2  501    0 -0.61355167853E+02  0.59600711791E+02 -0.53372327128E+03  0.54053420962E+03  0.00000000000E+00 0. -1.
          1    1    1    2  502    0 -0.60028683552E+02  0.27218404914E+02  0.12529343091E+04  0.12546667555E+04  0.00000000000E+00 0. -1.
         22    1    3    3    0    0  0.70560355989E+02 -0.82713941208E+02  0.14745611689E+03  0.18320389274E+03  0.00000000000E+00 0.  1.
         22    1    3    3    0    0  0.50823495417E+02 -0.41051754960E+01  0.30679682301E+03  0.31100509764E+03  0.00000000000E+00 0.  1.
</event>
<event>
 7    1  0.5977291E-006  0.3217002E+03  0.7818608E-02  0.1198301E+00
          2   -1    0    0  502    0  0.00000000000E+00  0.00000000000E+00  0.25357949407E+04  0.25357949407E+04  0.00000000000E+00 0. -1.
          1   -1    0    0  501    0 -0.00000000000E+00 -0.00000000000E+00 -0.15843111478E+04  0.15843111478E+04  0.00000000000E+00 0. -1.
         25    2    1    2    0    0  0.21897667251E+03  0.16171413534E+03  0.59144108400E+03  0.66297102447E+03  0.12500311502E+03 0.  0.
          2    1    1    2  501    0 -0.22371332490E+03 -0.23316910686E+03 -0.15310040573E+04  0.15647328550E+04  0.00000000000E+00 0. -1.
          1    1    1    2  502    0  0.47366523855E+01  0.71454971522E+02  0.18910467662E+04  0.18924022090E+04  0.00000000000E+00 0. -1.
         22    1    3    3    0    0  0.14107077396E+03  0.88469196575E+02  0.48204411341E+03  0.50999440122E+03  0.00000000000E+00 0.  1.
         22    1    3    3    0    0  0.77905898551E+02  0.73244938766E+02  0.10939697059E+03  0.15297662324E+03  0.00000000000E+00 0.  1.
</event>
<event>
 7    1  0.5977291E-006  0.1222667E+03  0.7818608E-02  0.1330552E+00
          2   -1    0    0  502    0  0.00000000000E+00  0.00000000000E+00  0.26840970693E+03  0.26840970693E+03  0.00000000000E+00 0. -1.
          1   -1    0    0  501    0 -0.00000000000E+00 -0.00000000000E+00 -0.22532520646E+04  0.22532520646E+04  0.00000000000E+00 0. -1.
         25    2    1    2    0    0 -0.14863764846E+03 -0.69512321683E+01 -0.34865071137E+03  0.39915402294E+03  0.12500058128E+03 0.  0.
          2    1    1    2  501    0  0.11612369367E+03 -0.33191130552E+02 -0.18746407336E+04  0.18785271474E+04  0.00000000000E+00 0. -1.
          1    1    1    2  502    0  0.32513954794E+02  0.40142362720E+02  0.23844908729E+03  0.24398060122E+03  0.00000000000E+00 0. -1.
         22    1    3    3    0    0 -0.28557493493E+02 -0.50436088854E+02 -0.16955049517E+03  0.17918342531E+03  0.00000000000E+00 0.  1.
         22    1    3    3    0    0 -0.12008015497E+03  0.43484856686E+02 -0.17910021620E+03  0.21997059763E+03  0.00000000000E+00 0.  1.
</event>
<event>
 7    1  0.5977291E-006  0.2276186E+03  0.7818608E-02  0.1165621E+00
          2   -1    0    0  502    0  0.00000000000E+00  0.00000000000E+00  0.11985748355E+03  0.11985748355E+03  0.00000000000E+00 0. -1.
          1   -1    0    0  501    0 -0.00000000000E+00 -0.00000000000E+00 -0.19047542240E+04  0.19047542240E+04  0.00000000000E+00 0. -1.
         25    2    1    2    0    0 -0.18052306216E+02 -0.10769963705E+03 -0.70659889618E+03  0.72583146545E+03  0.12499687422E+03 0.  0.
          2    1    1    2  501    0 -0.60474547002E+02 -0.13284352417E+03 -0.10310997543E+04  0.10413795063E+04  0.00000000000E+00 0. -1.
          1    1    1    2  502    0  0.78526853218E+02  0.24054316122E+03 -0.47198089909E+02  0.25740073577E+03  0.00000000000E+00 0. -1.
         22    1    3    3    0    0 -0.58712726896E+02 -0.49160416219E+02 -0.19851248358E+03  0.21277015054E+03  0.00000000000E+00 0.  1.
         22    1    3    3    0    0  0.40660420680E+02 -0.58539220831E+02 -0.50808641260E+03  0.51306131491E+03  0.00000000000E+00 0.  1.
</event>
<event>
 7    1  0.5977291E-006  0.3301111E+03  0.7818608E-02  0.1129639E+00
          2   -1    0    0  502    0  0.00000000000E+00  0.00000000000E+00  0.22056903291E+04  0.22056903291E+04  0.00000000000E+00 0. -1.
          1   -1    0    0  501    0 -0.00000000000E+00 -0.00000000000E+00 -0.19339383637E+03  0.19339383637E+03  0.00000000000E+00 0. -1.
         25    2    1    2    0    0 -0.15368950304E+03  0.33288356549E+03  0.99083208903E+03  0.10638635817E+04  0.12500224154E+03 0.  0.
          2    1    1    2  501    0  0.15389115100E+03 -0.12961126362E+02 -0.89919607175E+02  0.17870649934E+03  0.00000000000E+00 0. -1.
          1    1    1    2  502    0 -0.20164795820E+00 -0.31992243913E+03  0.11113840109E+04  0.11565140844E+04  0.00000000000E+00 0. -1.
         22    1    3    3    0    0 -0.69004447817E+02  0.11996151360E+03  0.22193676096E+03  0.26154981252E+03  0.00000000000E+00 0.  1.
         22    1    3    3    0    0 -0.84685055228E+02  0.21292205189E+03  0.76889532806E+03  0.80231376922E+03  0.00000000000E+00 0.  1.
</event>
<event>
 7    1  0.5977291E-006  0.1408159E+03  0.7818608E-02  0.1236425E+00
          2   -1    0    0  502    0  0.00000000000E+00  0.00000000000E+00  0.13692287618E+04  0.13692287618E+04  0.00000000000E+00 0. -1.
          1   -1    0    0  501    0 -0.00000000000E+00 -0.00000000000E+00 -0.30669562108E+04  0.30669562108E+04  0.00000000000E+00 0. -1.
         25    2    1    2    0    0 -0.17209465091E+03 -0.14528744620E+03  0.20885148248E+03  0.33161818974E+03  0.12500668437E+03 0.  0.
          2    1    1    2  501    0  0.64625757960E+02  0.12464867278E+03 -0.30012033228E+04  0.30044858404E+04  0.00000000000E+00 0. -1.
          1    1    1    2  502    0  0.10746889295E+03  0.20638773413E+02  0.10946243913E+04  0.11000809425E+04  0.00000000000E+00 0. -1.
         22    1    3    3    0    0 -0.34714607947E+02 -0.51009844696E+02  0.13683409055E+03  0.15010222050E+03  0.00000000000E+00 0.  1.
         22    1    3    3    0    0 -0.13738004296E+03 -0.94277601499E+02  0.72017391927E+02  0.18151596924E+03  0.00000000000E+00 0.  1.
</event>
<event>
 7    1  0.5977291E-006  0.7827922E+02  0.7818608E-02  0.1411264E+00
          2   -1    0    0  502    0  0.00000000000E+00  0.00000000000E+00  0.23104501734E+04  0.23104501734E+04  0.00000000000E+00 0. -1.
          1   -1    0    0  501    0 -0.00000000000E+00 -0.00000000000E+00 -0.47379821289E+03  0.47379821289E+03  0.00000000000E+00 0. -1.
         25    2    1    2    0    0  0.12944563272E+02  0.40814234420E+02  0.39797577482E+03  0.41933648400E+03  0.12500002408E+03 0.  0.
          2    1    1    2  501    0  0.30687693642E+02  0.27756690134E+02 -0.46132307936E+03  0.46317507698E+03  0.00000000000E+00 0. -1.
          1    1    1    2  502    0 -0.43632256915E+02 -0.68570924555E+02  0.18999992651E+04  0.19017368253E+04  0.00000000000E+00 0. -1.
         22    1    3    3    0    0 -0.47717764001E+02 -0.11055847943E+02  0.10821804652E+03  0.11878704629E+03  0.00000000000E+00 0.  1.
         22    1    3    3    0    0  0.60662327273E+02  0.51870082363E+02  0.28975772830E+03  0.30054943770E+03  0.00000000000E+00 0.  1.
</event>
<event>
 7    1  0.5977291E-006  0.1042755E+03  0.7818608E-02  0.1410516E+00
          2   -1    0    0  502    0  0.00000000000E+00  0.00000000000E+00  0.22953719056E+04  0.22953719056E+04  0.00000000000E+00 0. -1.
          1   -1    0    0  501    0 -0.00000000000E+00 -0.00000000000E+00 -0.71346416916E+02  0.71346416916E+02  0.00000000000E+00 0. -1.
         25    2    1    2    0    0  0.60210179093E+02 -0.46316296035E+02  0.84284422637E+03  0.85544241472E+03  0.12499948019E+03 0.  0.
          2    1    1    2  501    0 -0.76521982053E+02  0.72964435500E+02 -0.21791698599E+02  0.10795508655E+03  0.00000000000E+00 0. -1.
          1    1    1    2  502    0  0.16311802960E+02 -0.26648139465E+02  0.14029729609E+04  0.14033208213E+04  0.00000000000E+00 0. -1.
         22    1    3    3    0    0  0.30014079246E+02  0.70042440910E+01  0.41163052339E+02  0.51422769919E+02  0.00000000000E+00 0.  1.
         22    1    3    3    0    0  0.30196099847E+02 -0.53320540126E+02  0.80168117403E+03  0.80401964481E+03  0.00000000000E+00 0.  1.
</event>
<event>
 7    1  0.5977291E-006  0.6672948E+02  0.7818608E-02  0.1426190E+00
          2   -1    0    0  502    0  0.00000000000E+00  0.00000000000E+00  0.59850358999E+03  0.59850358999E+03  0.00000000000E+00 0. -1.
          1   -1    0    0  501    0 -0.00000000000E+00 -0.00000000000E+00 -0.52829705553E+03  0.52829705553E+03  0.00000000000E+00 0. -1.
         25    2    1    2    0    0  0.80855084781E+02  0.70871097009E+02  0.33610308740E+03  0.37436680810E+03  0.12499985807E+03 0.  0.
          2    1    1    2  501    0 -0.42247096836E+02 -0.51340283484E+02 -0.50504513815E+03  0.50940282044E+03  0.00000000000E+00 0. -1.
          1    1    1    2  502    0 -0.38607987945E+02 -0.19530813526E+02  0.23914858521E+03  0.24303101698E+03  0.00000000000E+00 0. -1.
         22    1    3    3    0    0  0.33105892412E+02  0.89802225377E+01  0.56136002569E+01  0.34758553150E+02  0.00000000000E+00 0.  1.
         22    1    3    3    0    0  0.47749192369E+02  0.61890874471E+02  0.33048948715E+03  0.33960825495E+03  0.00000000000E+00 0.  1.
</event>
<event>
 7    1  0.5977291E-006  0.8242578E+02  0.7818608E-02  0.1497204E+00
          2   -1    0    0  502    0  0.00000000000E+00  0.00000000000E+00  0.10497881790E+04  0.10497881790E+04  0.00000000000E+00 0. -1.
          1   -1    0    0  501    0 -0.00000000000E+00 -0.00000000000E+00 -0.14570853863E+04  0.14570853863E+04  0.00000000000E+00 0. -1.
         25    2    1    2    0    0 -0.75206803280E+02  0.61341547346E+02  0.34259103246E+03  0.37737706243E+03  0.12500393208E+03 0.  0.
          2    1    1    2  501    0  0.60285034704E+01 -0.20043778592E+02 -0.14372633811E+04  0.14374157793E+04  0.00000000000E+00 0. -1.
          1    1    1    2  502    0  0.69178299810E+02 -0.41297768754E+02  0.68737514137E+03  0.69208072350E+03  0.00000000000E+00 0. -1.
         22    1    3    3    0    0 -0.19565684440E+02 -0.25362906770E+02  0.19362621452E+03  0.19625800365E+03  0.00000000000E+00 0. -1.
         22    1    3    3    0    0 -0.55641118840E+02  0.86704454116E+02  0.14896481794E+03  0.18111905878E+03  0.00000000000E+00 0. -1.
</event>
<event>
 7    1  0.5977291E-006  0.2371512E+03  0.7818608E-02  0.1255465E+00
          2   -1    0    0  502    0  0.00000000000E+00  0.00000000000E+00  0.10363882594E+04  0.10363882594E+04  0.00000000000E+00 0. -1.
          1   -1    0    0  501    0 -0.00000000000E+00 -0.00000000000E+00 -0.16769265476E+04  0.16769265476E+04  0.00000000000E+00 0. -1.
         25    2    1    2    0    0 -0.24311291684E+03  0.15804379425E+03 -0.84510978376E+03  0.90217352849E+03  0.12499919064E+03 0.  0.
          2    1    1    2  501    0  0.44912406066E+02 -0.29356684264E+02 -0.78850849742E+03  0.79033194902E+03  0.00000000000E+00 0. -1.
          1    1    1    2  502    0  0.19820051078E+03 -0.12868710999E+03  0.99307999302E+03  0.10208093295E+04  0.00000000000E+00 0. -1.
         22    1    3    3    0    0 -0.38347034593E+02  0.62233487308E+02 -0.35483695423E+03  0.36228823620E+03  0.00000000000E+00 0. -1.
         22    1    3    3    0    0 -0.20476588225E+03  0.95810306941E+02 -0.49027282954E+03  0.53988529229E+03  0.00000000000E+00 0. -1.
</event>
<event>
 7    1  0.5977291E-006  0.6710580E+02  0.7818608E-02  0.1459679E+00
          2   -1    0    0  502    0  0.00000000000E+00  0.00000000000E+00  0.97658962036E+03  0.97658962036E+03  0.00000000000E+00 0. -1.
          1   -1    0    0  501    0 -0.00000000000E+00 -0.00000000000E+00 -0.18749216689E+04  0.18749216689E+04  0.00000000000E+00 0. -1.
         25    2    1    2    0    0 -0.35272699104E+02 -0.64892713997E+02  0.10757449244E+03  0.18069953920E+03  0.12499929764E+03 0.  0.
          2    1    1    2  501    0  0.55311964388E+02  0.38006412460E+02 -0.18374086044E+04  0.18386338082E+04  0.00000000000E+00 0. -1.
          1    1    1    2  502    0 -0.20039265285E+02  0.26886301537E+02  0.83150206350E+03  0.83217794189E+03  0.00000000000E+00 0. -1.
         22    1    3    3    0    0  0.26008023106E+02 -0.29196897348E+02  0.10237750282E+03  0.10959027860E+03  0.00000000000E+00 0. -1.
         22    1    3    3    0    0 -0.61280722209E+02 -0.35695816649E+02  0.51969896170E+01  0.71109260591E+02  0.00000000000E+00 0. -1.
</event>
<event>
 7    1  0.5977291E-006  0.1002475E+03  0.7818608E-02  0.1400347E+00
          2   -1    0    0  502    0  0.00000000000E+00  0.00000000000E+00  0.48182871331E+03  0.48182871331E+03  0.00000000000E+00 0. -1.
          1   -1    0    0  501    0 -0.00000000000E+00 -0.00000000000E+00 -0.52555591442E+03  0.52555591442E+03  0.00000000000E+00 0. -1.
         25    2    1    2    0    0 -0.87511719504E+02  0.80375860763E+02  0.25094589655E+03  0.30449587833E+03  0.12500126752E+03 0.  0.
          2    1    1    2  501    0  0.52618112612E+02 -0.85025123962E+02 -0.49219792858E+03  0.50225166837E+03  0.00000000000E+00 0. -1.
          1    1    1    2  502    0  0.34893606892E+02  0.46492631990E+01  0.19752483092E+03  0.20063708102E+03  0.00000000000E+00 0. -1.
         22    1    3    3    0    0  0.21546405645E+02  0.52590841945E+02  0.11281678825E+03  0.12632367935E+03  0.00000000000E+00 0. -1.
         22    1    3    3    0    0 -0.10905812515E+03  0.27785018818E+02  0.13812910830E+03  0.17817219898E+03  0.00000000000E+00 0. -1.
</event>
<event>
 7    1  0.5977291E-006  0.6472728E+02  0.7818608E-02  0.1476116E+00
          2   -1    0    0  502    0  0.00000000000E+00  0.00000000000E+00  0.30639987366E+03  0.30639987366E+03  0.00000000000E+00 0. -1.
          1   -1    0    0  501    0 -0.00000000000E+00 -0.00000000000E+00 -0.46877564088E+03  0.46877564088E+03  0.00000000000E+00 0. -1.
         25    2    1    2    0    0  0.71709576016E+02 -0.59661163648E+02  0.35861886499E+02  0.16004047341E+03  0.12500064194E+03 0.  0.
          2    1    1    2  501    0 -0.54024306082E+02  0.34331218057E+02 -0.40300181066E+03  0.40805357194E+03  0.00000000000E+00 0. -1.
          1    1    1    2  502    0 -0.17685269934E+02  0.25329945592E+02  0.20476415694E+03  0.20708146919E+03  0.00000000000E+00 0. -1.
         22    1    3    3    0    0 -0.25851669783E+02  0.15730766901E+02  0.18652483876E+02  0.35548291276E+02  0.00000000000E+00 0. -1.
         22    1    3    3    0    0  0.97561245800E+02 -0.75391930550E+02  0.17209402622E+02  0.12449218213E+03  0.00000000000E+00 0. -1.
</event>
<event>
 7    1  0.5977291E-006  0.1540477E+03  0.7818608E-02  0.1251798E+00
          2   -1    0    0  502    0  0.00000000000E+00  0.00000000000E+00  0.69523137773E+03  0.69523137773E+03  0.00000000000E+00 0. -1.
          1   -1    0    0  501    0 -0.00000000000E+00 -0.00000000000E+00 -0.62829134863E+03  0.62829134863E+03  0.00000000000E+00 0. -1.
         25    2    1    2    0    0 -0.18314174549E+02 -0.18220601832E+03  0.27694260205E+02  0.22344236856E+03  0.12500031168E+03 0.  0.
          2    1    1    2  501    0  0.75559854663E+02  0.40363051253E+02 -0.51655809897E+03  0.52361315602E+03  0.00000000000E+00 0. -1.
          1    1    1    2  502    0 -0.57245680114E+02  0.14184296706E+03  0.55580386786E+03  0.57646720178E+03  0.00000000000E+00 0. -1.
         22    1    3    3    0    0  0.17369940466E+02 -0.52525977995E+02  0.63537840438E+02  0.84248147539E+02  0.00000000000E+00 0. -1.
         22    1    3    3    0    0 -0.35684115015E+02 -0.12968004032E+03 -0.35843580233E+02  0.13919422102E+03  0.00000000000E+00 0. -1.
</event>
<event>
 7    1  0.5977291E-006  0.2638046E+03  0.7818608E-02  0.1217903E+00
          2   -1    0    0  502    0  0.00000000000E+00  0.00000000000E+00  0.11194024423E+04  0.11194024423E+04  0.00000000000E+00 0. -1.
          1   -1    0    0  501    0 -0.00000000000E+00 -0.00000000000E+00 -0.42915710723E+03  0.42915710723E+03  0.00000000000E+00 0. -1.
         25    2    1    2    0    0  0.27597956832E+03  0.35907523043E+02  0.42272365885E+02  0.30800286407E+03  0.12499895606E+03 0.  0.
          2    1    1    2  501    0 -0.15192633692E+02 -0.69139398535E+02 -0.27339778252E+03  0.28241356206E+03  0.00000000000E+00 0. -1.
          1    1    1    2  502    0 -0.26078693463E+03  0.33231875493E+02  0.92137075175E+03  0.95814312345E+03  0.00000000000E+00 0. -1.
         22    1    3    3    0    0  0.11425250418E+03 -0.38995229335E+02 -0.12942664805E+02  0.12141571230E+03  0.00000000000E+00 0. -1.
         22    1    3    3    0    0  0.16172706414E+03  0.74902752377E+02  0.55215030690E+02  0.18658715177E+03  0.00000000000E+00 0. -1.
</event>
<event>
 7    1  0.5977291E-006  0.1036683E+03  0.7818608E-02  0.1337658E+00
          2   -1    0    0  502    0  0.00000000000E+00  0.00000000000E+00  0.18488636465E+03  0.18488636465E+03  0.00000000000E+00 0. -1.
          1   -1    0    0  501    0 -0.00000000000E+00 -0.00000000000E+00 -0.60712828864E+03  0.60712828864E+03  0.00000000000E+00 0. -1.
         25    2    1    2    0    0 -0.65307728424E+02  0.18404594653E+01 -0.16716746551E+03  0.21871722753E+03  0.12499510955E+03 0.  0.
          2    1    1    2  501    0  0.11104108782E+03 -0.36289574962E+02 -0.40040302434E+03  0.41709667744E+03  0.00000000000E+00 0. -1.
          1    1    1    2  502    0 -0.45733359398E+02  0.34449115497E+02  0.14532856586E+03  0.15620074831E+03  0.00000000000E+00 0. -1.
         22    1    3    3    0    0 -0.54487022437E+02  0.28264733659E+02 -0.17791624872E+03  0.18820712617E+03  0.00000000000E+00 0.  1.
         22    1    3    3    0    0 -0.10820705988E+02 -0.26424274193E+02  0.10748783209E+02  0.30510101363E+02  0.00000000000E+00 0.  1.
</event>
<event>
 7    1  0.5977291E-006  0.3430569E+02  0.7818608E-02  0.1613086E+00
          2   -1    0    0  502    0  0.00000000000E+00  0.00000000000E+00  0.63177287407E+02  0.63177287407E+02  0.00000000000E+00 0. -1.
          1   -1    0    0  501    0 -0.00000000000E+00 -0.00000000000E+00 -0.64221597426E+03  0.64221597426E+03  0.00000000000E+00 0. -1.
         25    2    1    2    0    0  0.42404218791E+02 -0.19784879498E+02 -0.24559714777E+03  0.27952253401E+03  0.12500131518E+03 0.  0.
          2    1    1    2  501    0 -0.83647096285E+01  0.22480914779E+02 -0.37291048079E+03  0.37368112955E+03  0.00000000000E+00 0. -1.
          1    1    1    2  502    0 -0.34039509163E+02 -0.26960352812E+01  0.39468941715E+02  0.52189598105E+02  0.00000000000E+00 0. -1.
         22    1    3    3    0    0  0.48078299156E+02 -0.27223205798E+02 -0.28396956377E+02  0.62120953914E+02  0.00000000000E+00 0. -1.
         22    1    3    3    0    0 -0.56740803651E+01  0.74383263001E+01 -0.21720019140E+03  0.21740158010E+03  0.00000000000E+00 0. -1.
</event>
<event>
 7    1  0.5977291E-006  0.9876229E+02  0.7818608E-02  0.1302217E+00
          2   -1    0    0  502    0  0.00000000000E+00  0.00000000000E+00  0.34411568138E+03  0.34411568138E+03  0.00000000000E+00 0. -1.
          1   -1    0    0  501    0 -0.00000000000E+00 -0.00000000000E+00 -0.12871392420E+04  0.12871392420E+04  0.00000000000E+00 0. -1.
         25    2    1    2    0    0  0.53401509124E+01  0.27832525788E+02 -0.73075878752E+03  0.74191410379E+03  0.12499986063E+03 0.  0.
          2    1    1    2  501    0 -0.62854288095E+02  0.53429494259E+02 -0.54028438028E+03  0.54654604926E+03  0.00000000000E+00 0. -1.
          1    1    1    2  502    0  0.57514137183E+02 -0.81262020047E+02  0.32801960717E+03  0.34279477033E+03  0.00000000000E+00 0. -1.
         22    1    3    3    0    0 -0.56433690460E+02  0.18184608728E+02 -0.24127268123E+03  0.24845109805E+03  0.00000000000E+00 0.  1.
         22    1    3    3    0    0  0.61773841372E+02  0.96479170603E+01 -0.48948610629E+03  0.49346300574E+03  0.00000000000E+00 0.  1.
</event>
<event>
 7    1  0.5977291E-006  0.2538130E+03  0.7818608E-02  0.1320098E+00
          2   -1    0    0  502    0  0.00000000000E+00  0.00000000000E+00  0.15747681005E+04  0.15747681005E+04  0.00000000000E+00 0. -1.
          1   -1    0    0  501    0 -0.00000000000E+00 -0.00000000000E+00 -0.24718278568E+03  0.24718278568E+03  0.00000000000E+00 0. -1.
         25    2    1    2    0    0  0.20423953217E+03 -0.15026539556E+03  0.19667931692E+03  0.34438107522E+03  0.12498838210E+03 0.  0.
          2    1    1    2  501    0 -0.21980415112E+03  0.12783734195E+03 -0.79840206326E+02  0.26651587080E+03  0.00000000000E+00 0. -1.
          1    1    1    2  502    0  0.15564618946E+02  0.22428053611E+02  0.12107462042E+04  0.12110539401E+04  0.00000000000E+00 0. -1.
         22    1    3    3    0    0  0.16786266341E+03 -0.16186129027E+03  0.19838968590E+03  0.30616240547E+03  0.00000000000E+00 0. -1.
         22    1    3    3    0    0  0.36376868763E+02  0.11595894711E+02 -0.17103689768E+01  0.38218669746E+02  0.00000000000E+00 0. -1.
</event>
<event>
 7    1  0.5977291E-006  0.6878153E+02  0.7818608E-02  0.1459829E+00
          2   -1    0    0  502    0  0.00000000000E+00  0.00000000000E+00  0.97223567472E+03  0.97223567472E+03  0.00000000000E+00 0. -1.
          1   -1    0    0  501    0 -0.00000000000E+00 -0.00000000000E+00 -0.20076104809E+04  0.20076104809E+04  0.00000000000E+00 0. -1.
         25    2    1    2    0    0 -0.15275938497E+02  0.89471635997E+02 -0.12997926229E+03  0.20188605997E+03  0.12499937855E+03 0.  0.
          2    1    1    2  501    0 -0.16122002927E+02 -0.28426534162E+02 -0.18402742938E+04  0.18405644415E+04  0.00000000000E+00 0. -1.
          1    1    1    2  502    0  0.31397941425E+02 -0.61045101835E+02  0.93487874998E+03  0.93739565411E+03  0.00000000000E+00 0. -1.
         22    1    3    3    0    0  0.19242392119E+02 -0.26020317344E+02 -0.16464909857E+02  0.36310051305E+02  0.00000000000E+00 0.  1.
         22    1    3    3    0    0 -0.34518330617E+02  0.11549195334E+03 -0.11351435244E+03  0.16557600866E+03  0.00000000000E+00 0.  1.
</event>
<event>
 7    1  0.5977291E-006  0.9364052E+02  0.7818608E-02  0.1441528E+00
          2   -1    0    0  502    0  0.00000000000E+00  0.00000000000E+00  0.36193710706E+02  0.36193710706E+02  0.00000000000E+00 0. -1.
          1   -1    0    0  501    0 -0.00000000000E+00 -0.00000000000E+00 -0.35493171326E+04  0.35493171326E+04  0.00000000000E+00 0. -1.
         25    2    1    2    0    0  0.40348741908E+02 -0.83275268190E+02 -0.20994529317E+04  0.21052057197E+04  0.12500287398E+03 0.  0.
          2    1    1    2  501    0 -0.25810937275E+02 -0.93894283342E+01 -0.13805620247E+04  0.13808352074E+04  0.00000000000E+00 0. -1.
          1    1    1    2  502    0 -0.14537804633E+02  0.92664696525E+02 -0.33108465435E+02  0.99469916201E+02  0.00000000000E+00 0. -1.
         22    1    3    3    0    0  0.21259684598E+02 -0.33481204661E+02 -0.18350500708E+04  0.18354786100E+04  0.00000000000E+00 0.  1.
         22    1    3    3    0    0  0.19089057310E+02 -0.49794063530E+02 -0.26440286093E+03  0.26972710976E+03  0.00000000000E+00 0.  1.
</event>
<event>
 7    1  0.5977291E-006  0.3422553E+02  0.7818608E-02  0.1571927E+00
          2   -1    0    0  502    0  0.00000000000E+00  0.00000000000E+00  0.25855133351E+02  0.25855133351E+02  0.00000000000E+00 0. -1.
          1   -1    0    0  501    0 -0.00000000000E+00 -0.00000000000E+00 -0.65219533434E+03  0.65219533434E+03  0.00000000000E+00 0. -1.
         25    2    1    2    0    0 -0.17044474822E+02 -0.38582881542E+01 -0.39295382140E+03  0.41272640503E+03  0.12499991658E+03 0.  0.
          2    1    1    2  501    0  0.15237589369E+02  0.34679470393E+02 -0.23129821790E+03  0.23437942615E+03  0.00000000000E+00 0. -1.
          1    1    1    2  502    0  0.18068854530E+01 -0.30821182238E+02 -0.20881616824E+01  0.30944636511E+02  0.00000000000E+00 0. -1.
         22    1    3    3    0    0 -0.11993917128E+02  0.79571504239E+01 -0.39847927972E+03  0.39873914613E+03  0.00000000000E+00 0.  1.
         22    1    3    3    0    0 -0.50505576941E+01 -0.11815438578E+02  0.55254583198E+01  0.13987258897E+02  0.00000000000E+00 0.  1.
</event>
<event>
 7    1  0.5977291E-006  0.4993135E+02  0.7818608E-02  0.1502576E+00
          2   -1    0    0  502    0  0.00000000000E+00  0.00000000000E+00  0.50469454519E+03  0.50469454519E+03  0.00000000000E+00 0. -1.
          1   -1    0    0  501    0 -0.00000000000E+00 -0.00000000000E+00 -0.18853574929E+03  0.18853574929E+03  0.00000000000E+00 0. -1.
         25    2    1    2    0    0  0.31453415032E+02  0.45352602560E+02  0.14859766830E+03  0.20186326659E+03  0.12498534113E+03 0.  0.
          2    1    1    2  501    0  0.16136061643E+02 -0.29128980971E+02 -0.15824168295E+03  0.16170745265E+03  0.00000000000E+00 0. -1.
          1    1    1    2  502    0 -0.47589476675E+02 -0.16223621589E+02  0.32580281055E+03  0.32965957525E+03  0.00000000000E+00 0. -1.
         22    1    3    3    0    0  0.26284538118E+02 -0.31009037520E+02  0.74886304599E+01  0.41334210264E+02  0.00000000000E+00 0.  1.
         22    1    3    3    0    0  0.51688769143E+01  0.76361640080E+02  0.14110903784E+03  0.16052905632E+03  0.00000000000E+00 0.  1.
</event>
<event>
 7    1  0.5977291E-006  0.1194682E+03  0.7818608E-02  0.1274380E+00
          2   -1    0    0  502    0  0.00000000000E+00  0.00000000000E+00  0.10181007666E+04  0.10181007666E+04  0.00000000000E+00 0. -1.
          1   -1    0    0  501    0 -0.00000000000E+00 -0.00000000000E+00 -0.12675697155E+04  0.12675697155E+04  0.00000000000E+00 0. -1.
         25    2    1    2    0    0  0.19836860757E+03  0.60860786049E+02 -0.89572502463E+03  0.92790060288E+03  0.12498827674E+03 0.  0.
          2    1    1    2  501    0 -0.85898483429E+02 -0.21602022427E+02 -0.34662778373E+03  0.35776531034E+03  0.00000000000E+00 0. -1.
          1    1    1    2  502    0 -0.11247012414E+03 -0.39258763622E+02  0.99288385950E+03  0.10000045689E+04  0.00000000000E+00 0. -1.
         22    1    3    3    0    0  0.28752588707E+02 -0.12107396318E+02 -0.35799858579E+03  0.35935537818E+03  0.00000000000E+00 0. -1.
         22    1    3    3    0    0  0.16961601886E+03  0.72968182368E+02 -0.53772643884E+03  0.56854522470E+03  0.00000000000E+00 0. -1.
</event>
<event>
 7    1  0.5977291E-006  0.8064498E+02  0.7818608E-02  0.1431248E+00
          2   -1    0    0  502    0  0.00000000000E+00  0.00000000000E+00  0.14203592221E+03  0.14203592221E+03  0.00000000000E+00 0. -1.
          1   -1    0    0  501    0 -0.00000000000E+00 -0.00000000000E+00 -0.71696213805E+03  0.71696213805E+03  0.00000000000E+00 0. -1.
         25    2    1    2    0    0  0.98365006719E+02 -0.33390600294E+02 -0.41946644946E+03  0.44985301297E+03  0.12500009726E+03 0.  0.
          2    1    1    2  501    0 -0.32331434934E+02 -0.11900337102E+02 -0.26845382054E+03  0.27065548852E+03  0.00000000000E+00 0. -1.
          1    1    1    2  502    0 -0.66033571785E+02  0.45290937397E+02  0.11299405416E+03  0.13848955877E+03  0.00000000000E+00 0. -1.
         22    1    3    3    0    0  0.10125840990E+03 -0.59387349891E+02 -0.40101308556E+03  0.41784161795E+03  0.00000000000E+00 0. -1.
         22    1    3    3    0    0 -0.28934031763E+01  0.25996749596E+02 -0.18453363904E+02  0.32011395016E+02  0.00000000000E+00 0. -1.
</event>
<event>
 7    1  0.5977291E-006  0.8621519E+02  0.7818608E-02  0.1322354E+00
          2   -1    0    0  502    0  0.00000000000E+00  0.00000000000E+00  0.18906190256E+03  0.18906190256E+03  0.00000000000E+00 0. -1.
          1   -1    0    0  501    0 -0.00000000000E+00 -0.00000000000E+00 -0.13352337430E+04  0.13352337430E+04  0.00000000000E+00 0. -1.
         25    2    1    2    0    0 -0.34910691918E+02  0.14527067378E+01  0.45285169485E+02  0.13746455487E+03  0.12499956201E+03 0.  0.
          2    1    1    2  501    0  0.41182598359E+02  0.77065961115E+02 -0.12715185445E+04  0.12745173902E+04  0.00000000000E+00 0. -1.
          1    1    1    2  502    0 -0.62719064416E+01 -0.78518667853E+02  0.80061534580E+02  0.11231370055E+03  0.00000000000E+00 0. -1.
         22    1    3    3    0    0 -0.38658756458E+02 -0.40708198437E+02 -0.20053584483E+02  0.59613782982E+02  0.00000000000E+00 0. -1.
         22    1    3    3    0    0  0.37480645399E+01  0.42160905174E+02  0.65338753968E+02  0.77850771885E+02  0.00000000000E+00 0. -1.
</event>
<event>
 7    1  0.5977291E-006  0.4555832E+02  0.7818608E-02  0.1514980E+00
          2   -1    0    0  502    0  0.00000000000E+00  0.00000000000E+00  0.10972451645E+04  0.10972451645E+04  0.00000000000E+00 0. -1.
          1   -1    0    0  501    0 -0.00000000000E+00 -0.00000000000E+00 -0.11686046076E+03  0.11686046076E+03  0.00000000000E+00 0. -1.
         25    2    1    2    0    0  0.15832186532E+02  0.99445817990E+01  0.15785439759E+03  0.20222032140E+03  0.12500197883E+03 0.  0.
          2    1    1    2  501    0  0.25584934893E+00  0.33547420620E+02 -0.91098969157E+02  0.97079951950E+02  0.00000000000E+00 0. -1.
          1    1    1    2  502    0 -0.16088035881E+02 -0.43492002419E+02  0.91362927528E+03  0.91480535188E+03  0.00000000000E+00 0. -1.
         22    1    3    3    0    0  0.66430805849E+02 -0.40782420444E+01  0.12091559138E+03  0.13802269474E+03  0.00000000000E+00 0.  1.
         22    1    3    3    0    0 -0.50598619316E+02  0.14022823843E+02  0.36938806208E+02  0.64197626664E+02  0.00000000000E+00 0.  1.
</event>
<event>
 7    1  0.5977291E-006  0.9881163E+02  0.7818608E-02  0.1428350E+00
          2   -1    0    0  502    0  0.00000000000E+00  0.00000000000E+00  0.82210658676E+03  0.82210658676E+03  0.00000000000E+00 0. -1.
          1   -1    0    0  501    0 -0.00000000000E+00 -0.00000000000E+00 -0.63555010078E+03  0.63555010078E+03  0.00000000000E+00 0. -1.
         25    2    1    2    0    0  0.48846466054E+02  0.50688536113E+02  0.33297029855E+03  0.36255878070E+03  0.12499737919E+03 0.  0.
          2    1    1    2  501    0 -0.69017659928E+02 -0.71164381358E+02 -0.61635597963E+03  0.62427758263E+03  0.00000000000E+00 0. -1.
          1    1    1    2  502    0  0.20171193874E+02  0.20475845246E+02  0.46994216707E+03  0.47082032421E+03  0.00000000000E+00 0. -1.
         22    1    3    3    0    0  0.11857590902E+02  0.88553340658E+02  0.23082946906E+03  0.24751674770E+03  0.00000000000E+00 0.  1.
         22    1    3    3    0    0  0.36988875152E+02 -0.37864804545E+02  0.10214082948E+03  0.11504203299E+03  0.00000000000E+00 0.  1.
</event>
<event>
 7    1  0.5977291E-006  0.8173541E+02  0.7818608E-02  0.1463623E+00
          2   -1    0    0  502    0  0.00000000000E+00  0.00000000000E+00  0.47979016757E+03  0.47979016757E+03  0.00000000000E+00 0. -1.
          1   -1    0    0  501    0 -0.00000000000E+00 -0.00000000000E+00 -0.42047600358E+03  0.42047600358E+03  0.00000000000E+00 0. -1.
         25    2    1    2    0    0 -0.32233448120E+02  0.46164040397E+02  0.48003250236E+02  0.14526360145E+03  0.12500835199E+03 0.  0.
          2    1    1    2  501    0  0.45133504267E+02 -0.69603798677E+02 -0.36674042774E+03  0.37600566928E+03  0.00000000000E+00 0. -1.
          1    1    1    2  502    0 -0.12900056147E+02  0.23439758279E+02  0.37805134150E+03  0.37899690041E+03  0.00000000000E+00 0. -1.
         22    1    3    3    0    0  0.41998546595E+01 -0.38991147211E+02 -0.33477573305E+01  0.39359316802E+02  0.00000000000E+00 0.  1.
         22    1    3    3    0    0 -0.36433302780E+02  0.85155187608E+02  0.51351007566E+02  0.10590428464E+03  0.00000000000E+00 0.  1.
</event>
<event>
 7    1  0.5977291E-006  0.8725726E+02  0.7818608E-02  0.1469068E+00
          2   -1    0    0  502    0  0.00000000000E+00  0.00000000000E+00  0.74513714150E+03  0.74513714150E+03  0.00000000000E+00 0. -1.
          1   -1    0    0  501    0 -0.00000000000E+00 -0.00000000000E+00 -0.18964285556E+03  0.18964285556E+03  0.00000000000E+00 0. -1.
         25    2    1    2    0    0  0.24803048083E+02 -0.71178624545E+02 -0.14771921469E+03  0.20766540182E+03  0.12498945931E+03 0.  0.
          2    1    1    2  501    0 -0.17990565246E+02 -0.16033574468E+02  0.65395108701E+01  0.24970005016E+02  0.00000000000E+00 0. -1.
          1    1    1    2  502    0 -0.68124828372E+01  0.87212199013E+02  0.69667398976E+03  0.70214459023E+03  0.00000000000E+00 0. -1.
         22    1    3    3    0    0 -0.11462486724E+02  0.33307259742E+02 -0.31947013236E+02  0.47553904237E+02  0.00000000000E+00 0.  1.
         22    1    3    3    0    0  0.36265534808E+02 -0.10448588429E+03 -0.11577220145E+03  0.16011149759E+03  0.00000000000E+00 0.  1.
</event>
<event>
 7    1  0.5977291E-006  0.1023877E+03  0.7818608E-02  0.1278422E+00
          2   -1    0    0  502    0  0.00000000000E+00  0.00000000000E+00  0.21057199043E+04  0.21057199043E+04  0.00000000000E+00 0. -1.
          1   -1    0    0  501    0 -0.00000000000E+00 -0.00000000000E+00 -0.70176577567E+02  0.70176577567E+02  0.00000000000E+00 0. -1.
         25    2    1    2    0    0  0.10818802246E+03  0.61009633598E+02  0.26057324039E+03  0.31456411889E+03  0.12500139074E+03 0.  0.
          2    1    1    2  501    0 -0.90545882257E+02  0.41075603633E+02  0.17674746080E+02  0.10098593296E+03  0.00000000000E+00 0. -1.
          1    1    1    2  502    0 -0.17642140204E+02 -0.10208523723E+03  0.17572953402E+04  0.17603464300E+04  0.00000000000E+00 0. -1.
         22    1    3    3    0    0 -0.14896177180E+02  0.39645210738E+01  0.11325017011E+03  0.11429442048E+03  0.00000000000E+00 0.  1.
         22    1    3    3    0    0  0.12308419964E+03  0.57045112524E+02  0.14732307028E+03  0.20026969841E+03  0.00000000000E+00 0.  1.
</event>
<event>
 7    1  0.5977291E-006  0.2104836E+03  0.7818608E-02  0.1241843E+00
          2   -1    0    0  502    0  0.00000000000E+00  0.00000000000E+00  0.11607409819E+04  0.11607409819E+04  0.00000000000E+00 0. -1.
          1   -1    0    0  501    0 -0.00000000000E+00 -0.00000000000E+00 -0.87022701680E+03  0.87022701680E+03  0.00000000000E+00 0. -1.
         25    2    1    2    0    0 -0.14429331965E+03  0.18771187717E+03  0.47339474712E+03  0.54386112902E+03  0.12500412047E+03 0.  0.
          2    1    1    2  501    0  0.16999794735E+03 -0.12336904122E+03 -0.81987600395E+03  0.84635446728E+03  0.00000000000E+00 0. -1.
          1    1    1    2  502    0 -0.25704627697E+02 -0.64342835951E+02  0.63699522192E+03  0.64075240239E+03  0.00000000000E+00 0. -1.
         22    1    3    3    0    0 -0.15475772423E+03  0.17559343141E+03  0.36037493410E+03  0.42971281048E+03  0.00000000000E+00 0.  1.
         22    1    3    3    0    0  0.10464404581E+02  0.12118445762E+02  0.11301981302E+03  0.11414831854E+03  0.00000000000E+00 0.  1.
</event>
<event>
 7    1  0.5977291E-006  0.8008695E+02  0.7818608E-02  0.1447459E+00
          2   -1    0    0  502    0  0.00000000000E+00  0.00000000000E+00  0.20429439588E+03  0.20429439588E+03  0.00000000000E+00 0. -1.
          1   -1    0    0  501    0 -0.00000000000E+00 -0.00000000000E+00 -0.12688697599E+04  0.12688697599E+04  0.00000000000E+00 0. -1.
         25    2    1    2    0    0  0.53290421284E+02 -0.39587741898E+02 -0.76352768707E+03  0.77653503891E+03  0.12500031769E+03 0.  0.
          2    1    1    2  501    0  0.24267311617E+02  0.18853476702E+02 -0.49019099935E+03  0.49115330788E+03  0.00000000000E+00 0. -1.
          1    1    1    2  502    0 -0.77557732900E+02  0.20734265196E+02  0.18914332238E+03  0.20547580901E+03  0.00000000000E+00 0. -1.
         22    1    3    3    0    0  0.97089179190E+01  0.10206516620E+02 -0.47332305544E+01  0.14860670918E+02  0.00000000000E+00 0. -1.
         22    1    3    3    0    0  0.43581503365E+02 -0.49794258518E+02 -0.75879445651E+03  0.76167436799E+03  0.00000000000E+00 0. -1.
</event>
<event>
 7    1  0.5977291E-006  0.7752716E+02  0.7818608E-02  0.1379769E+00
          2   -1    0    0  502    0  0.00000000000E+00  0.00000000000E+00  0.16503910023E+04  0.16503910023E+04  0.00000000000E+00 0. -1.
          1   -1    0    0  501    0 -0.00000000000E+00 -0.00000000000E+00 -0.23213102149E+03  0.23213102149E+03  0.00000000000E+00 0. -1.
         25    2    1    2    0    0  0.18370924410E+02  0.23406074762E+02  0.25135968924E+03  0.28229685748E+03  0.12499794865E+03 0.  0.
          2    1    1    2  501    0  0.10289420811E+02  0.52707940332E+02 -0.21211803843E+03  0.21881056049E+03  0.00000000000E+00 0. -1.
          1    1    1    2  502    0 -0.28660345221E+02 -0.76114015094E+02  0.13790183300E+04  0.13814146058E+04  0.00000000000E+00 0. -1.
         22    1    3    3    0    0 -0.30081923999E+02  0.53369157279E+02  0.74311123650E+02  0.96308526094E+02  0.00000000000E+00 0.  1.
         22    1    3    3    0    0  0.48452848409E+02 -0.29963082517E+02  0.17704856559E+03  0.18598833138E+03  0.00000000000E+00 0.  1.
</event>
<event>
 7    1  0.5977291E-006  0.9240353E+02  0.7818608E-02  0.1354955E+00
          2   -1    0    0  502    0  0.00000000000E+00  0.00000000000E+00  0.13140966698E+04  0.13140966698E+04  0.00000000000E+00 0. -1.
          1   -1    0    0  501    0 -0.00000000000E+00 -0.00000000000E+00 -0.12118395596E+03  0.12118395596E+03  0.00000000000E+00 0. -1.
         25    2    1    2    0    0 -0.86183843073E+02 -0.77066818639E+02  0.31058147624E+03  0.35419291716E+03  0.12499927936E+03 0.  0.
          2    1    1    2  501    0  0.89104665897E+02  0.21766842559E+02 -0.77243363910E+02  0.11991653009E+03  0.00000000000E+00 0. -1.
          1    1    1    2  502    0 -0.29208228240E+01  0.55299976080E+02  0.95957460146E+03  0.96117117848E+03  0.00000000000E+00 0. -1.
         22    1    3    3    0    0  0.11536293583E+02  0.19971524710E+02  0.99653151680E+02  0.10228733308E+03  0.00000000000E+00 0. -1.
         22    1    3    3    0    0 -0.97720136657E+02 -0.97038343350E+02  0.21092832456E+03  0.25190558408E+03  0.00000000000E+00 0. -1.
</event>
<event>
 7    1  0.7482426E-006  0.1560908E+03  0.7818608E-02  0.1278640E+00
          2   -1    0    0  502    0  0.00000000000E+00  0.00000000000E+00  0.28744723535E+04  0.28744723535E+04  0.00000000000E+00 0. -1.
          1   -1    0    0  501    0 -0.00000000000E+00 -0.00000000000E+00 -0.81543719645E+03  0.81543719645E+03  0.00000000000E+00 0. -1.
         25    2    1    2    0    0  0.13000634563E+03  0.11932241212E+03 -0.20495137300E+03  0.29794449778E+03  0.12500548199E+03 0.  0.
          2    1    1    2  501    0 -0.67655612267E+02 -0.13798356628E+03 -0.55313781262E+03  0.57408900545E+03  0.00000000000E+00 0. -1.
          1    1    1    2  502    0 -0.62350733360E+02  0.18661154158E+02  0.28171243427E+04  0.28178760467E+04  0.00000000000E+00 0. -1.
         22    1    3    3    0    0  0.19127832054E+02  0.61145400028E+02 -0.14622115344E+03  0.15964103363E+03  0.00000000000E+00 0. -1.
         22    1    3    3    0    0  0.11087851357E+03  0.58177012091E+02 -0.58730219562E+02  0.13830346416E+03  0.00000000000E+00 0. -1.
</event>
<event>
 7    1  0.5977291E-006  0.6958579E+02  0.7818608E-02  0.1519204E+00
          2   -1    0    0  502    0  0.00000000000E+00  0.00000000000E+00  0.19003579873E+04  0.19003579873E+04  0.00000000000E+00 0. -1.
          1   -1    0    0  501    0 -0.00000000000E+00 -0.00000000000E+00 -0.56341922937E+02  0.56341922937E+02  0.00000000000E+00 0. -1.
         25    2    1    2    0    0  0.24138347758E+02 -0.74076939703E+02  0.12085305313E+04  0.12174728776E+04  0.12499643919E+03 0.  0.
          2    1    1    2  501    0  0.12157822287E+02  0.17550502387E+02 -0.47955008578E+02  0.52493005482E+02  0.00000000000E+00 0. -1.
          1    1    1    2  502    0 -0.36296170045E+02  0.56526437316E+02  0.68344054171E+03  0.68673402721E+03  0.00000000000E+00 0. -1.
         22    1    3    3    0    0  0.13397578446E+02  0.32403805244E+02  0.17954661837E+03  0.18293848658E+03  0.00000000000E+00 0. -1.
         22    1    3    3    0    0  0.10740769312E+02 -0.10648074495E+03  0.10289839129E+04  0.10345343910E+04  0.00000000000E+00 0. -1.
</event>
<event>
 7    1  0.5977291E-006  0.2786078E+02  0.7818608E-02  0.1638240E+00
          2   -1    0    0  502    0  0.00000000000E+00  0.00000000000E+00  0.21879653526E+04  0.21879653526E+04  0.00000000000E+00 0. -1.
          1   -1    0    0  501    0 -0.00000000000E+00 -0.00000000000E+00 -0.20007338200E+03  0.20007338200E+03  0.00000000000E+00 0. -1.
         25    2    1    2    0    0 -0.12990676389E+02 -0.18561727164E+02  0.15832995077E+03  0.20299277488E+03  0.12499759180E+03 0.  0.
          2    1    1    2  501    0 -0.14856140491E+02  0.20739591081E+02 -0.17672883409E+03  0.17856067973E+03  0.00000000000E+00 0. -1.
          1    1    1    2  502    0  0.27846816880E+02 -0.21778639175E+01  0.20062908539E+04  0.20064852800E+04  0.00000000000E+00 0. -1.
         22    1    3    3    0    0 -0.34793030776E+02 -0.21202471798E+01 -0.68895355320E+01  0.35531903109E+02  0.00000000000E+00 0.  1.
         22    1    3    3    0    0  0.21802354388E+02 -0.16441479984E+02  0.16521948631E+03  0.16746087178E+03  0.00000000000E+00 0.  1.
</event>
<event>
 7    1  0.5977291E-006  0.1095340E+03  0.7818608E-02  0.1407912E+00
          2   -1    0    0  502    0  0.00000000000E+00  0.00000000000E+00  0.19653914453E+04  0.19653914453E+04  0.00000000000E+00 0. -1.
          1   -1    0    0  501    0 -0.00000000000E+00 -0.00000000000E+00 -0.10630720361E+03  0.10630720361E+03  0.00000000000E+00 0. -1.
         25    2    1    2    0    0 -0.80499759923E+02  0.39071000983E+02  0.78554836723E+03  0.80044886352E+03  0.12500156553E+03 0.  0.
          2    1    1    2  501    0  0.86281548540E+02 -0.68870622314E+02 -0.67770630060E+02  0.12953967167E+03  0.00000000000E+00 0. -1.
          1    1    1    2  502    0 -0.57817886173E+01  0.29799621331E+02  0.11413065045E+04  0.11417101137E+04  0.00000000000E+00 0. -1.
         22    1    3    3    0    0 -0.32559417296E+02 -0.13637720482E+02  0.60960825985E+03  0.61062945683E+03  0.00000000000E+00 0. -1.
         22    1    3    3    0    0 -0.47940342627E+02  0.52708721465E+02  0.17594010739E+03  0.18981940669E+03  0.00000000000E+00 0. -1.
</event>
<event>
 7    1  0.5977291E-006  0.1916132E+03  0.7818608E-02  0.1177111E+00
          2   -1    0    0  502    0  0.00000000000E+00  0.00000000000E+00  0.12646605956E+04  0.12646605956E+04  0.00000000000E+00 0. -1.
          1   -1    0    0  501    0 -0.00000000000E+00 -0.00000000000E+00 -0.11546059557E+04  0.11546059557E+04  0.00000000000E+00 0. -1.
         25    2    1    2    0    0 -0.53535173490E+02  0.11326398996E+03 -0.31839068006E+03  0.36426918935E+03  0.12499868375E+03 0.  0.
          2    1    1    2  501    0  0.61376706540E+01 -0.25777381243E+03 -0.78798376896E+03  0.82909796136E+03  0.00000000000E+00 0. -1.
          1    1    1    2  502    0  0.47397502836E+02  0.14450982247E+03  0.12164290890E+04  0.12258994007E+04  0.00000000000E+00 0. -1.
         22    1    3    3    0    0 -0.84821222501E+02  0.76251916334E+02 -0.14642612747E+03  0.18560604876E+03  0.00000000000E+00 0.  1.
         22    1    3    3    0    0  0.31286049012E+02  0.37012073625E+02 -0.17196455260E+03  0.17866314059E+03  0.00000000000E+00 0.  1.
</event>
<event>
 7    1  0.5977291E-006  0.7386760E+02  0.7818608E-02  0.1384417E+00
          2   -1    0    0  502    0  0.00000000000E+00  0.00000000000E+00  0.15115450938E+03  0.15115450938E+03  0.00000000000E+00 0. -1.
          1   -1    0    0  501    0 -0.00000000000E+00 -0.00000000000E+00 -0.18259346646E+04  0.18259346646E+04  0.00000000000E+00 0. -1.
         25    2    1    2    0    0 -0.93830671688E+02 -0.71336631559E+02 -0.26248562738E+02  0.17380261241E+03  0.12500100433E+03 0.  0.
          2    1    1    2  501    0  0.40493163574E+02  0.61301531688E+02 -0.17155082008E+04  0.17170806507E+04  0.00000000000E+00 0. -1.
          1    1    1    2  502    0  0.53337508113E+02  0.10035099871E+02  0.66976608329E+02  0.86205910844E+02  0.00000000000E+00 0. -1.
         22    1    3    3    0    0 -0.72869220664E+02  0.11730901621E+02  0.19966985123E+02  0.76460564136E+02  0.00000000000E+00 0.  1.
         22    1    3    3    0    0 -0.20961451024E+02 -0.83067533180E+02 -0.46215547861E+02  0.97342048272E+02  0.00000000000E+00 0.  1.
</event>
<event>
 7    1  0.5977291E-006  0.3275326E+02  0.7818608E-02  0.1596369E+00
          2   -1    0    0  502    0  0.00000000000E+00  0.00000000000E+00  0.12750437469E+03  0.12750437469E+03  0.00000000000E+00 0. -1.
          1   -1    0    0  501    0 -0.00000000000E+00 -0.00000000000E+00 -0.42371081689E+03  0.42371081689E+03  0.00000000000E+00 0. -1.
         25    2    1    2    0    0 -0.15022039663E+02  0.30344925560E+01  0.41521864421E+02  0.13260480575E+03  0.12500039784E+03 0.  0.
          2    1    1    2  501    0 -0.59390834257E+01  0.27122319038E+02 -0.36920112782E+03  0.37024365718E+03  0.00000000000E+00 0. -1.
          1    1    1    2  502    0  0.20961123089E+02 -0.30156811594E+02  0.31472821197E+02  0.48366728655E+02  0.00000000000E+00 0. -1.
         22    1    3    3    0    0  0.33589950369E+02  0.34015964209E+02  0.55538840875E+02  0.73279829644E+02  0.00000000000E+00 0.  1.
         22    1    3    3    0    0 -0.48611990032E+02 -0.30981471653E+02 -0.14016976454E+02  0.59324976102E+02  0.00000000000E+00 0.  1.
</event>
<event>
 7    1  0.5977291E-006  0.1836311E+03  0.7818608E-02  0.1261566E+00
          2   -1    0    0  502    0  0.00000000000E+00  0.00000000000E+00  0.68732381310E+03  0.68732381310E+03  0.00000000000E+00 0. -1.
          1   -1    0    0  501    0 -0.00000000000E+00 -0.00000000000E+00 -0.33332324245E+03  0.33332324245E+03  0.00000000000E+00 0. -1.
         25    2    1    2    0    0 -0.16746543322E+03 -0.16662953944E+03  0.15479931842E+03  0.30886544645E+03  0.12499984117E+03 0.  0.
          2    1    1    2  501    0  0.37190217155E+02  0.53616400795E+02 -0.23536566047E+03  0.24424337210E+03  0.00000000000E+00 0. -1.
          1    1    1    2  502    0  0.13027521607E+03  0.11301313864E+03  0.43456691271E+03  0.46753823699E+03  0.00000000000E+00 0. -1.
         22    1    3    3    0    0 -0.11662631049E+03 -0.15895621760E+03  0.16422899018E+03  0.25659293955E+03  0.00000000000E+00 0. -1.
         22    1    3    3    0    0 -0.50839122732E+02 -0.76733218373E+01 -0.94296717643E+01  0.52272506902E+02  0.00000000000E+00 0. -1.
</event>
<event>
 7    1  0.5977291E-006  0.1591815E+03  0.7818608E-02  0.1317852E+00
          2   -1    0    0  502    0  0.00000000000E+00  0.00000000000E+00  0.13861901038E+04  0.13861901038E+04  0.00000000000E+00 0. -1.
          1   -1    0    0  501    0 -0.00000000000E+00 -0.00000000000E+00 -0.15380982488E+04  0.15380982488E+04  0.00000000000E+00 0. -1.
         25    2    1    2    0    0 -0.47842274446E+02 -0.12348397440E+03  0.12836918726E+04  0.12965438416E+04  0.12499573721E+03 0.  0.
          2    1    1    2  501    0  0.19928676585E+02  0.15802863226E+03 -0.15221518626E+04  0.15304628364E+04  0.00000000000E+00 0. -1.
          1    1    1    2  502    0  0.27913597861E+02 -0.34544657854E+02  0.86551845063E+02  0.97281674614E+02  0.00000000000E+00 0. -1.
         22    1    3    3    0    0 -0.34901163525E+02 -0.62340196671E+02  0.11037021379E+04  0.11060121159E+04  0.00000000000E+00 0.  1.
         22    1    3    3    0    0 -0.12941110921E+02 -0.61143777732E+02  0.17998973472E+03  0.19053172574E+03  0.00000000000E+00 0.  1.
</event>
<event>
 7    1  0.5977291E-006  0.4624059E+02  0.7818608E-02  0.1480888E+00
          2   -1    0    0  502    0  0.00000000000E+00  0.00000000000E+00  0.31115319743E+03  0.31115319743E+03  0.00000000000E+00 0. -1.
          1   -1    0    0  501    0 -0.00000000000E+00 -0.00000000000E+00 -0.49850221499E+03  0.49850221499E+03  0.00000000000E+00 0. -1.
         25    2    1    2    0    0 -0.83034039437E+02  0.76571475401E+01 -0.42946826896E+03  0.45499626943E+03  0.12500131013E+03 0.  0.
          2    1    1    2  501    0  0.40538827478E+02  0.10220962932E+02 -0.46413358328E+02  0.62466506608E+02  0.00000000000E+00 0. -1.
          1    1    1    2  502    0  0.42495211959E+02 -0.17878110472E+02  0.28853260974E+03  0.29219263638E+03  0.00000000000E+00 0. -1.
         22    1    3    3    0    0 -0.88962293917E+02  0.41547631692E+02 -0.19824588777E+03  0.22122822482E+03  0.00000000000E+00 0. -1.
         22    1    3    3    0    0  0.59282544793E+01 -0.33890484152E+02 -0.23122238119E+03  0.23376804461E+03  0.00000000000E+00 0. -1.
</event>
<event>
 7    1  0.5977291E-006  0.2225803E+03  0.7818608E-02  0.1239288E+00
          2   -1    0    0  502    0  0.00000000000E+00  0.00000000000E+00  0.25950971670E+04  0.25950971670E+04  0.00000000000E+00 0. -1.
          1   -1    0    0  501    0 -0.00000000000E+00 -0.00000000000E+00 -0.75472056721E+03  0.75472056721E+03  0.00000000000E+00 0. -1.
         25    2    1    2    0    0 -0.15431587720E+03  0.18246658141E+03 -0.63981880092E+03  0.69433484395E+03  0.12500133687E+03 0.  0.
          2    1    1    2  501    0  0.11107152689E+03 -0.13097450029E+03 -0.26269751463E+01  0.17175012317E+03  0.00000000000E+00 0. -1.
          1    1    1    2  502    0  0.43244350312E+02 -0.51492081116E+02  0.24828223758E+04  0.24837327670E+04  0.00000000000E+00 0. -1.
         22    1    3    3    0    0 -0.14529183498E+03  0.17521023922E+03 -0.45120108056E+03  0.50536200920E+03  0.00000000000E+00 0. -1.
         22    1    3    3    0    0 -0.90240422195E+01  0.72563421929E+01 -0.18861772036E+03  0.18897283475E+03  0.00000000000E+00 0. -1.
</event>
<event>
 7    1  0.5977291E-006  0.5848952E+02  0.7818608E-02  0.1473371E+00
          2   -1    0    0  502    0  0.00000000000E+00  0.00000000000E+00  0.10596905203E+03  0.10596905203E+03  0.00000000000E+00 0. -1.
          1   -1    0    0  501    0 -0.00000000000E+00 -0.00000000000E+00 -0.15082407027E+04  0.15082407027E+04  0.00000000000E+00 0. -1.
         25    2    1    2    0    0  0.26345589887E+02 -0.59843815437E+02 -0.49446255380E+02  0.14947811307E+03  0.12499360689E+03 0.  0.
          2    1    1    2  501    0  0.84626375473E+01  0.57910566655E+02 -0.14026782099E+04  0.14038986468E+04  0.00000000000E+00 0. -1.
          1    1    1    2  502    0 -0.34808227434E+02  0.19332487825E+01  0.49852814566E+02  0.60832994897E+02  0.00000000000E+00 0. -1.
         22    1    3    3    0    0 -0.53245185687E+01  0.28109150280E+01 -0.74645912422E+02  0.74888343436E+02  0.00000000000E+00 0. -1.
         22    1    3    3    0    0  0.31670108456E+02 -0.62654730465E+02  0.25199657042E+02  0.74589769636E+02  0.00000000000E+00 0. -1.
</event>
<event>
 7    1  0.5977291E-006  0.8751979E+02  0.7818608E-02  0.1412644E+00
          2   -1    0    0  502    0  0.00000000000E+00  0.00000000000E+00  0.13852821404E+04  0.13852821404E+04  0.00000000000E+00 0. -1.
          1   -1    0    0  501    0 -0.00000000000E+00 -0.00000000000E+00 -0.22088010834E+03  0.22088010834E+03  0.00000000000E+00 0. -1.
         25    2    1    2    0    0 -0.10986464861E+03  0.23264416451E+02  0.13615154932E+02  0.16858710163E+03  0.12499905722E+03 0.  0.
          2    1    1    2  501    0  0.75953034879E+02 -0.37070026934E+02 -0.13065637160E+03  0.15560892598E+03  0.00000000000E+00 0. -1.
          1    1    1    2  502    0  0.33911613727E+02  0.13805610483E+02  0.12814432487E+04  0.12819662211E+04  0.00000000000E+00 0. -1.
         22    1    3    3    0    0 -0.42169647308E+02 -0.47758856055E+02  0.27684443414E+02  0.69466653100E+02  0.00000000000E+00 0.  1.
         22    1    3    3    0    0 -0.67695001298E+02  0.71023272506E+02 -0.14069288482E+02  0.99120448529E+02  0.00000000000E+00 0.  1.
</event>
<event>
 7    1  0.5977291E-006  0.3391513E+02  0.7818608E-02  0.1581970E+00
          2   -1    0    0  502    0  0.00000000000E+00  0.00000000000E+00  0.12965405733E+04  0.12965405733E+04  0.00000000000E+00 0. -1.
          1   -1    0    0  501    0 -0.00000000000E+00 -0.00000000000E+00 -0.13505946203E+04  0.13505946203E+04  0.00000000000E+00 0. -1.
         25    2    1    2    0    0  0.66903788982E+01 -0.81626215617E+01 -0.24398292120E+02  0.12779358741E+03  0.12499813904E+03 0.  0.
          2    1    1    2  501    0  0.27206473966E+02  0.10811532290E+02 -0.12740983367E+04  0.12744346406E+04  0.00000000000E+00 0. -1.
          1    1    1    2  502    0 -0.33896852865E+02 -0.26489107280E+01  0.12444425818E+04  0.12449069655E+04  0.00000000000E+00 0. -1.
         22    1    3    3    0    0 -0.49608946684E+02 -0.12260362266E+02  0.21105519383E+02  0.55288398624E+02  0.00000000000E+00 0.  1.
         22    1    3    3    0    0  0.56299325582E+02  0.40977407039E+01 -0.45503811503E+02  0.72505188788E+02  0.00000000000E+00 0.  1.
</event>
<event>
 7    1  0.5977291E-006  0.4595411E+02  0.7818608E-02  0.1482972E+00
          2   -1    0    0  502    0  0.00000000000E+00  0.00000000000E+00  0.10890084300E+03  0.10890084300E+03  0.00000000000E+00 0. -1.
          1   -1    0    0  501    0 -0.00000000000E+00 -0.00000000000E+00 -0.25626612813E+03  0.25626612813E+03  0.00000000000E+00 0. -1.
         25    2    1    2    0    0 -0.28934431360E+02 -0.80522947842E+01 -0.36469337251E+02  0.13363200801E+03  0.12500184093E+03 0.  0.
          2    1    1    2  501    0  0.35090574595E+02 -0.32943040294E+02 -0.16011000883E+03  0.16718793993E+03  0.00000000000E+00 0. -1.
          1    1    1    2  502    0 -0.61561432351E+01  0.40995335078E+02  0.49214060956E+02  0.64347023191E+02  0.00000000000E+00 0. -1.
         22    1    3    3    0    0 -0.24104760532E+02 -0.62819537229E+02 -0.40450198117E+02  0.78508294248E+02  0.00000000000E+00 0.  1.
         22    1    3    3    0    0 -0.48296708279E+01  0.54767242445E+02  0.39808608664E+01  0.55123713759E+02  0.00000000000E+00 0.  1.
</event>
<event>
 7    1  0.5977291E-006  0.4904306E+02  0.7818608E-02  0.1469173E+00
          2   -1    0    0  502    0  0.00000000000E+00  0.00000000000E+00  0.12048717609E+04  0.12048717609E+04  0.00000000000E+00 0. -1.
          1   -1    0    0  501    0 -0.00000000000E+00 -0.00000000000E+00 -0.14764266749E+02  0.14764266749E+02  0.00000000000E+00 0. -1.
         25    2    1    2    0    0 -0.68298888367E+01  0.32423355032E+01  0.62931971144E+03  0.64165958093E+03  0.12500623376E+03 0.  0.
          2    1    1    2  501    0  0.78618525497E+01  0.48408808776E+02  0.76041047308E+02  0.90484597409E+02  0.00000000000E+00 0. -1.
          1    1    1    2  502    0 -0.10319637130E+01 -0.51651144280E+02  0.48474673544E+03  0.48749184934E+03  0.00000000000E+00 0. -1.
         22    1    3    3    0    0 -0.20588637965E+02 -0.18594305194E+02  0.26753134625E+02  0.38540503514E+02  0.00000000000E+00 0.  1.
         22    1    3    3    0    0  0.13758749129E+02  0.21836640697E+02  0.60256657681E+03  0.60311907742E+03  0.00000000000E+00 0.  1.
</event>
<event>
 7    1  0.5977291E-006  0.7069005E+02  0.7818608E-02  0.1388902E+00
          2   -1    0    0  502    0  0.00000000000E+00  0.00000000000E+00  0.13620452204E+03  0.13620452204E+03  0.00000000000E+00 0. -1.
          1   -1    0    0  501    0 -0.00000000000E+00 -0.00000000000E+00 -0.23000060321E+04  0.23000060321E+04  0.00000000000E+00 0. -1.
         25    2    1    2    0    0  0.12135687505E+03  0.16904928797E+02 -0.11460241561E+04  0.11593142356E+04  0.12499945071E+03 0.  0.
          2    1    1    2  501    0 -0.54491638598E+02  0.47179325508E+01 -0.11371014738E+04  0.11384161626E+04  0.00000000000E+00 0. -1.
          1    1    1    2  502    0 -0.66865236454E+02 -0.21622861348E+02  0.11932411992E+03  0.13848015589E+03  0.00000000000E+00 0. -1.
         22    1    3    3    0    0  0.16405860886E+02 -0.39894460803E+01 -0.71519065298E+03  0.71538992030E+03  0.00000000000E+00 0.  1.
         22    1    3    3    0    0  0.10495101417E+03  0.20894374877E+02 -0.43083350314E+03  0.44392431529E+03  0.00000000000E+00 0.  1.
</event>
<event>
 7    1  0.5977291E-006  0.5811649E+03  0.7818608E-02  0.1193627E+00
          2   -1    0    0  502    0  0.00000000000E+00  0.00000000000E+00  0.25756223575E+04  0.25756223575E+04  0.00000000000E+00 0. -1.
          1   -1    0    0  501    0 -0.00000000000E+00 -0.00000000000E+00 -0.46183522572E+03  0.46183522572E+03  0.00000000000E+00 0. -1.
         25    2    1    2    0    0  0.55666968272E+03 -0.39968072810E+01  0.72657226411E+03  0.92381425476E+03  0.12501364803E+03 0.  0.
          2    1    1    2  501    0 -0.58750535761E+03  0.32097240948E+02 -0.12445334529E+03  0.60139954543E+03  0.00000000000E+00 0. -1.
          1    1    1    2  502    0  0.30835674884E+02 -0.28100433667E+02  0.15116682130E+04  0.15122437831E+04  0.00000000000E+00 0. -1.
         22    1    3    3    0    0  0.24328131257E+03  0.56599382569E+02  0.28514583591E+03  0.37907444505E+03  0.00000000000E+00 0.  1.
         22    1    3    3    0    0  0.31338837016E+03 -0.60596189850E+02  0.44142642820E+03  0.54473980971E+03  0.00000000000E+00 0.  1.
</event>
<event>
 7    1  0.5977291E-006  0.9457440E+02  0.7818608E-02  0.1340562E+00
          2   -1    0    0  502    0  0.00000000000E+00  0.00000000000E+00  0.84162240492E+03  0.84162240492E+03  0.00000000000E+00 0. -1.
          1   -1    0    0  501    0 -0.00000000000E+00 -0.00000000000E+00 -0.17146483806E+03  0.17146483806E+03  0.00000000000E+00 0. -1.
         25    2    1    2    0    0  0.72051025579E+02 -0.10330555346E+03  0.10306073894E+03  0.20520912076E+03  0.12500351863E+03 0.  0.
          2    1    1    2  501    0 -0.11984727939E+02  0.91576928072E+02 -0.10107087878E+03  0.13691343980E+03  0.00000000000E+00 0. -1.
          1    1    1    2  502    0 -0.60066297640E+02  0.11728625390E+02  0.66816770671E+03  0.67096468242E+03  0.00000000000E+00 0. -1.
         22    1    3    3    0    0  0.93978750311E+02 -0.47620152936E+02  0.10004137366E+03  0.14528579050E+03  0.00000000000E+00 0.  1.
         22    1    3    3    0    0 -0.21927724732E+02 -0.55685400525E+02  0.30193652740E+01  0.59923330266E+02  0.00000000000E+00 0.  1.
</event>
<event>
 7    1  0.5977291E-006  0.6679711E+03  0.7818608E-02  0.1183896E+00
          2   -1    0    0  502    0  0.00000000000E+00  0.00000000000E+00  0.14926076078E+04  0.14926076078E+04  0.00000000000E+00 0. -1.
          1   -1    0    0  501    0 -0.00000000000E+00 -0.00000000000E+00 -0.84499840143E+03  0.84499840143E+03  0.00000000000E+00 0. -1.
         25    2    1    2    0    0  0.61448912828E+03 -0.23712514007E+03  0.35894402521E+02  0.67137020154E+03  0.12499727421E+03 0.  0.
          2    1    1    2  501    0 -0.64146935465E+03  0.20701992600E+03 -0.31121218801E+03  0.74242387400E+03  0.00000000000E+00 0. -1.
          1    1    1    2  502    0  0.26980226373E+02  0.30105214064E+02  0.92292699181E+03  0.92381193365E+03  0.00000000000E+00 0. -1.
         22    1    3    3    0    0  0.19315517434E+02  0.10578032472E+02 -0.11730821239E+02  0.24951876716E+02  0.00000000000E+00 0.  1.
         22    1    3    3    0    0  0.59517361084E+03 -0.24770317254E+03  0.47625223760E+02  0.64641832482E+03  0.00000000000E+00 0.  1.
</event>
<event>
 7    1  0.5977291E-006  0.8155959E+02  0.7818608E-02  0.1411446E+00
          2   -1    0    0  502    0  0.00000000000E+00  0.00000000000E+00  0.30391927298E+04  0.30391927298E+04  0.00000000000E+00 0. -1.
          1   -1    0    0  501    0 -0.00000000000E+00 -0.00000000000E+00 -0.16893569947E+02  0.16893569947E+02  0.00000000000E+00 0. -1.
         25    2    1    2    0    0 -0.44018122012E+02  0.64227203791E+02  0.65541793247E+03  0.67176038571E+03  0.12500648319E+03 0.  0.
          2    1    1    2  501    0 -0.29529107340E+02 -0.26472158748E+02  0.41234979092E+02  0.57210723381E+02  0.00000000000E+00 0. -1.
          1    1    1    2  502    0  0.73547229352E+02 -0.37755045043E+02  0.23256462483E+04  0.23271151906E+04  0.00000000000E+00 0. -1.
         22    1    3    3    0    0 -0.88234931554E+01  0.84957679611E+02  0.24793679836E+03  0.26223713951E+03  0.00000000000E+00 0.  1.
         22    1    3    3    0    0 -0.35194628857E+02 -0.20730475820E+02  0.40748113411E+03  0.40952324621E+03  0.00000000000E+00 0.  1.
</event>
<event>
 7    1  0.5977291E-006  0.1609510E+03  0.7818608E-02  0.1391497E+00
          2   -1    0    0  502    0  0.00000000000E+00  0.00000000000E+00  0.10679678334E+04  0.10679678334E+04  0.00000000000E+00 0. -1.
          1   -1    0    0  501    0 -0.00000000000E+00 -0.00000000000E+00 -0.13890013907E+04  0.13890013907E+04  0.00000000000E+00 0. -1.
         25    2    1    2    0    0 -0.10894056090E+03  0.12356203041E+03  0.50917484481E+02  0.21296088043E+03  0.12499650075E+03 0.  0.
          2    1    1    2  501    0 -0.13435871323E+02 -0.19312965316E+02 -0.13009700228E+04  0.13011827364E+04  0.00000000000E+00 0. -1.
          1    1    1    2  502    0  0.12237643222E+03 -0.10424906509E+03  0.92901898104E+03  0.94282560734E+03  0.00000000000E+00 0. -1.
         22    1    3    3    0    0 -0.85514554849E+02  0.23325907151E+02 -0.16156555726E+02  0.90099230454E+02  0.00000000000E+00 0.  1.
         22    1    3    3    0    0 -0.23426006047E+02  0.10023612326E+03  0.67074040207E+02  0.12286164998E+03  0.00000000000E+00 0.  1.
</event>
<event>
 7    1  0.5977291E-006  0.1249996E+03  0.7818608E-02  0.1381756E+00
          2   -1    0    0  502    0  0.00000000000E+00  0.00000000000E+00  0.12402177470E+04  0.12402177470E+04  0.00000000000E+00 0. -1.
          1   -1    0    0  501    0 -0.00000000000E+00 -0.00000000000E+00 -0.76115769088E+03  0.76115769088E+03  0.00000000000E+00 0. -1.
         25    2    1    2    0    0 -0.96687430178E+02 -0.11626333301E+03  0.28945641083E+03  0.34967907880E+03  0.12499929049E+03 0.  0.
          2    1    1    2  501    0  0.29013481441E+02  0.15240090907E+02 -0.72666046910E+03  0.72739912003E+03  0.00000000000E+00 0. -1.
          1    1    1    2  502    0  0.67673948736E+02  0.10102324210E+03  0.91626411438E+03  0.92429723904E+03  0.00000000000E+00 0. -1.
         22    1    3    3    0    0 -0.11789183489E+03 -0.78905497244E+02  0.16279803527E+03  0.21593462557E+03  0.00000000000E+00 0. -1.
         22    1    3    3    0    0  0.21204404716E+02 -0.37357835766E+02  0.12665837555E+03  0.13374445323E+03  0.00000000000E+00 0. -1.
</event>
<event>
 7    1  0.5977291E-006  0.2321759E+03  0.7818608E-02  0.1228284E+00
          2   -1    0    0  502    0  0.00000000000E+00  0.00000000000E+00  0.31529313250E+03  0.31529313250E+03  0.00000000000E+00 0. -1.
          1   -1    0    0  501    0 -0.00000000000E+00 -0.00000000000E+00 -0.66792031057E+03  0.66792031057E+03  0.00000000000E+00 0. -1.
         25    2    1    2    0    0  0.24309670380E+02  0.22231997481E+03 -0.12213940088E+03  0.28383023107E+03  0.12499774217E+03 0.  0.
          2    1    1    2  501    0  0.46948739875E+02 -0.23374177857E+03 -0.42754625765E+03  0.48952549030E+03  0.00000000000E+00 0. -1.
          1    1    1    2  502    0 -0.71258410254E+02  0.11421803761E+02  0.19705848047E+03  0.20985772170E+03  0.00000000000E+00 0. -1.
         22    1    3    3    0    0  0.18934201735E+02  0.15688314160E+03 -0.14484120092E+03  0.21435903900E+03  0.00000000000E+00 0. -1.
         22    1    3    3    0    0  0.53754686450E+01  0.65436833202E+02  0.22701800037E+02  0.69471192069E+02  0.00000000000E+00 0. -1.
</event>
<event>
 7    1  0.5977291E-006  0.9317340E+02  0.7818608E-02  0.1389407E+00
          2   -1    0    0  502    0  0.00000000000E+00  0.00000000000E+00  0.51374473751E+03  0.51374473751E+03  0.00000000000E+00 0. -1.
          1   -1    0    0  501    0 -0.00000000000E+00 -0.00000000000E+00 -0.15821100221E+03  0.15821100221E+03  0.00000000000E+00 0. -1.
         25    2    1    2    0    0 -0.43156969979E+02  0.12505352371E+03  0.27051172554E+03  0.32604089664E+03  0.12500065910E+03 0.  0.
          2    1    1    2  501    0  0.27503865765E+02 -0.86803692312E+02 -0.11214830337E+03  0.14445963305E+03  0.00000000000E+00 0. -1.
          1    1    1    2  502    0  0.15653104214E+02 -0.38249831396E+02  0.19717031313E+03  0.20145521004E+03  0.00000000000E+00 0. -1.
         22    1    3    3    0    0  0.41503725422E+02  0.53288691815E+02  0.13438417452E+03  0.15040395693E+03  0.00000000000E+00 0.  1.
         22    1    3    3    0    0 -0.84660695400E+02  0.71764831893E+02  0.13612755102E+03  0.17563693971E+03  0.00000000000E+00 0.  1.
</event>
<event>
 7    1  0.5977291E-006  0.1106310E+03  0.7818608E-02  0.1300675E+00
          2   -1    0    0  502    0  0.00000000000E+00  0.00000000000E+00  0.62497061922E+02  0.62497061922E+02  0.00000000000E+00 0. -1.
          1   -1    0    0  501    0 -0.00000000000E+00 -0.00000000000E+00 -0.32610983395E+04  0.32610983395E+04  0.00000000000E+00 0. -1.
         25    2    1    2    0    0  0.47113257267E+02  0.16478156211E+02 -0.50104120193E+03  0.51880511663E+03  0.12500109746E+03 0.  0.
          2    1    1    2  501    0  0.71806959369E+02 -0.20572520279E+02 -0.26839890084E+04  0.26850282057E+04  0.00000000000E+00 0. -1.
          1    1    1    2  502    0 -0.11892021664E+03  0.40943640676E+01 -0.13571067301E+02  0.11976207918E+03  0.00000000000E+00 0. -1.
         22    1    3    3    0    0  0.53723009217E+02 -0.16039872263E+01 -0.74682756695E+02  0.92012220068E+02  0.00000000000E+00 0.  1.
         22    1    3    3    0    0 -0.66097519497E+01  0.18082143438E+02 -0.42635844523E+03  0.42679289656E+03  0.00000000000E+00 0.  1.
</event>
<event>
 7    1  0.5977291E-006  0.3379572E+02  0.7818608E-02  0.1600279E+00
          2   -1    0    0  502    0  0.00000000000E+00  0.00000000000E+00  0.23233899957E+03  0.23233899957E+03  0.00000000000E+00 0. -1.
          1   -1    0    0  501    0 -0.00000000000E+00 -0.00000000000E+00 -0.67577775354E+03  0.67577775354E+03  0.00000000000E+00 0. -1.
         25    2    1    2    0    0  0.59795486185E+02 -0.27055694303E+01 -0.20924270920E+02  0.14017491658E+03  0.12501344668E+03 0.  0.
          2    1    1    2  501    0 -0.33520033910E+02  0.21411520351E+01 -0.59375096077E+03  0.59470024434E+03  0.00000000000E+00 0. -1.
          1    1    1    2  502    0 -0.26275452275E+02  0.56441739515E+00  0.17123647772E+03  0.17324159218E+03  0.00000000000E+00 0. -1.
         22    1    3    3    0    0  0.26352704500E-01 -0.56905142083E+02 -0.33925399047E+00  0.56906159448E+02  0.00000000000E+00 0.  1.
         22    1    3    3    0    0  0.59769133480E+02  0.54199572652E+02 -0.20585016930E+02  0.83268757134E+02  0.00000000000E+00 0.  1.
</event>
<event>
 7    1  0.5977291E-006  0.6873169E+02  0.7818608E-02  0.1498668E+00
          2   -1    0    0  502    0  0.00000000000E+00  0.00000000000E+00  0.78022368225E+03  0.78022368225E+03  0.00000000000E+00 0. -1.
          1   -1    0    0  501    0 -0.00000000000E+00 -0.00000000000E+00 -0.10432213493E+04  0.10432213493E+04  0.00000000000E+00 0. -1.
         25    2    1    2    0    0 -0.46021564450E+02  0.84006194526E+01 -0.21839461023E+03  0.25595037369E+03  0.12500333282E+03 0.  0.
          2    1    1    2  501    0  0.67290624380E+02 -0.21249591938E+02 -0.80430088768E+03  0.80739054441E+03  0.00000000000E+00 0. -1.
          1    1    1    2  502    0 -0.21269059930E+02  0.12848972485E+02  0.75969783087E+03  0.76010411342E+03  0.00000000000E+00 0. -1.
         22    1    3    3    0    0  0.79382876888E+00  0.31368507302E+02  0.39105202110E-01  0.31378574596E+02  0.00000000000E+00 0. -1.
         22    1    3    3    0    0 -0.46815393219E+02 -0.22967887850E+02 -0.21843371543E+03  0.22457179910E+03  0.00000000000E+00 0. -1.
</event>
<event>
 7    1  0.5977291E-006  0.7176553E+02  0.7818608E-02  0.1365921E+00
          2   -1    0    0  502    0  0.00000000000E+00  0.00000000000E+00  0.18107244330E+04  0.18107244330E+04  0.00000000000E+00 0. -1.
          1   -1    0    0  501    0 -0.00000000000E+00 -0.00000000000E+00 -0.18645744213E+03  0.18645744213E+03  0.00000000000E+00 0. -1.
         25    2    1    2    0    0  0.96333250124E+02 -0.11800873950E+02  0.44981395055E+03  0.47684068680E+03  0.12500037910E+03 0.  0.
          2    1    1    2  501    0 -0.47024317206E+02  0.54196600111E+02 -0.16467844989E+03  0.17963170581E+03  0.00000000000E+00 0. -1.
          1    1    1    2  502    0 -0.49308932918E+02 -0.42395726161E+02  0.13391314902E+04  0.13407094826E+04  0.00000000000E+00 0. -1.
         22    1    3    3    0    0  0.48133413043E+02  0.32250184180E+01  0.40923022816E+03  0.41206383708E+03  0.00000000000E+00 0. -1.
         22    1    3    3    0    0  0.48199837081E+02 -0.15025892368E+02  0.40583722394E+02  0.64776849719E+02  0.00000000000E+00 0. -1.
</event>
<event>
 7    1  0.5977291E-006  0.5447027E+02  0.7818608E-02  0.1481592E+00
          2   -1    0    0  502    0  0.00000000000E+00  0.00000000000E+00  0.10128031110E+04  0.10128031110E+04  0.00000000000E+00 0. -1.
          1   -1    0    0  501    0 -0.00000000000E+00 -0.00000000000E+00 -0.57906133285E+02  0.57906133285E+02  0.00000000000E+00 0. -1.
         25    2    1    2    0    0 -0.32590127569E+02 -0.53454452222E+02  0.11671734506E+03  0.18212027373E+03  0.12500144234E+03 0.  0.
          2    1    1    2  501    0  0.35300647344E+02 -0.10127149951E+01 -0.11515772713E+02  0.37145313510E+02  0.00000000000E+00 0. -1.
          1    1    1    2  502    0 -0.27105197759E+01  0.54467167217E+02  0.84969540535E+03  0.85144365702E+03  0.00000000000E+00 0. -1.
         22    1    3    3    0    0 -0.35535812512E+01 -0.71392558427E+02  0.12640527673E+02  0.72590001228E+02  0.00000000000E+00 0. -1.
         22    1    3    3    0    0 -0.29036546317E+02  0.17938106205E+02  0.10407681739E+03  0.10953027250E+03  0.00000000000E+00 0. -1.
</event>
<event>
 7    1  0.5977291E-006  0.1625005E+03  0.7818608E-02  0.1282851E+00
          2   -1    0    0  502    0  0.00000000000E+00  0.00000000000E+00  0.30158494708E+04  0.30158494708E+04  0.00000000000E+00 0. -1.
          1   -1    0    0  501    0 -0.00000000000E+00 -0.00000000000E+00 -0.65375876335E+03  0.65375876335E+03  0.00000000000E+00 0. -1.
         25    2    1    2    0    0  0.15859595924E+03 -0.13826791469E+03  0.26726622952E+02  0.24619054463E+03  0.12499910947E+03 0.  0.
          2    1    1    2  501    0 -0.59050619408E+02  0.10985047445E+02 -0.54009371535E+03  0.54342328647E+03  0.00000000000E+00 0. -1.
          1    1    1    2  502    0 -0.99545339834E+02  0.12728286725E+03  0.28754577998E+04  0.28799944030E+04  0.00000000000E+00 0. -1.
         22    1    3    3    0    0  0.94709205507E+02 -0.11850391108E+03 -0.34441748355E+02  0.15556106383E+03  0.00000000000E+00 0. -1.
         22    1    3    3    0    0  0.63886753736E+02 -0.19764003608E+02  0.61168371306E+02  0.90629480798E+02  0.00000000000E+00 0. -1.
</event>
<event>
 7    1  0.5977291E-006  0.1382590E+03  0.7818608E-02  0.1245040E+00
          2   -1    0    0  502    0  0.00000000000E+00  0.00000000000E+00  0.99409598190E+03  0.99409598190E+03  0.00000000000E+00 0. -1.
          1   -1    0    0  501    0 -0.00000000000E+00 -0.00000000000E+00 -0.95416330164E+03  0.95416330164E+03  0.00000000000E+00 0. -1.
         25    2    1    2    0    0 -0.11770922249E+03  0.43596965847E+02  0.50208856927E+02  0.18412372625E+03  0.12499784304E+03 0.  0.
          2    1    1    2  501    0 -0.12274703081E+02 -0.10139106806E+03 -0.87845881719E+03  0.88437588757E+03  0.00000000000E+00 0. -1.
          1    1    1    2  502    0  0.12998392558E+03  0.57794102210E+02  0.86818264052E+03  0.87975966972E+03  0.00000000000E+00 0. -1.
         22    1    3    3    0    0 -0.50197188919E+02 -0.25874133496E+02  0.65025931206E+02  0.86125491515E+02  0.00000000000E+00 0. -1.
         22    1    3    3    0    0 -0.67512033576E+02  0.69471099343E+02 -0.14817074279E+02  0.97998234738E+02  0.00000000000E+00 0. -1.
</event>
<event>
 7    1  0.5977291E-006  0.2384876E+03  0.7818608E-02  0.1225668E+00
          2   -1    0    0  502    0  0.00000000000E+00  0.00000000000E+00  0.13757430895E+04  0.13757430895E+04  0.00000000000E+00 0. -1.
          1   -1    0    0  501    0 -0.00000000000E+00 -0.00000000000E+00 -0.11804165002E+04  0.11804165002E+04  0.00000000000E+00 0. -1.
         25    2    1    2    0    0  0.82891168921E+02  0.21343098822E+03 -0.18906320863E+03  0.32217012403E+03  0.12499983737E+03 0.  0.
          2    1    1    2  501    0  0.67010448571E+02 -0.26854882891E+02 -0.91242390485E+03  0.91527535043E+03  0.00000000000E+00 0. -1.
          1    1    1    2  502    0 -0.14990161749E+03 -0.18657610533E+03  0.12968137028E+04  0.13187141152E+04  0.00000000000E+00 0. -1.
         22    1    3    3    0    0  0.10341989171E+03  0.20011744192E+03 -0.13447083004E+03  0.26234532337E+03  0.00000000000E+00 0. -1.
         22    1    3    3    0    0 -0.20528722785E+02  0.13313546296E+02 -0.54592378588E+02  0.59824800660E+02  0.00000000000E+00 0. -1.
</event>
<event>
 7    1  0.5977291E-006  0.8274435E+02  0.7818608E-02  0.1413469E+00
          2   -1    0    0  502    0  0.00000000000E+00  0.00000000000E+00  0.28879878095E+04  0.28879878095E+04  0.00000000000E+00 0. -1.
          1   -1    0    0  501    0 -0.00000000000E+00 -0.00000000000E+00 -0.73995646642E+03  0.73995646642E+03  0.00000000000E+00 0. -1.
         25    2    1    2    0    0  0.34110414954E+01  0.11842030180E+03  0.13055046236E+03  0.21611510432E+03  0.12500924771E+03 0.  0.
          2    1    1    2  501    0  0.97087399168E+01 -0.37234841811E+02 -0.69601974393E+03  0.69708261850E+03  0.00000000000E+00 0. -1.
          1    1    1    2  502    0 -0.13119781412E+02 -0.81185459987E+02  0.27135006246E+04  0.27147465531E+04  0.00000000000E+00 0. -1.
         22    1    3    3    0    0  0.69873501998E+01  0.10085103739E+03  0.18664125330E+02  0.10280128588E+03  0.00000000000E+00 0.  1.
         22    1    3    3    0    0 -0.35763087044E+01  0.17569264413E+02  0.11188633703E+03  0.11331381844E+03  0.00000000000E+00 0.  1.
</event>
<event>
 7    1  0.5977291E-006  0.9240148E+02  0.7818608E-02  0.1319680E+00
          2   -1    0    0  502    0  0.00000000000E+00  0.00000000000E+00  0.50820971937E+03  0.50820971937E+03  0.00000000000E+00 0. -1.
          1   -1    0    0  501    0 -0.00000000000E+00 -0.00000000000E+00 -0.15046166481E+03  0.15046166481E+03  0.00000000000E+00 0. -1.
         25    2    1    2    0    0 -0.10153744769E+03  0.11920939882E+02  0.17241014646E+03  0.23622452410E+03  0.12499922037E+03 0.  0.
          2    1    1    2  501    0  0.58494474878E+02 -0.73668575660E+02 -0.94096886015E+02  0.13305219498E+03  0.00000000000E+00 0. -1.
          1    1    1    2  502    0  0.43042972812E+02  0.61747635777E+02  0.27943479411E+03  0.28939466510E+03  0.00000000000E+00 0. -1.
         22    1    3    3    0    0 -0.12243423282E+03 -0.17975729007E+02  0.12003745713E+03  0.17240144812E+03  0.00000000000E+00 0. -1.
         22    1    3    3    0    0  0.20896785132E+02  0.29896668889E+02  0.52372689333E+02  0.63823075979E+02  0.00000000000E+00 0. -1.
</event>
<event>
 7    1  0.5977291E-006  0.6334807E+02  0.7818608E-02  0.1424506E+00
          2   -1    0    0  502    0  0.00000000000E+00  0.00000000000E+00  0.32934135344E+03  0.32934135344E+03  0.00000000000E+00 0. -1.
          1   -1    0    0  501    0 -0.00000000000E+00 -0.00000000000E+00 -0.16300483653E+04  0.16300483653E+04  0.00000000000E+00 0. -1.
         25    2    1    2    0    0 -0.77757686983E+02 -0.33072637687E+02 -0.54871611019E+03  0.56908193356E+03  0.12499928108E+03 0.  0.
          2    1    1    2  501    0  0.42000052937E+02 -0.19164333463E+02 -0.10675065718E+04  0.10685043551E+04  0.00000000000E+00 0. -1.
          1    1    1    2  502    0  0.35757634046E+02  0.52236971150E+02  0.31551567008E+03  0.32180343009E+03  0.00000000000E+00 0. -1.
         22    1    3    3    0    0 -0.45627284942E+02  0.27675296933E+02 -0.85437141955E+02  0.10073369058E+03  0.00000000000E+00 0. -1.
         22    1    3    3    0    0 -0.32130402041E+02 -0.60747934620E+02 -0.46327896823E+03  0.46834824298E+03  0.00000000000E+00 0. -1.
</event>
<event>
 7    1  0.5977291E-006  0.3572740E+02  0.7818608E-02  0.1560720E+00
          2   -1    0    0  502    0  0.00000000000E+00  0.00000000000E+00  0.61954986129E+02  0.61954986129E+02  0.00000000000E+00 0. -1.
          1   -1    0    0  501    0 -0.00000000000E+00 -0.00000000000E+00 -0.66027413527E+03  0.66027413527E+03  0.00000000000E+00 0. -1.
         25    2    1    2    0    0  0.44172490273E+02  0.21219001275E+02 -0.71256096381E+02  0.15200122737E+03  0.12500194773E+03 0.  0.
          2    1    1    2  501    0 -0.10021696813E+02 -0.30110938425E+02 -0.53342621797E+03  0.53436937884E+03  0.00000000000E+00 0. -1.
          1    1    1    2  502    0 -0.34150793460E+02  0.88919371504E+01  0.63631652148E+01  0.35858515192E+02  0.00000000000E+00 0. -1.
         22    1    3    3    0    0  0.88343283479E+02  0.14281314982E+02 -0.45328170592E+02  0.10031517703E+03  0.00000000000E+00 0.  1.
         22    1    3    3    0    0 -0.44170793206E+02  0.69376862925E+01 -0.25927925790E+02  0.51686050335E+02  0.00000000000E+00 0.  1.
</event>
<event>
 7    1  0.5977291E-006  0.1243564E+03  0.7818608E-02  0.1436172E+00
          2   -1    0    0  502    0  0.00000000000E+00  0.00000000000E+00  0.42367021034E+03  0.42367021034E+03  0.00000000000E+00 0. -1.
          1   -1    0    0  501    0 -0.00000000000E+00 -0.00000000000E+00 -0.45623156957E+03  0.45623156957E+03  0.00000000000E+00 0. -1.
         25    2    1    2    0    0  0.11913057737E+03 -0.19816586985E+02 -0.26300935403E+03  0.31524654232E+03  0.12498668151E+03 0.  0.
          2    1    1    2  501    0 -0.16351465994E+01 -0.21465585485E+02 -0.15659604175E+03  0.15806886270E+03  0.00000000000E+00 0. -1.
          1    1    1    2  502    0 -0.11749543077E+03  0.41282172470E+02  0.38704403655E+03  0.40658637488E+03  0.00000000000E+00 0. -1.
         22    1    3    3    0    0  0.49500025047E+02 -0.38145705396E+02 -0.26252483705E+02  0.67783037852E+02  0.00000000000E+00 0.  1.
         22    1    3    3    0    0  0.69630552323E+02  0.18329118411E+02 -0.23675687033E+03  0.24746350447E+03  0.00000000000E+00 0.  1.
</event>
<event>
 7    1  0.5977291E-006  0.1699276E+03  0.7818608E-02  0.1236289E+00
          2   -1    0    0  502    0  0.00000000000E+00  0.00000000000E+00  0.10494193676E+04  0.10494193676E+04  0.00000000000E+00 0. -1.
          1   -1    0    0  501    0 -0.00000000000E+00 -0.00000000000E+00 -0.12081208539E+03  0.12081208539E+03  0.00000000000E+00 0. -1.
         25    2    1    2    0    0  0.76094680154E+02 -0.12797060954E+03  0.48078656397E+02  0.20025881232E+03  0.12500062983E+03 0.  0.
          2    1    1    2  501    0  0.78208980979E+02  0.46152418154E+02  0.21436984730E+02  0.93307206161E+02  0.00000000000E+00 0. -1.
          1    1    1    2  502    0 -0.15430366113E+03  0.81818191386E+02  0.85909164110E+03  0.87666543452E+03  0.00000000000E+00 0. -1.
         22    1    3    3    0    0  0.25584045304E+02 -0.12919168005E+03  0.17556993277E+01  0.13171224714E+03  0.00000000000E+00 0.  1.
         22    1    3    3    0    0  0.50510634849E+02  0.12210705073E+01  0.46322957069E+02  0.68546565178E+02  0.00000000000E+00 0.  1.
</event>
<event>
 7    1  0.5977291E-006  0.6456728E+02  0.7818608E-02  0.1517179E+00
          2   -1    0    0  502    0  0.00000000000E+00  0.00000000000E+00  0.41926396246E+03  0.41926396246E+03  0.00000000000E+00 0. -1.
          1   -1    0    0  501    0 -0.00000000000E+00 -0.00000000000E+00 -0.18938986672E+03  0.18938986672E+03  0.00000000000E+00 0. -1.
         25    2    1    2    0    0 -0.59422566896E+02 -0.28228678284E+01  0.19564207647E+03  0.23966316094E+03  0.12499439422E+03 0.  0.
          2    1    1    2  501    0 -0.40624455715E+01  0.22967768853E+02 -0.16101512595E+03  0.16269570571E+03  0.00000000000E+00 0. -1.
          1    1    1    2  502    0  0.63485012467E+02 -0.20144901024E+02  0.19524714523E+03  0.20629496253E+03  0.00000000000E+00 0. -1.
         22    1    3    3    0    0 -0.15250678457E+02 -0.36593980280E+02  0.17643879434E+03  0.18083791288E+03  0.00000000000E+00 0. -1.
         22    1    3    3    0    0 -0.44171888439E+02  0.33771112451E+02  0.19203282124E+02  0.58825248055E+02  0.00000000000E+00 0. -1.
</event>
<event>
 7    1  0.5977291E-006  0.6236840E+02  0.7818608E-02  0.1414321E+00
          2   -1    0    0  502    0  0.00000000000E+00  0.00000000000E+00  0.18759576211E+04  0.18759576211E+04  0.00000000000E+00 0. -1.
          1   -1    0    0  501    0 -0.00000000000E+00 -0.00000000000E+00 -0.39190839904E+03  0.39190839904E+03  0.00000000000E+00 0. -1.
         25    2    1    2    0    0 -0.38387065865E+02 -0.73695256761E+01  0.46756535687E+03  0.48556396405E+03  0.12500849374E+03 0.  0.
          2    1    1    2  501    0  0.26528439602E+02  0.56678823216E+02 -0.37988878079E+03  0.38500874390E+03  0.00000000000E+00 0. -1.
          1    1    1    2  502    0  0.11858626264E+02 -0.49309297540E+02  0.13963726460E+04  0.13972933122E+04  0.00000000000E+00 0. -1.
         22    1    3    3    0    0  0.37612658075E+01 -0.56192397910E+02  0.12674297871E+03  0.13869216040E+03  0.00000000000E+00 0.  1.
         22    1    3    3    0    0 -0.42148331673E+02  0.48822872234E+02  0.34082237815E+03  0.34687180365E+03  0.00000000000E+00 0.  1.
</event>
<event>
 7    1  0.5977291E-006  0.1306615E+03  0.7818608E-02  0.1290485E+00
          2   -1    0    0  502    0  0.00000000000E+00  0.00000000000E+00  0.25636725665E+04  0.25636725665E+04  0.00000000000E+00 0. -1.
          1   -1    0    0  501    0 -0.00000000000E+00 -0.00000000000E+00 -0.38671724875E+03  0.38671724875E+03  0.00000000000E+00 0. -1.
         25    2    1    2    0    0  0.80759795786E+02 -0.15148269636E+03  0.70714647786E+03  0.73834279664E+03  0.12499916915E+03 0.  0.
          2    1    1    2  501    0  0.14027151288E+02  0.68089725225E+02 -0.36567589649E+03  0.37222551354E+03  0.00000000000E+00 0. -1.
          1    1    1    2  502    0 -0.94786947074E+02  0.83392971140E+02  0.18354847364E+04  0.18398215051E+04  0.00000000000E+00 0. -1.
         22    1    3    3    0    0 -0.18562188361E+02 -0.47353423412E+01  0.20414094002E+03  0.20503780553E+03  0.00000000000E+00 0. -1.
         22    1    3    3    0    0  0.99321984147E+02 -0.14674735402E+03  0.50300553783E+03  0.53330499111E+03  0.00000000000E+00 0. -1.
</event>
<event>
 7    1  0.5977291E-006  0.1396983E+03  0.7818608E-02  0.1260847E+00
          2   -1    0    0  502    0  0.00000000000E+00  0.00000000000E+00  0.15457763463E+03  0.15457763463E+03  0.00000000000E+00 0. -1.
          1   -1    0    0  501    0 -0.00000000000E+00 -0.00000000000E+00 -0.17786499255E+04  0.17786499255E+04  0.00000000000E+00 0. -1.
         25    2    1    2    0    0 -0.72621280068E+02 -0.54951085138E+02 -0.25307188497E+03  0.29658882106E+03  0.12500431087E+03 0.  0.
          2    1    1    2  501    0  0.55521988747E+02  0.13962208273E+03 -0.14855727673E+04  0.14931521906E+04  0.00000000000E+00 0. -1.
          1    1    1    2  502    0  0.17099291321E+02 -0.84670997593E+02  0.11457236142E+03  0.14348654849E+03  0.00000000000E+00 0. -1.
         22    1    3    3    0    0 -0.26327569736E+02 -0.34368276814E+02 -0.52142534128E+01  0.43606281864E+02  0.00000000000E+00 0. -1.
         22    1    3    3    0    0 -0.46293710332E+02 -0.20582808325E+02 -0.24785763156E+03  0.25298253919E+03  0.00000000000E+00 0. -1.
</event>
<event>
 7    1  0.5977291E-006  0.1124008E+03  0.7818608E-02  0.1321397E+00
          2   -1    0    0  502    0  0.00000000000E+00  0.00000000000E+00  0.61537171114E+03  0.61537171114E+03  0.00000000000E+00 0. -1.
          1   -1    0    0  501    0 -0.00000000000E+00 -0.00000000000E+00 -0.75192072552E+03  0.75192072552E+03  0.00000000000E+00 0. -1.
         25    2    1    2    0    0  0.49314062646E+02 -0.21407317852E+02 -0.24832042378E+03  0.28315798332E+03  0.12500104248E+03 0.  0.
          2    1    1    2  501    0  0.47157915060E+02 -0.38590500983E+02 -0.47883707348E+03  0.48269870381E+03  0.00000000000E+00 0. -1.
          1    1    1    2  502    0 -0.96471977706E+02  0.59997818836E+02  0.59060848288E+03  0.60143574952E+03  0.00000000000E+00 0. -1.
         22    1    3    3    0    0  0.21816895056E+02  0.35580076026E+02 -0.19789510872E+03  0.20224834431E+03  0.00000000000E+00 0.  1.
         22    1    3    3    0    0  0.27497167590E+02 -0.56987393878E+02 -0.50425315060E+02  0.80909639014E+02  0.00000000000E+00 0.  1.
</event>
<event>
 7    1  0.5977291E-006  0.1380792E+03  0.7818608E-02  0.1243168E+00
          2   -1    0    0  502    0  0.00000000000E+00  0.00000000000E+00  0.12700900895E+04  0.12700900895E+04  0.00000000000E+00 0. -1.
          1   -1    0    0  501    0 -0.00000000000E+00 -0.00000000000E+00 -0.69952970021E+03  0.69952970021E+03  0.00000000000E+00 0. -1.
         25    2    1    2    0    0  0.74264660973E+01  0.17712787915E+03 -0.45174402603E+03  0.50112601121E+03  0.12500070433E+03 0.  0.
          2    1    1    2  501    0 -0.74377525322E+02 -0.97265854501E+02 -0.20391556823E+03  0.23785336174E+03  0.00000000000E+00 0. -1.
          1    1    1    2  502    0  0.66951059225E+02 -0.79862024652E+02  0.12262199835E+04  0.12306404168E+04  0.00000000000E+00 0. -1.
         22    1    3    3    0    0  0.17741940307E+02  0.15476266956E+03 -0.22861940937E+03  0.27664615427E+03  0.00000000000E+00 0.  1.
         22    1    3    3    0    0 -0.10315474209E+02  0.22365209596E+02 -0.22312461666E+03  0.22447985693E+03  0.00000000000E+00 0.  1.
</event>
<event>
 7    1  0.5977291E-006  0.5444494E+02  0.7818608E-02  0.1523844E+00
          2   -1    0    0  502    0  0.00000000000E+00  0.00000000000E+00  0.16968162073E+03  0.16968162073E+03  0.00000000000E+00 0. -1.
          1   -1    0    0  501    0 -0.00000000000E+00 -0.00000000000E+00 -0.79022773518E+03  0.79022773518E+03  0.00000000000E+00 0. -1.
         25    2    1    2    0    0 -0.37797922060E+02 -0.36591876805E+01  0.54780826501E+02  0.14166393517E+03  0.12500263601E+03 0.  0.
          2    1    1    2  501    0 -0.20368424726E+02  0.16882904126E+02 -0.73405791785E+03  0.73453450017E+03  0.00000000000E+00 0. -1.
          1    1    1    2  502    0  0.58166346787E+02 -0.13223716446E+02  0.58730976895E+02  0.83710920567E+02  0.00000000000E+00 0. -1.
         22    1    3    3    0    0 -0.46192454716E+02  0.28138268196E+02 -0.21803361890E+02  0.58317163850E+02  0.00000000000E+00 0.  1.
         22    1    3    3    0    0  0.83945326559E+01 -0.31797455876E+02  0.76584188391E+02  0.83346771325E+02  0.00000000000E+00 0.  1.
</event>
<event>
 7    1  0.5977291E-006  0.3475819E+02  0.7818608E-02  0.1576562E+00
          2   -1    0    0  502    0  0.00000000000E+00  0.00000000000E+00  0.10891990338E+04  0.10891990338E+04  0.00000000000E+00 0. -1.
          1   -1    0    0  501    0 -0.00000000000E+00 -0.00000000000E+00 -0.38774293982E+03  0.38774293982E+03  0.00000000000E+00 0. -1.
         25    2    1    2    0    0  0.18843432635E+02 -0.26817779692E+02  0.52601250003E+02  0.13952264930E+03  0.12500163960E+03 0.  0.
          2    1    1    2  501    0  0.99404626078E+01  0.33444150821E+02 -0.34317790924E+03  0.34494695449E+03  0.00000000000E+00 0. -1.
          1    1    1    2  502    0 -0.28783895243E+02 -0.66263711288E+01  0.99203275325E+03  0.99247236986E+03  0.00000000000E+00 0. -1.
         22    1    3    3    0    0  0.39738864203E+02 -0.13298310183E+02  0.87291165095E+02  0.96828559245E+02  0.00000000000E+00 0. -1.
         22    1    3    3    0    0 -0.20895431568E+02 -0.13519469509E+02 -0.34689915092E+02  0.42694090052E+02  0.00000000000E+00 0. -1.
</event>
<event>
 7    1  0.5977291E-006  0.5952610E+02  0.7818608E-02  0.1526032E+00
          2   -1    0    0  502    0  0.00000000000E+00  0.00000000000E+00  0.28429904602E+04  0.28429904602E+04  0.00000000000E+00 0. -1.
          1   -1    0    0  501    0 -0.00000000000E+00 -0.00000000000E+00 -0.93720487345E+02  0.93720487345E+02  0.00000000000E+00 0. -1.
         25    2    1    2    0    0 -0.17648736693E+01 -0.65510859357E+02  0.31336272013E+03  0.34368035587E+03  0.12500082067E+03 0.  0.
          2    1    1    2  501    0  0.21865188735E+02  0.95216602748E+01 -0.76391542747E+02  0.80027597090E+02  0.00000000000E+00 0. -1.
          1    1    1    2  502    0 -0.20100315065E+02  0.55989199083E+02  0.25122987955E+04  0.25130029946E+04  0.00000000000E+00 0. -1.
         22    1    3    3    0    0 -0.44344220018E+02 -0.23381819462E+02  0.25559204703E+03  0.26046192396E+03  0.00000000000E+00 0.  1.
         22    1    3    3    0    0  0.42579346348E+02 -0.42129039895E+02  0.57770673104E+02  0.83218431905E+02  0.00000000000E+00 0.  1.
</event>
<event>
 7    1  0.5977291E-006  0.9501758E+02  0.7818608E-02  0.1390173E+00
          2   -1    0    0  502    0  0.00000000000E+00  0.00000000000E+00  0.26049350046E+03  0.26049350046E+03  0.00000000000E+00 0. -1.
          1   -1    0    0  501    0 -0.00000000000E+00 -0.00000000000E+00 -0.41062332327E+03  0.41062332327E+03  0.00000000000E+00 0. -1.
         25    2    1    2    0    0  0.88303763090E+02  0.79051455670E+02  0.94091939958E+02  0.19630284490E+03  0.12503929995E+03 0.  0.
          2    1    1    2  501    0 -0.97872670785E+01 -0.39070622181E+02 -0.34132565101E+03  0.34369391055E+03  0.00000000000E+00 0. -1.
          1    1    1    2  502    0 -0.78516496012E+02 -0.39980833488E+02  0.97103888235E+02  0.13112006827E+03  0.00000000000E+00 0. -1.
         22    1    3    3    0    0 -0.83335457916E+01 -0.11246402986E+02  0.57352250913E+02  0.59035669306E+02  0.00000000000E+00 0.  1.
         22    1    3    3    0    0  0.96637308882E+02  0.90297858655E+02  0.36739689045E+02  0.13726717560E+03  0.00000000000E+00 0.  1.
</event>
<event>
 7    1  0.5977291E-006  0.2198158E+03  0.7818608E-02  0.1159774E+00
          2   -1    0    0  502    0  0.00000000000E+00  0.00000000000E+00  0.15431045454E+04  0.15431045454E+04  0.00000000000E+00 0. -1.
          1   -1    0    0  501    0 -0.00000000000E+00 -0.00000000000E+00 -0.11144246871E+04  0.11144246871E+04  0.00000000000E+00 0. -1.
         25    2    1    2    0    0 -0.12409013014E+03  0.33302044998E+03 -0.38884760560E+03  0.54141421203E+03  0.12500363237E+03 0.  0.
          2    1    1    2  501    0  0.74236226093E+02 -0.17916161629E+03 -0.63020852752E+03  0.65937295226E+03  0.00000000000E+00 0. -1.
          1    1    1    2  502    0  0.49853904045E+02 -0.15385883369E+03  0.14477359914E+04  0.14567420682E+04  0.00000000000E+00 0. -1.
         22    1    3    3    0    0 -0.78016892037E+02  0.56527052623E+02 -0.94540245069E+02  0.13498074329E+03  0.00000000000E+00 0.  1.
         22    1    3    3    0    0 -0.46073238101E+02  0.27649339736E+03 -0.29430736053E+03  0.40643346874E+03  0.00000000000E+00 0.  1.
</event>
<event>
 7    1  0.5977291E-006  0.6266238E+02  0.7818608E-02  0.1466344E+00
          2   -1    0    0  502    0  0.00000000000E+00  0.00000000000E+00  0.58882557548E+03  0.58882557548E+03  0.00000000000E+00 0. -1.
          1   -1    0    0  501    0 -0.00000000000E+00 -0.00000000000E+00 -0.43750250839E+03  0.43750250839E+03  0.00000000000E+00 0. -1.
         25    2    1    2    0    0 -0.28403001370E+02 -0.10737892476E+02  0.11454979902E+03  0.17224525544E+03  0.12499895497E+03 0.  0.
          2    1    1    2  501    0  0.52893473695E+02  0.34638783828E+02 -0.40554436773E+03  0.41044341766E+03  0.00000000000E+00 0. -1.
          1    1    1    2  502    0 -0.24490472325E+02 -0.23900891352E+02  0.44231763581E+03  0.44363941077E+03  0.00000000000E+00 0. -1.
         22    1    3    3    0    0 -0.61967793188E+02 -0.44767491212E+02  0.47849400784E+02  0.90187032424E+02  0.00000000000E+00 0.  1.
         22    1    3    3    0    0  0.33564791818E+02  0.34029598736E+02  0.66700398233E+02  0.82058223015E+02  0.00000000000E+00 0.  1.
</event>
<event>
 7    1  0.5977291E-006  0.3843467E+02  0.7818608E-02  0.1576596E+00
          2   -1    0    0  502    0  0.00000000000E+00  0.00000000000E+00  0.69236304900E+03  0.69236304900E+03  0.00000000000E+00 0. -1.
          1   -1    0    0  501    0 -0.00000000000E+00 -0.00000000000E+00 -0.10778105698E+04  0.10778105698E+04  0.00000000000E+00 0. -1.
         25    2    1    2    0    0 -0.10550499387E+02  0.63494175275E+02 -0.19868435660E+03  0.24340027865E+03  0.12500159503E+03 0.  0.
          2    1    1    2  501    0  0.89666773002E+01 -0.25155458620E+02 -0.85601045462E+03  0.85642693606E+03  0.00000000000E+00 0. -1.
          1    1    1    2  502    0  0.15838220868E+01 -0.38338716656E+02  0.66924729043E+03  0.67034640406E+03  0.00000000000E+00 0. -1.
         22    1    3    3    0    0 -0.51613197214E+02  0.32766401283E+02 -0.31999837315E+02  0.69003976464E+02  0.00000000000E+00 0. -1.
         22    1    3    3    0    0  0.41062697827E+02  0.30727773993E+02 -0.16668451929E+03  0.17439630219E+03  0.00000000000E+00 0. -1.
</event>
<event>
 7    1  0.5977291E-006  0.6706108E+02  0.7818608E-02  0.1425493E+00
          2   -1    0    0  502    0  0.00000000000E+00  0.00000000000E+00  0.32610359174E+03  0.32610359174E+03  0.00000000000E+00 0. -1.
          1   -1    0    0  501    0 -0.00000000000E+00 -0.00000000000E+00 -0.88988343915E+03  0.88988343915E+03  0.00000000000E+00 0. -1.
         25    2    1    2    0    0  0.10545837826E+03 -0.54411052864E+00  0.16100633455E+03  0.22950140252E+03  0.12500435348E+03 0.  0.
          2    1    1    2  501    0 -0.64937798970E+02  0.15757720400E+02 -0.85071027542E+03  0.85333064881E+03  0.00000000000E+00 0. -1.
          1    1    1    2  502    0 -0.40520579294E+02 -0.15213609871E+02  0.12592409345E+03  0.13315497957E+03  0.00000000000E+00 0. -1.
         22    1    3    3    0    0 -0.49976566169E+01 -0.39463623855E+02  0.15433149457E+02  0.42667742870E+02  0.00000000000E+00 0.  1.
         22    1    3    3    0    0  0.11045603488E+03  0.38919513326E+02  0.14557318509E+03  0.18683365965E+03  0.00000000000E+00 0.  1.
</event>
<event>
 7    1  0.5977291E-006  0.4884911E+02  0.7818608E-02  0.1496877E+00
          2   -1    0    0  502    0  0.00000000000E+00  0.00000000000E+00  0.21401291484E+03  0.21401291484E+03  0.00000000000E+00 0. -1.
          1   -1    0    0  501    0 -0.00000000000E+00 -0.00000000000E+00 -0.90116708199E+03  0.90116708199E+03  0.00000000000E+00 0. -1.
         25    2    1    2    0    0 -0.19401980763E+02  0.49672725602E+00 -0.78413902783E+02  0.14883592739E+03  0.12500683796E+03 0.  0.
          2    1    1    2  501    0  0.40014954484E+02 -0.29272795008E+02 -0.78500053985E+03  0.78656464494E+03  0.00000000000E+00 0. -1.
          1    1    1    2  502    0 -0.20612973720E+02  0.28776067752E+02  0.17626027548E+03  0.17977942450E+03  0.00000000000E+00 0. -1.
         22    1    3    3    0    0  0.20387097341E+02 -0.49196355752E+02 -0.64554114726E+02  0.83684818727E+02  0.00000000000E+00 0.  1.
         22    1    3    3    0    0 -0.39789078105E+02  0.49693083008E+02 -0.13859788057E+02  0.65151108665E+02  0.00000000000E+00 0.  1.
</event>
<event>
 7    1  0.5977291E-006  0.7043435E+02  0.7818608E-02  0.1368533E+00
          2   -1    0    0  502    0  0.00000000000E+00  0.00000000000E+00  0.93887521833E+03  0.93887521833E+03  0.00000000000E+00 0. -1.
          1   -1    0    0  501    0 -0.00000000000E+00 -0.00000000000E+00 -0.98756171816E+03  0.98756171816E+03  0.00000000000E+00 0. -1.
         25    2    1    2    0    0  0.27907416456E+02 -0.12117761326E+03  0.24134759439E+03  0.29888954591E+03  0.12499384580E+03 0.  0.
          2    1    1    2  501    0 -0.35841957801E+02  0.54026937811E+02 -0.95598070869E+03  0.95817674327E+03  0.00000000000E+00 0. -1.
          1    1    1    2  502    0  0.79345413455E+01  0.67150675451E+02  0.66594661447E+03  0.66937064731E+03  0.00000000000E+00 0. -1.
         22    1    3    3    0    0  0.42905085615E+02 -0.13422461410E+03  0.15164342636E+03  0.20700923206E+03  0.00000000000E+00 0.  1.
         22    1    3    3    0    0 -0.14997669160E+02  0.13047000834E+02  0.89704168029E+02  0.91880313848E+02  0.00000000000E+00 0.  1.
</event>
<event>
 7    1  0.5977291E-006  0.4865475E+02  0.7818608E-02  0.1456898E+00
          2   -1    0    0  502    0  0.00000000000E+00  0.00000000000E+00  0.14934033953E+04  0.14934033953E+04  0.00000000000E+00 0. -1.
          1   -1    0    0  501    0 -0.00000000000E+00 -0.00000000000E+00 -0.10768505474E+03  0.10768505474E+03  0.00000000000E+00 0. -1.
         25    2    1    2    0    0 -0.92185399721E+02 -0.85150858956E+01  0.31585327553E+03  0.35207822642E+03  0.12500052498E+03 0.  0.
          2    1    1    2  501    0  0.45006470699E+02  0.14205524361E+02 -0.82832162903E+02  0.95333868789E+02  0.00000000000E+00 0. -1.
          1    1    1    2  502    0  0.47178929022E+02 -0.56904384650E+01  0.11526972279E+04  0.11536763548E+04  0.00000000000E+00 0. -1.
         22    1    3    3    0    0 -0.11002068134E+03  0.24884373655E+02  0.19325339661E+03  0.22376473734E+03  0.00000000000E+00 0. -1.
         22    1    3    3    0    0  0.17835281618E+02 -0.33399459550E+02  0.12259987893E+03  0.12831348908E+03  0.00000000000E+00 0. -1.
</event>
<event>
 7    1  0.5977291E-006  0.1073065E+03  0.7818608E-02  0.1283849E+00
          2   -1    0    0  502    0  0.00000000000E+00  0.00000000000E+00  0.72822660511E+03  0.72822660511E+03  0.00000000000E+00 0. -1.
          1   -1    0    0  501    0 -0.00000000000E+00 -0.00000000000E+00 -0.94886719105E+03  0.94886719105E+03  0.00000000000E+00 0. -1.
         25    2    1    2    0    0  0.15536994744E+03  0.87466257680E+02  0.34166480787E+02  0.22041027619E+03  0.12499269835E+03 0.  0.
          2    1    1    2  501    0 -0.51873608768E+02 -0.73673303652E+02 -0.84880743927E+03  0.85357641481E+03  0.00000000000E+00 0. -1.
          1    1    1    2  502    0 -0.10349633867E+03 -0.13792954028E+02  0.59400037254E+03  0.60310710515E+03  0.00000000000E+00 0. -1.
         22    1    3    3    0    0  0.15874662024E+03  0.32743599893E+02  0.17095571379E+02  0.16298739623E+03  0.00000000000E+00 0. -1.
         22    1    3    3    0    0 -0.33766727953E+01  0.54722657788E+02  0.17070909408E+02  0.57422879957E+02  0.00000000000E+00 0. -1.
</event>
<event>
 7    1  0.5977291E-006  0.2201599E+03  0.7818608E-02  0.1175508E+00
          2   -1    0    0  502    0  0.00000000000E+00  0.00000000000E+00  0.49493314755E+03  0.49493314755E+03  0.00000000000E+00 0. -1.
          1   -1    0    0  501    0 -0.00000000000E+00 -0.00000000000E+00 -0.17260755799E+04  0.17260755799E+04  0.00000000000E+00 0. -1.
         25    2    1    2    0    0  0.10737886001E+03  0.17697744460E+03 -0.18525749392E+03  0.30462532870E+03  0.12500006543E+03 0.  0.
          2    1    1    2  501    0 -0.20920095320E+03 -0.88661337776E+02 -0.14617072925E+04  0.14792613294E+04  0.00000000000E+00 0. -1.
          1    1    1    2  502    0  0.10182209320E+03 -0.88316106826E+02  0.41582235407E+03  0.43712206937E+03  0.00000000000E+00 0. -1.
         22    1    3    3    0    0  0.10424809194E+03  0.85676211007E+02 -0.55432645489E+02  0.14587959416E+03  0.00000000000E+00 0.  1.
         22    1    3    3    0    0  0.31307680659E+01  0.91301233595E+02 -0.12982484843E+03  0.15874573454E+03  0.00000000000E+00 0.  1.
</event>
<event>
 7    1  0.5977291E-006  0.3086816E+02  0.7818608E-02  0.1652140E+00
          2   -1    0    0  502    0  0.00000000000E+00  0.00000000000E+00  0.10674263349E+04  0.10674263349E+04  0.00000000000E+00 0. -1.
          1   -1    0    0  501    0 -0.00000000000E+00 -0.00000000000E+00 -0.43349067414E+02  0.43349067414E+02  0.00000000000E+00 0. -1.
         25    2    1    2    0    0  0.16286500751E+02  0.16388170009E+01  0.39600751053E+03  0.41559000846E+03  0.12500068361E+03 0.  0.
          2    1    1    2  501    0 -0.25944646575E+02  0.17320641106E+02 -0.26097633422E+02  0.40672051392E+02  0.00000000000E+00 0. -1.
          1    1    1    2  502    0  0.96581458241E+01 -0.18959458107E+02  0.65416739041E+03  0.65451334250E+03  0.00000000000E+00 0. -1.
         22    1    3    3    0    0  0.33871439842E+02  0.57663319697E+02  0.19282184531E+03  0.20408967858E+03  0.00000000000E+00 0. -1.
         22    1    3    3    0    0 -0.17584939092E+02 -0.56024502696E+02  0.20318566522E+03  0.21150032988E+03  0.00000000000E+00 0. -1.
</event>
<event>
 7    1  0.5977291E-006  0.2810974E+03  0.7818608E-02  0.1222934E+00
          2   -1    0    0  502    0  0.00000000000E+00  0.00000000000E+00  0.80199180189E+03  0.80199180189E+03  0.00000000000E+00 0. -1.
          1   -1    0    0  501    0 -0.00000000000E+00 -0.00000000000E+00 -0.91772517904E+03  0.91772517904E+03  0.00000000000E+00 0. -1.
         25    2    1    2    0    0 -0.32963798786E+03  0.48673134400E+02  0.11833850798E+03  0.37504585573E+03  0.12500045752E+03 0.  0.
          2    1    1    2  501    0  0.27562121278E+03 -0.16214686263E+02 -0.76330217398E+03  0.81170202525E+03  0.00000000000E+00 0. -1.
          1    1    1    2  502    0  0.54016775075E+02 -0.32458448136E+02  0.52923028886E+03  0.53296909994E+03  0.00000000000E+00 0. -1.
         22    1    3    3    0    0 -0.16531521003E+03  0.48148061634E+02  0.12142604667E+03  0.21069323509E+03  0.00000000000E+00 0.  1.
         22    1    3    3    0    0 -0.16432277783E+03  0.52507276612E+00 -0.30875386886E+01  0.16435262064E+03  0.00000000000E+00 0.  1.
</event>
<event>
 7    1  0.5977291E-006  0.4125055E+02  0.7818608E-02  0.1505275E+00
          2   -1    0    0  502    0  0.00000000000E+00  0.00000000000E+00  0.22570737742E+04  0.22570737742E+04  0.00000000000E+00 0. -1.
          1   -1    0    0  501    0 -0.00000000000E+00 -0.00000000000E+00 -0.43513750918E+03  0.43513750918E+03  0.00000000000E+00 0. -1.
         25    2    1    2    0    0  0.11708765550E+02  0.27396051709E+02 -0.20672415013E+03  0.24340813750E+03  0.12500003326E+03 0.  0.
          2    1    1    2  501    0  0.29552020773E+02 -0.26315629473E+02 -0.20801581721E+03  0.21174610857E+03  0.00000000000E+00 0. -1.
          1    1    1    2  502    0 -0.41260786323E+02 -0.10804222356E+01  0.22366762323E+04  0.22370570373E+04  0.00000000000E+00 0. -1.
         22    1    3    3    0    0  0.44374768277E+02  0.15137804725E+02 -0.16032880956E+02  0.49551250875E+02  0.00000000000E+00 0. -1.
         22    1    3    3    0    0 -0.32666002727E+02  0.12258246983E+02 -0.19069126917E+03  0.19385688662E+03  0.00000000000E+00 0. -1.
</event>
<event>
 7    1  0.5977291E-006  0.4571809E+02  0.7818608E-02  0.1488958E+00
          2   -1    0    0  502    0  0.00000000000E+00  0.00000000000E+00  0.13267277628E+03  0.13267277628E+03  0.00000000000E+00 0. -1.
          1   -1    0    0  501    0 -0.00000000000E+00 -0.00000000000E+00 -0.25023929709E+04  0.25023929709E+04  0.00000000000E+00 0. -1.
         25    2    1    2    0    0  0.51093958824E+02  0.67180504310E+02 -0.22780889094E+03  0.27321613011E+03  0.12500540058E+03 0.  0.
          2    1    1    2  501    0 -0.22307247724E+02 -0.39468600346E+02 -0.22480146370E+04  0.22484717458E+04  0.00000000000E+00 0. -1.
          1    1    1    2  502    0 -0.28786711100E+02 -0.27711903964E+02  0.10610333328E+03  0.11337787126E+03  0.00000000000E+00 0. -1.
         22    1    3    3    0    0 -0.19928442991E+02  0.74088128059E+02 -0.91918914586E+02  0.11973003140E+03  0.00000000000E+00 0.  1.
         22    1    3    3    0    0  0.71022401814E+02 -0.69076237482E+01 -0.13588997636E+03  0.15348609872E+03  0.00000000000E+00 0.  1.
</event>
<event>
 7    1  0.5977291E-006  0.1466024E+03  0.7818608E-02  0.1262269E+00
          2   -1    0    0  502    0  0.00000000000E+00  0.00000000000E+00  0.11585685023E+04  0.11585685023E+04  0.00000000000E+00 0. -1.
          1   -1    0    0  501    0 -0.00000000000E+00 -0.00000000000E+00 -0.54986479528E+03  0.54986479528E+03  0.00000000000E+00 0. -1.
         25    2    1    2    0    0  0.59352761749E+02  0.11305611384E+03  0.17883869110E+03  0.25281272133E+03  0.12500623755E+03 0.  0.
          2    1    1    2  501    0  0.13967546257E+02 -0.14788643180E+03 -0.50031732393E+03  0.52190316505E+03  0.00000000000E+00 0. -1.
          1    1    1    2  502    0 -0.73320308006E+02  0.34830317961E+02  0.93018233986E+03  0.93371741122E+03  0.00000000000E+00 0. -1.
         22    1    3    3    0    0 -0.24134301076E+02  0.88315219956E+02  0.95017803835E+02  0.13194857184E+03  0.00000000000E+00 0.  1.
         22    1    3    3    0    0  0.83487062825E+02  0.24740893883E+02  0.83820887266E+02  0.12086414949E+03  0.00000000000E+00 0.  1.
</event>
<event>
 7    1  0.5977291E-006  0.8205692E+02  0.7818608E-02  0.1473963E+00
          2   -1    0    0  502    0  0.00000000000E+00  0.00000000000E+00  0.16216713251E+04  0.16216713251E+04  0.00000000000E+00 0. -1.
          1   -1    0    0  501    0 -0.00000000000E+00 -0.00000000000E+00 -0.61534507750E+03  0.61534507750E+03  0.00000000000E+00 0. -1.
         25    2    1    2    0    0  0.46490047543E+02  0.92493470303E+02  0.32132268376E+03  0.35998365249E+03  0.12499438545E+03 0.  0.
          2    1    1    2  501    0 -0.45987526744E+02 -0.67754024538E+02 -0.59308164724E+03  0.59870802630E+03  0.00000000000E+00 0. -1.
          1    1    1    2  502    0 -0.50252079966E+00 -0.24739445765E+02  0.12780852111E+04  0.12783247238E+04  0.00000000000E+00 0. -1.
         22    1    3    3    0    0  0.86190016353E+02  0.42454972084E+02  0.22194704285E+03  0.24185043602E+03  0.00000000000E+00 0.  1.
         22    1    3    3    0    0 -0.39699968809E+02  0.50038498219E+02  0.99375640903E+02  0.11813321646E+03  0.00000000000E+00 0.  1.
</event>
<event>
 7    1  0.5977291E-006  0.6922783E+02  0.7818608E-02  0.1414965E+00
          2   -1    0    0  502    0  0.00000000000E+00  0.00000000000E+00  0.16872806947E+04  0.16872806947E+04  0.00000000000E+00 0. -1.
          1   -1    0    0  501    0 -0.00000000000E+00 -0.00000000000E+00 -0.21943709683E+04  0.21943709683E+04  0.00000000000E+00 0. -1.
         25    2    1    2    0    0 -0.80566151704E+02  0.28752903615E+02 -0.79849677777E+02  0.17122809456E+03  0.12500182022E+03 0.  0.
          2    1    1    2  501    0  0.12963888718E+02 -0.43574989776E+02 -0.20678526850E+04  0.20683523802E+04  0.00000000000E+00 0. -1.
          1    1    1    2  502    0  0.67602262986E+02  0.14822086161E+02  0.16406120891E+04  0.16420711882E+04  0.00000000000E+00 0. -1.
         22    1    3    3    0    0 -0.71260090898E+02  0.58988636149E+02 -0.97992231079E+02  0.13475955291E+03  0.00000000000E+00 0. -1.
         22    1    3    3    0    0 -0.93060608054E+01 -0.30235732534E+02  0.18142553301E+02  0.36468541647E+02  0.00000000000E+00 0. -1.
</event>
<event>
 7    1  0.5977291E-006  0.6536023E+02  0.7818608E-02  0.1456036E+00
          2   -1    0    0  502    0  0.00000000000E+00  0.00000000000E+00  0.13614183351E+03  0.13614183351E+03  0.00000000000E+00 0. -1.
          1   -1    0    0  501    0 -0.00000000000E+00 -0.00000000000E+00 -0.42351776208E+03  0.42351776208E+03  0.00000000000E+00 0. -1.
         25    2    1    2    0    0 -0.58614942426E+02 -0.70390278306E+01 -0.84921621793E+02  0.16224147443E+03  0.12500141915E+03 0.  0.
          2    1    1    2  501    0  0.65847863503E+01 -0.34735742058E+02 -0.28730613476E+03  0.28947322200E+03  0.00000000000E+00 0. -1.
          1    1    1    2  502    0  0.52030156076E+02  0.41774769888E+02  0.84851827980E+02  0.10794489915E+03  0.00000000000E+00 0. -1.
         22    1    3    3    0    0  0.56716286085E+01 -0.24454538680E+02 -0.91905719313E+02  0.95272520044E+02  0.00000000000E+00 0. -1.
         22    1    3    3    0    0 -0.64286571035E+02  0.17415510849E+02  0.69840975209E+01  0.66968954387E+02  0.00000000000E+00 0. -1.
</event>
<event>
 7    1  0.7630816E-006  0.5409417E+02  0.7818608E-02  0.1499465E+00
          2   -1    0    0  502    0  0.00000000000E+00  0.00000000000E+00  0.25753338037E+04  0.25753338037E+04  0.00000000000E+00 0. -1.
          1   -1    0    0  501    0 -0.00000000000E+00 -0.00000000000E+00 -0.93127617805E+03  0.93127617805E+03  0.00000000000E+00 0. -1.
         25    2    1    2    0    0 -0.58287432479E+02  0.14310943249E+01 -0.16646755760E+02  0.13893101027E+03  0.12500095328E+03 0.  0.
          2    1    1    2  501    0  0.11786954619E+02 -0.29104004942E+02 -0.85290719949E+03  0.85348501237E+03  0.00000000000E+00 0. -1.
          1    1    1    2  502    0  0.46500477861E+02  0.27672910617E+02  0.25136115809E+04  0.25141939591E+04  0.00000000000E+00 0. -1.
         22    1    3    3    0    0 -0.74627571244E+02  0.25950837945E+02  0.29366522580E+02  0.84291832512E+02  0.00000000000E+00 0.  1.
         22    1    3    3    0    0  0.16340138765E+02 -0.24519743620E+02 -0.46013278340E+02  0.54639177754E+02  0.00000000000E+00 0.  1.
</event>
<event>
 7    1  0.5977291E-006  0.7055353E+02  0.7818608E-02  0.1419755E+00
          2   -1    0    0  502    0  0.00000000000E+00  0.00000000000E+00  0.12366885120E+04  0.12366885120E+04  0.00000000000E+00 0. -1.
          1   -1    0    0  501    0 -0.00000000000E+00 -0.00000000000E+00 -0.21759176942E+02  0.21759176942E+02  0.00000000000E+00 0. -1.
         25    2    1    2    0    0  0.16258744539E+02  0.62386341448E+02  0.71532498441E+03  0.72902074010E+03  0.12500001520E+03 0.  0.
          2    1    1    2  501    0 -0.56154495855E+02 -0.46374699755E+02  0.82227940768E+02  0.10984249826E+03  0.00000000000E+00 0. -1.
          1    1    1    2  502    0  0.39895751316E+02 -0.16011641693E+02  0.41737640990E+03  0.41958445059E+03  0.00000000000E+00 0. -1.
         22    1    3    3    0    0  0.61097069691E+02  0.65079609949E+02  0.36160036307E+03  0.37245540690E+03  0.00000000000E+00 0. -1.
         22    1    3    3    0    0 -0.44838325152E+02 -0.26932685016E+01  0.35372462134E+03  0.35656533320E+03  0.00000000000E+00 0. -1.
</event>
<event>
 7    1  0.5977291E-006  0.5983897E+02  0.7818608E-02  0.1458441E+00
          2   -1    0    0  502    0  0.00000000000E+00  0.00000000000E+00  0.16228701767E+04  0.16228701767E+04  0.00000000000E+00 0. -1.
          1   -1    0    0  501    0 -0.00000000000E+00 -0.00000000000E+00 -0.92607406480E+03  0.92607406480E+03  0.00000000000E+00 0. -1.
         25    2    1    2    0    0 -0.42207918341E+02  0.38688526007E+02  0.41445875396E+03  0.43666834308E+03  0.12499949078E+03 0.  0.
          2    1    1    2  501    0 -0.18334638238E+02 -0.33221410192E+02 -0.91380369334E+03  0.91459117151E+03  0.00000000000E+00 0. -1.
          1    1    1    2  502    0  0.60542556579E+02 -0.54671158150E+01  0.11961410513E+04  0.11976847269E+04  0.00000000000E+00 0. -1.
         22    1    3    3    0    0 -0.81099563162E+02  0.93235364135E+00  0.28510830685E+03  0.29641989654E+03  0.00000000000E+00 0. -1.
         22    1    3    3    0    0  0.38891644821E+02  0.37756172366E+02  0.12935044711E+03  0.14024844654E+03  0.00000000000E+00 0. -1.
</event>
<event>
 7    1  0.5977291E-006  0.5136584E+02  0.7818608E-02  0.1535802E+00
          2   -1    0    0  502    0  0.00000000000E+00  0.00000000000E+00  0.11894351259E+04  0.11894351259E+04  0.00000000000E+00 0. -1.
          1   -1    0    0  501    0 -0.00000000000E+00 -0.00000000000E+00 -0.59087044474E+03  0.59087044474E+03  0.00000000000E+00 0. -1.
         25    2    1    2    0    0  0.32613308264E+02 -0.10952526628E+02  0.36672438935E+03  0.38896758473E+03  0.12500167404E+03 0.  0.
          2    1    1    2  501    0 -0.36097317909E+02  0.36631245987E+02 -0.57840076845E+03  0.58068262716E+03  0.00000000000E+00 0. -1.
          1    1    1    2  502    0  0.34840096452E+01 -0.25678719358E+02  0.81024106027E+03  0.81065535876E+03  0.00000000000E+00 0. -1.
         22    1    3    3    0    0 -0.94356660968E+00  0.36044243221E+02  0.28806022906E+02  0.46150457668E+02  0.00000000000E+00 0. -1.
         22    1    3    3    0    0  0.33556874874E+02 -0.46996769849E+02  0.33791836644E+03  0.34281712706E+03  0.00000000000E+00 0. -1.
</event>
<event>
 7    1  0.5977291E-006  0.1148885E+03  0.7818608E-02  0.1284097E+00
          2   -1    0    0  502    0  0.00000000000E+00  0.00000000000E+00  0.49370824176E+03  0.49370824176E+03  0.00000000000E+00 0. -1.
          1   -1    0    0  501    0 -0.00000000000E+00 -0.00000000000E+00 -0.42448396462E+03  0.42448396462E+03  0.00000000000E+00 0. -1.
         25    2    1    2    0    0 -0.42158716528E+02 -0.16245490861E+02 -0.91652812734E+02  0.16147211324E+03  0.12502692478E+03 0.  0.
          2    1    1    2  501    0 -0.31994357661E+02 -0.77625020884E+02 -0.28394253999E+03  0.29609567509E+03  0.00000000000E+00 0. -1.
          1    1    1    2  502    0  0.74153074189E+02  0.93870511745E+02  0.44481962987E+03  0.46062441805E+03  0.00000000000E+00 0. -1.
         22    1    3    3    0    0  0.24079077116E+02  0.36764821843E+02 -0.51223684985E+02  0.67493110636E+02  0.00000000000E+00 0. -1.
         22    1    3    3    0    0 -0.66237793644E+02 -0.53010312704E+02 -0.40429127749E+02  0.93979002604E+02  0.00000000000E+00 0. -1.
</event>
<event>
 7    1  0.5977291E-006  0.5324566E+02  0.7818608E-02  0.1491401E+00
          2   -1    0    0  502    0  0.00000000000E+00  0.00000000000E+00  0.11169353619E+04  0.11169353619E+04  0.00000000000E+00 0. -1.
          1   -1    0    0  501    0 -0.00000000000E+00 -0.00000000000E+00 -0.11706326508E+03  0.11706326508E+03  0.00000000000E+00 0. -1.
         25    2    1    2    0    0 -0.28930819937E+02 -0.76976518061E+01  0.95666069365E+02  0.16023024421E+03  0.12500195257E+03 0.  0.
          2    1    1    2  501    0  0.37770924616E+02  0.40248463138E+02 -0.75476417843E+02  0.93505460705E+02  0.00000000000E+00 0. -1.
          1    1    1    2  502    0 -0.88401046795E+01 -0.32550811332E+02  0.97968244526E+03  0.98026292204E+03  0.00000000000E+00 0. -1.
         22    1    3    3    0    0  0.11436154334E+02 -0.52757226838E+02  0.92906889992E+01  0.54776158241E+02  0.00000000000E+00 0. -1.
         22    1    3    3    0    0 -0.40366974271E+02  0.45059575032E+02  0.86375380365E+02  0.10545408597E+03  0.00000000000E+00 0. -1.
</event>
<event>
 7    1  0.5977291E-006  0.1044327E+03  0.7818608E-02  0.1401047E+00
          2   -1    0    0  502    0  0.00000000000E+00  0.00000000000E+00  0.46128978865E+03  0.46128978865E+03  0.00000000000E+00 0. -1.
          1   -1    0    0  501    0 -0.00000000000E+00 -0.00000000000E+00 -0.35061901976E+03  0.35061901976E+03  0.00000000000E+00 0. -1.
         25    2    1    2    0    0 -0.80024504262E+02 -0.21741575979E+02  0.17728583667E+03  0.23223363192E+03  0.12500229799E+03 0.  0.
          2    1    1    2  501    0  0.10545972225E+03 -0.22044596091E+00 -0.31337148198E+03  0.33064102488E+03  0.00000000000E+00 0. -1.
          1    1    1    2  502    0 -0.25435217987E+02  0.21962021940E+02  0.24675641420E+03  0.24903415161E+03  0.00000000000E+00 0. -1.
         22    1    3    3    0    0  0.59945535173E+01 -0.40708009006E+02  0.12074474840E+03  0.12756320369E+03  0.00000000000E+00 0. -1.
         22    1    3    3    0    0 -0.86019057779E+02  0.18966433028E+02  0.56541088268E+02  0.10467042823E+03  0.00000000000E+00 0. -1.
</event>
<event>
 7    1  0.5977291E-006  0.8875270E+02  0.7818608E-02  0.1315933E+00
          2   -1    0    0  502    0  0.00000000000E+00  0.00000000000E+00  0.82881149824E+03  0.82881149824E+03  0.00000000000E+00 0. -1.
          1   -1    0    0  501    0 -0.00000000000E+00 -0.00000000000E+00 -0.44961683020E+03  0.44961683020E+03  0.00000000000E+00 0. -1.
         25    2    1    2    0    0  0.17520549718E+02 -0.64508799194E+02  0.13532582319E+02  0.14240353370E+03  0.12500912283E+03 0.  0.
          2    1    1    2  501    0 -0.81036584842E+02 -0.76863710414E+00 -0.37810985210E+03  0.38669701206E+03  0.00000000000E+00 0. -1.
          1    1    1    2  502    0  0.63516035124E+02  0.65277436298E+02  0.74377193782E+03  0.74932778268E+03  0.00000000000E+00 0. -1.
         22    1    3    3    0    0  0.25637659304E+02 -0.87154898247E+02 -0.27430814601E+02  0.94898448104E+02  0.00000000000E+00 0. -1.
         22    1    3    3    0    0 -0.81171095859E+01  0.22646099053E+02  0.40963396919E+02  0.47505085596E+02  0.00000000000E+00 0. -1.
</event>
<event>
 7    1  0.5977291E-006  0.3571235E+02  0.7818608E-02  0.1613833E+00
          2   -1    0    0  502    0  0.00000000000E+00  0.00000000000E+00  0.44229713998E+03  0.44229713998E+03  0.00000000000E+00 0. -1.
          1   -1    0    0  501    0 -0.00000000000E+00 -0.00000000000E+00 -0.70806193074E+02  0.70806193074E+02  0.00000000000E+00 0. -1.
         25    2    1    2    0    0 -0.24994063443E+02  0.31942520777E+02  0.11636266153E+03  0.17552766914E+03  0.12499866316E+03 0.  0.
          2    1    1    2  501    0  0.22629564989E+02  0.37628210764E+01 -0.36853089870E+02  0.43409748525E+02  0.00000000000E+00 0. -1.
          1    1    1    2  502    0  0.23644984539E+01 -0.35705341854E+02  0.29198137524E+03  0.29416591539E+03  0.00000000000E+00 0. -1.
         22    1    3    3    0    0 -0.23371302678E+02  0.56030020470E+02  0.42637271854E+01  0.60858527359E+02  0.00000000000E+00 0.  1.
         22    1    3    3    0    0 -0.16227607647E+01 -0.24087499693E+02  0.11209893435E+03  0.11466914178E+03  0.00000000000E+00 0.  1.
</event>
<event>
 7    1  0.5977291E-006  0.8063234E+02  0.7818608E-02  0.1349802E+00
          2   -1    0    0  502    0  0.00000000000E+00  0.00000000000E+00  0.74355431469E+03  0.74355431469E+03  0.00000000000E+00 0. -1.
          1   -1    0    0  501    0 -0.00000000000E+00 -0.00000000000E+00 -0.12878600407E+03  0.12878600407E+03  0.00000000000E+00 0. -1.
         25    2    1    2    0    0 -0.94306633017E+02  0.24706030268E+02  0.35345614226E+02  0.16240968057E+03  0.12499385159E+03 0.  0.
          2    1    1    2  501    0  0.72113358577E+02  0.37772213369E+02 -0.37377091295E+02  0.89577472290E+02  0.00000000000E+00 0. -1.
          1    1    1    2  502    0  0.22193274440E+02 -0.62478243637E+02  0.61679978769E+03  0.62035316591E+03  0.00000000000E+00 0. -1.
         22    1    3    3    0    0 -0.45340320032E+02  0.30920731383E+02 -0.43062981617E+02  0.69758559587E+02  0.00000000000E+00 0. -1.
         22    1    3    3    0    0 -0.48966312986E+02 -0.62147011154E+01  0.78408595843E+02  0.92651120984E+02  0.00000000000E+00 0. -1.
</event>
<event>
 7    1  0.5977291E-006  0.4710499E+02  0.7818608E-02  0.1525093E+00
          2   -1    0    0  502    0  0.00000000000E+00  0.00000000000E+00  0.70307645887E+03  0.70307645887E+03  0.00000000000E+00 0. -1.
          1   -1    0    0  501    0 -0.00000000000E+00 -0.00000000000E+00 -0.73588833572E+03  0.73588833572E+03  0.00000000000E+00 0. -1.
         25    2    1    2    0    0  0.34880319614E+02  0.68243289875E+02 -0.11874895198E+03  0.18868377088E+03  0.12500587381E+03 0.  0.
          2    1    1    2  501    0 -0.21648110838E+02 -0.40957084233E+02 -0.58090523472E+03  0.58274953040E+03  0.00000000000E+00 0. -1.
          1    1    1    2  502    0 -0.13232208776E+02 -0.27286205642E+02  0.66684230985E+03  0.66753149332E+03  0.00000000000E+00 0. -1.
         22    1    3    3    0    0  0.68838511159E+02  0.12855078377E+02 -0.98063734821E+02  0.12050099479E+03  0.00000000000E+00 0.  1.
         22    1    3    3    0    0 -0.33958191545E+02  0.55388211498E+02 -0.20685217158E+02  0.68182776086E+02  0.00000000000E+00 0.  1.
</event>
<event>
 7    1  0.5977291E-006  0.7932597E+02  0.7818608E-02  0.1355115E+00
          2   -1    0    0  502    0  0.00000000000E+00  0.00000000000E+00  0.22067531744E+04  0.22067531744E+04  0.00000000000E+00 0. -1.
          1   -1    0    0  501    0 -0.00000000000E+00 -0.00000000000E+00 -0.20645829724E+03  0.20645829724E+03  0.00000000000E+00 0. -1.
         25    2    1    2    0    0 -0.77478739870E+02 -0.11894140332E+03  0.56664213882E+03  0.59737592768E+03  0.12499869170E+03 0.  0.
          2    1    1    2  501    0  0.35795979781E+02  0.69825933113E+02 -0.18236747759E+03  0.19853188657E+03  0.00000000000E+00 0. -1.
          1    1    1    2  502    0  0.41682760089E+02  0.49115470204E+02  0.16160202160E+04  0.16173036574E+04  0.00000000000E+00 0. -1.
         22    1    3    3    0    0 -0.10337983371E+03 -0.85890259171E+02  0.31836935757E+03  0.34557716139E+03  0.00000000000E+00 0. -1.
         22    1    3    3    0    0  0.25901093842E+02 -0.33051144145E+02  0.24827278125E+03  0.25179876628E+03  0.00000000000E+00 0. -1.
</event>
<event>
 7    1  0.5977291E-006  0.4592920E+02  0.7818608E-02  0.1554732E+00
          2   -1    0    0  502    0  0.00000000000E+00  0.00000000000E+00  0.45149187328E+03  0.45149187328E+03  0.00000000000E+00 0. -1.
          1   -1    0    0  501    0 -0.00000000000E+00 -0.00000000000E+00 -0.33527352025E+02  0.33527352025E+02  0.00000000000E+00 0. -1.
         25    2    1    2    0    0  0.72126077324E+01 -0.23711537146E+02  0.21560538591E+03  0.25044640429E+03  0.12499384099E+03 0.  0.
          2    1    1    2  501    0 -0.59270273045E+01  0.49323088259E+02  0.25455243786E+02  0.55819943786E+02  0.00000000000E+00 0. -1.
          1    1    1    2  502    0 -0.12855804278E+01 -0.25611551113E+02  0.17690389156E+03  0.17875287723E+03  0.00000000000E+00 0. -1.
         22    1    3    3    0    0 -0.50083661949E+01 -0.45896543691E+02  0.15436218610E+02  0.48681139055E+02  0.00000000000E+00 0. -1.
         22    1    3    3    0    0  0.12220973927E+02  0.22185006545E+02  0.20016916730E+03  0.20176526524E+03  0.00000000000E+00 0. -1.
</event>
<event>
 7    1  0.5977291E-006  0.1243865E+03  0.7818608E-02  0.1290239E+00
          2   -1    0    0  502    0  0.00000000000E+00  0.00000000000E+00  0.20040263003E+04  0.20040263003E+04  0.00000000000E+00 0. -1.
          1   -1    0    0  501    0 -0.00000000000E+00 -0.00000000000E+00 -0.63980968814E+03  0.63980968814E+03  0.00000000000E+00 0. -1.
         25    2    1    2    0    0 -0.11448269828E+03  0.22928763609E+02  0.24931823854E+03  0.30235130240E+03  0.12499883837E+03 0.  0.
          2    1    1    2  501    0  0.26439319213E+02  0.68252790369E+02 -0.60877392335E+03  0.61315835699E+03  0.00000000000E+00 0. -1.
          1    1    1    2  502    0  0.88043379065E+02 -0.91181553978E+02  0.17236722970E+04  0.17283263291E+04  0.00000000000E+00 0. -1.
         22    1    3    3    0    0 -0.29210744545E+02  0.61799554233E+02  0.59350256935E+02  0.90525717332E+02  0.00000000000E+00 0. -1.
         22    1    3    3    0    0 -0.85271953733E+02 -0.38870790624E+02  0.18996798160E+03  0.21182558507E+03  0.00000000000E+00 0. -1.
</event>
<event>
 7    1  0.5977291E-006  0.1047594E+03  0.7818608E-02  0.1291124E+00
          2   -1    0    0  502    0  0.00000000000E+00  0.00000000000E+00  0.28539383142E+02  0.28539383142E+02  0.00000000000E+00 0. -1.
          1   -1    0    0  501    0 -0.00000000000E+00 -0.00000000000E+00 -0.12252480468E+04  0.12252480468E+04  0.00000000000E+00 0. -1.
         25    2    1    2    0    0 -0.14254002354E+03  0.21515357715E+01 -0.72274979438E+03  0.74720448651E+03  0.12499996785E+03 0.  0.
          2    1    1    2  501    0  0.74893384702E+02  0.51261596098E+02 -0.27984006618E+03  0.29418911086E+03  0.00000000000E+00 0. -1.
          1    1    1    2  502    0  0.67646638842E+02 -0.53413131869E+02 -0.19411880314E+03  0.21239383262E+03  0.00000000000E+00 0. -1.
         22    1    3    3    0    0  0.11471936882E+02 -0.26631368817E+02 -0.67162075551E+02  0.73154490862E+02  0.00000000000E+00 0.  1.
         22    1    3    3    0    0 -0.15401196043E+03  0.28782904589E+02 -0.65558771883E+03  0.67404999565E+03  0.00000000000E+00 0.  1.
</event>
<event>
 7    1  0.5977291E-006  0.4121357E+03  0.7818608E-02  0.1082055E+00
          2   -1    0    0  502    0  0.00000000000E+00  0.00000000000E+00  0.95739747397E+03  0.95739747397E+03  0.00000000000E+00 0. -1.
          1   -1    0    0  501    0 -0.00000000000E+00 -0.00000000000E+00 -0.41755703499E+04  0.41755703499E+04  0.00000000000E+00 0. -1.
         25    2    1    2    0    0 -0.15769771256E+03 -0.38966730770E+03 -0.78946501002E+03  0.90310052385E+03  0.12500549946E+03 0.  0.
          2    1    1    2  501    0  0.33895335180E+03  0.25155160619E+03 -0.33012157605E+04  0.33280915075E+04  0.00000000000E+00 0. -1.
          1    1    1    2  502    0 -0.18125563924E+03  0.13811570151E+03  0.87250789459E+03  0.90177579247E+03  0.00000000000E+00 0. -1.
         22    1    3    3    0    0  0.29972401720E+01 -0.14649040934E+03 -0.24281872912E+03  0.28360070291E+03  0.00000000000E+00 0.  1.
         22    1    3    3    0    0 -0.16069495273E+03 -0.24317689836E+03 -0.54664628090E+03  0.61949982095E+03  0.00000000000E+00 0.  1.
</event>
<event>
 7    1  0.5977291E-006  0.2977150E+03  0.7818608E-02  0.1303523E+00
          2   -1    0    0  502    0  0.00000000000E+00  0.00000000000E+00  0.11226523438E+04  0.11226523438E+04  0.00000000000E+00 0. -1.
          1   -1    0    0  501    0 -0.00000000000E+00 -0.00000000000E+00 -0.25268961842E+04  0.25268961842E+04  0.00000000000E+00 0. -1.
         25    2    1    2    0    0 -0.25062587862E+03 -0.10835482449E+03  0.23973450993E+03  0.38426125012E+03  0.12501989467E+03 0.  0.
          2    1    1    2  501    0  0.27764422947E+03  0.10944393304E+03 -0.24453328891E+04  0.24634766553E+04  0.00000000000E+00 0. -1.
          1    1    1    2  502    0 -0.27018350851E+02 -0.10891085572E+01  0.80135453887E+03  0.80181062253E+03  0.00000000000E+00 0. -1.
         22    1    3    3    0    0 -0.57899879369E+02 -0.76484018052E+02  0.37242964114E+02  0.10290403017E+03  0.00000000000E+00 0.  1.
         22    1    3    3    0    0 -0.19272599925E+03 -0.31870806434E+02  0.20249154582E+03  0.28135721995E+03  0.00000000000E+00 0.  1.
</event>
<event>
 7    1  0.5977291E-006  0.3136542E+02  0.7818608E-02  0.1585920E+00
          2   -1    0    0  502    0  0.00000000000E+00  0.00000000000E+00  0.41568271547E+03  0.41568271547E+03  0.00000000000E+00 0. -1.
          1   -1    0    0  501    0 -0.00000000000E+00 -0.00000000000E+00 -0.19964176058E+03  0.19964176058E+03  0.00000000000E+00 0. -1.
         25    2    1    2    0    0 -0.13657054264E+02  0.27718291838E+02  0.95657031387E-01  0.12876128876E+03  0.12499856599E+03 0.  0.
          2    1    1    2  501    0  0.30870006214E+02 -0.12935646152E+01 -0.13282437474E+03  0.13637061677E+03  0.00000000000E+00 0. -1.
          1    1    1    2  502    0 -0.17212951951E+02 -0.26424727222E+02  0.34876967259E+03  0.35019257052E+03  0.00000000000E+00 0. -1.
         22    1    3    3    0    0 -0.15442449586E+02  0.56740173846E+00 -0.60443995042E+02  0.62388041567E+02  0.00000000000E+00 0.  1.
         22    1    3    3    0    0  0.17853953223E+01  0.27150890099E+02  0.60539652074E+02  0.66373247192E+02  0.00000000000E+00 0.  1.
</event>
<event>
 7    1  0.5977291E-006  0.1613154E+03  0.7818608E-02  0.1375534E+00
          2   -1    0    0  502    0  0.00000000000E+00  0.00000000000E+00  0.11564138612E+04  0.11564138612E+04  0.00000000000E+00 0. -1.
          1   -1    0    0  501    0 -0.00000000000E+00 -0.00000000000E+00 -0.98787532843E+03  0.98787532843E+03  0.00000000000E+00 0. -1.
         25    2    1    2    0    0 -0.67035970514E+02 -0.17185664417E+03  0.38803416765E+02  0.22618364802E+03  0.12499923996E+03 0.  0.
          2    1    1    2  501    0  0.18271445433E+00  0.26718804636E+02 -0.88774852673E+03  0.88815053602E+03  0.00000000000E+00 0. -1.
          1    1    1    2  502    0  0.66853256060E+02  0.14513783954E+03  0.10174836427E+04  0.10299550056E+04  0.00000000000E+00 0. -1.
         22    1    3    3    0    0 -0.30417254142E+02  0.13877914561E+02  0.35802615319E+01  0.33624754791E+02  0.00000000000E+00 0.  1.
         22    1    3    3    0    0 -0.36618716372E+02 -0.18573455873E+03  0.35223155233E+02  0.19255889323E+03  0.00000000000E+00 0.  1.
</event>
<event>
 7    1  0.5977291E-006  0.3870608E+02  0.7818608E-02  0.1570176E+00
          2   -1    0    0  502    0  0.00000000000E+00  0.00000000000E+00  0.38490040033E+03  0.38490040033E+03  0.00000000000E+00 0. -1.
          1   -1    0    0  501    0 -0.00000000000E+00 -0.00000000000E+00 -0.12627296234E+04  0.12627296234E+04  0.00000000000E+00 0. -1.
         25    2    1    2    0    0 -0.19422042588E+02  0.61515062799E+02 -0.14851840093E+03  0.20456035712E+03  0.12500362235E+03 0.  0.
          2    1    1    2  501    0  0.48030150288E+01 -0.38104241181E+02 -0.10853164377E+04  0.10859957514E+04  0.00000000000E+00 0. -1.
          1    1    1    2  502    0  0.14619027559E+02 -0.23410821618E+02  0.35600561561E+03  0.35707391515E+03  0.00000000000E+00 0. -1.
         22    1    3    3    0    0  0.67515875948E+01  0.46356546667E+01 -0.14129545820E+03  0.14153261015E+03  0.00000000000E+00 0.  1.
         22    1    3    3    0    0 -0.26173630183E+02  0.56879408132E+02 -0.72229427330E+01  0.63027746970E+02  0.00000000000E+00 0.  1.
</event>
<event>
 7    1  0.5977291E-006  0.6487616E+02  0.7818608E-02  0.1390942E+00
          2   -1    0    0  502    0  0.00000000000E+00  0.00000000000E+00  0.41784227164E+03  0.41784227164E+03  0.00000000000E+00 0. -1.
          1   -1    0    0  501    0 -0.00000000000E+00 -0.00000000000E+00 -0.44754039383E+03  0.44754039383E+03  0.00000000000E+00 0. -1.
         25    2    1    2    0    0  0.55257947406E+01  0.46320559789E+01  0.18147301850E+03  0.22047414975E+03  0.12499761563E+03 0.  0.
          2    1    1    2  501    0 -0.58854274328E+02 -0.28990373452E+02 -0.42149283431E+03  0.42656825565E+03  0.00000000000E+00 0. -1.
          1    1    1    2  502    0  0.53328479588E+02  0.24358317473E+02  0.21032169361E+03  0.21834026008E+03  0.00000000000E+00 0. -1.
         22    1    3    3    0    0 -0.24422166494E+01  0.61165485452E+02  0.57491144110E+02  0.83978644213E+02  0.00000000000E+00 0.  1.
         22    1    3    3    0    0  0.79680113900E+01 -0.56533429473E+02  0.12398187439E+03  0.13649550553E+03  0.00000000000E+00 0.  1.
</event>
<event>
 7    1  0.5977291E-006  0.1255197E+03  0.7818608E-02  0.1264507E+00
          2   -1    0    0  502    0  0.00000000000E+00  0.00000000000E+00  0.29529410017E+04  0.29529410017E+04  0.00000000000E+00 0. -1.
          1   -1    0    0  501    0 -0.00000000000E+00 -0.00000000000E+00 -0.45456636584E+02  0.45456636584E+02  0.00000000000E+00 0. -1.
         25    2    1    2    0    0 -0.17633508285E+03 -0.85928695057E+02  0.16758392922E+04  0.16919040385E+04  0.12499656079E+03 0.  0.
          2    1    1    2  501    0  0.88747441896E+02  0.26969763562E+02  0.26132062504E+02  0.96365768198E+02  0.00000000000E+00 0. -1.
          1    1    1    2  502    0  0.87587640951E+02  0.58958931494E+02  0.12055130104E+04  0.12101278316E+04  0.00000000000E+00 0. -1.
         22    1    3    3    0    0 -0.20268522860E+02  0.23966139135E+02  0.47040992919E+03  0.47145592617E+03  0.00000000000E+00 0. -1.
         22    1    3    3    0    0 -0.15606655999E+03 -0.10989483419E+03  0.12054293630E+04  0.12204481124E+04  0.00000000000E+00 0. -1.
</event>
<event>
 7    1  0.5977291E-006  0.7633756E+02  0.7818608E-02  0.1341789E+00
          2   -1    0    0  502    0  0.00000000000E+00  0.00000000000E+00  0.80525382073E+03  0.80525382073E+03  0.00000000000E+00 0. -1.
          1   -1    0    0  501    0 -0.00000000000E+00 -0.00000000000E+00 -0.76646143480E+02  0.76646143480E+02  0.00000000000E+00 0. -1.
         25    2    1    2    0    0 -0.17654829087E+02 -0.90457881265E+02  0.56043644100E+03  0.58155641334E+03  0.12499814485E+03 0.  0.
          2    1    1    2  501    0 -0.50226859344E+02  0.58516689947E+02 -0.34314939097E+02  0.84406489367E+02  0.00000000000E+00 0. -1.
          1    1    1    2  502    0  0.67881688431E+02  0.31941191318E+02  0.20248617535E+03  0.21593706151E+03  0.00000000000E+00 0. -1.
         22    1    3    3    0    0  0.45789064030E+02 -0.31692248665E+02  0.34408081611E+03  0.34855795074E+03  0.00000000000E+00 0.  1.
         22    1    3    3    0    0 -0.63443893117E+02 -0.58765632600E+02  0.21635562490E+03  0.23299846260E+03  0.00000000000E+00 0.  1.
</event>
<event>
 7    1  0.5977291E-006  0.1654098E+03  0.7818608E-02  0.1304602E+00
          2   -1    0    0  502    0  0.00000000000E+00  0.00000000000E+00  0.14734994904E+03  0.14734994904E+03  0.00000000000E+00 0. -1.
          1   -1    0    0  501    0 -0.00000000000E+00 -0.00000000000E+00 -0.58318649201E+03  0.58318649201E+03  0.00000000000E+00 0. -1.
         25    2    1    2    0    0 -0.12680130329E+03  0.11798759269E+03 -0.29216666420E+02  0.21558840013E+03  0.12500040851E+03 0.  0.
          2    1    1    2  501    0  0.43915416526E+02  0.19841952591E+02 -0.33575509445E+03  0.33919574045E+03  0.00000000000E+00 0. -1.
          1    1    1    2  502    0  0.82885886767E+02 -0.13782954528E+03 -0.70864782108E+02  0.17575230047E+03  0.00000000000E+00 0. -1.
         22    1    3    3    0    0 -0.94833114140E+02  0.60742398717E+02  0.40691085076E+02  0.11974440673E+03  0.00000000000E+00 0.  1.
         22    1    3    3    0    0 -0.31968189153E+02  0.57245193973E+02 -0.69907751496E+02  0.95843993395E+02  0.00000000000E+00 0.  1.
</event>
<event>
 7    1  0.5977291E-006  0.9281844E+02  0.7818608E-02  0.1412494E+00
          2   -1    0    0  502    0  0.00000000000E+00  0.00000000000E+00  0.83153916995E+03  0.83153916995E+03  0.00000000000E+00 0. -1.
          1   -1    0    0  501    0 -0.00000000000E+00 -0.00000000000E+00 -0.10660163771E+04  0.10660163771E+04  0.00000000000E+00 0. -1.
         25    2    1    2    0    0  0.79901159531E+01  0.61954081762E+02  0.96213072263E+02  0.16966366954E+03  0.12500662097E+03 0.  0.
          2    1    1    2  501    0 -0.80659817259E+01  0.33610093884E+02 -0.10257304705E+04  0.10263126699E+04  0.00000000000E+00 0. -1.
          1    1    1    2  502    0  0.75865772873E-01 -0.95564175646E+02  0.69504019101E+03  0.70157920760E+03  0.00000000000E+00 0. -1.
         22    1    3    3    0    0  0.92805041665E+01 -0.19823090330E+01 -0.28212821987E+02  0.29766098688E+02  0.00000000000E+00 0. -1.
         22    1    3    3    0    0 -0.12903882134E+01  0.63936390795E+02  0.12442589425E+03  0.13989757085E+03  0.00000000000E+00 0. -1.
</event>
<event>
 7    1  0.5977291E-006  0.7643477E+02  0.7818608E-02  0.1504602E+00
          2   -1    0    0  502    0  0.00000000000E+00  0.00000000000E+00  0.12120948392E+04  0.12120948392E+04  0.00000000000E+00 0. -1.
          1   -1    0    0  501    0 -0.00000000000E+00 -0.00000000000E+00 -0.41428381857E+03  0.41428381857E+03  0.00000000000E+00 0. -1.
         25    2    1    2    0    0 -0.40977149302E+02  0.64653053317E+02 -0.55577705263E+02  0.15675972300E+03  0.12500234143E+03 0.  0.
          2    1    1    2  501    0  0.19583081153E+02  0.87619482617E+01 -0.30648111182E+03  0.30723108682E+03  0.00000000000E+00 0. -1.
          1    1    1    2  502    0  0.21394068149E+02 -0.73415001579E+02  0.11598698377E+04  0.11623878479E+04  0.00000000000E+00 0. -1.
         22    1    3    3    0    0 -0.53532012935E+02  0.68905482186E+02 -0.86654402354E+02  0.12297409211E+03  0.00000000000E+00 0.  1.
         22    1    3    3    0    0  0.12554863633E+02 -0.42524288684E+01  0.31076697091E+02  0.33785630884E+02  0.00000000000E+00 0.  1.
</event>
<event>
 7    1  0.5977291E-006  0.1053130E+03  0.7818608E-02  0.1270176E+00
          2   -1    0    0  502    0  0.00000000000E+00  0.00000000000E+00  0.71158215103E+03  0.71158215103E+03  0.00000000000E+00 0. -1.
          1   -1    0    0  501    0 -0.00000000000E+00 -0.00000000000E+00 -0.24157662178E+03  0.24157662178E+03  0.00000000000E+00 0. -1.
         25    2    1    2    0    0  0.38116631249E+01  0.50390542606E+02  0.23152609738E+03  0.26792276575E+03  0.12499815632E+03 0.  0.
          2    1    1    2  501    0 -0.70342118121E+02  0.77457464164E+02 -0.19888977503E+03  0.22473276340E+03  0.00000000000E+00 0. -1.
          1    1    1    2  502    0  0.66530454996E+02 -0.12784800677E+03  0.43736920690E+03  0.46050324366E+03  0.00000000000E+00 0. -1.
         22    1    3    3    0    0 -0.45001115711E+02  0.59858249875E+02  0.18598767860E+03  0.20049819721E+03  0.00000000000E+00 0. -1.
         22    1    3    3    0    0  0.48812778836E+02 -0.94677072683E+01  0.45538418775E+02  0.67424568543E+02  0.00000000000E+00 0. -1.
</event>
<event>
 7    1  0.5977291E-006  0.6682703E+02  0.7818608E-02  0.1390489E+00
          2   -1    0    0  502    0  0.00000000000E+00  0.00000000000E+00  0.10895686087E+04  0.10895686087E+04  0.00000000000E+00 0. -1.
          1   -1    0    0  501    0 -0.00000000000E+00 -0.00000000000E+00 -0.96902933501E+02  0.96902933501E+02  0.00000000000E+00 0. -1.
         25    2    1    2    0    0  0.11008228225E+03 -0.79848210571E+01  0.29194642725E+03  0.33621095455E+03  0.12499289316E+03 0.  0.
          2    1    1    2  501    0 -0.49046026129E+02  0.29285177048E+02 -0.62290188631E+02  0.84517464903E+02  0.00000000000E+00 0. -1.
          1    1    1    2  502    0 -0.61036256124E+02 -0.21300355991E+02  0.76300943659E+03  0.76574312276E+03  0.00000000000E+00 0. -1.
         22    1    3    3    0    0  0.11857510222E+03  0.28936755650E+02  0.17560472000E+03  0.21385604593E+03  0.00000000000E+00 0. -1.
         22    1    3    3    0    0 -0.84928199682E+01 -0.36921576707E+02  0.11634170724E+03  0.12235490861E+03  0.00000000000E+00 0. -1.
</event>
<event>
 7    1  0.5977291E-006  0.2989779E+02  0.7818608E-02  0.1616698E+00
          2   -1    0    0  502    0  0.00000000000E+00  0.00000000000E+00  0.55628336774E+02  0.55628336774E+02  0.00000000000E+00 0. -1.
          1   -1    0    0  501    0 -0.00000000000E+00 -0.00000000000E+00 -0.24409711560E+04  0.24409711560E+04  0.00000000000E+00 0. -1.
         25    2    1    2    0    0  0.45074476270E+02  0.32646161509E+02 -0.13512684458E+04  0.13581784728E+04  0.12499948400E+03 0.  0.
          2    1    1    2  501    0 -0.18081495844E+02 -0.19973876037E+02 -0.10818053942E+04  0.10821408444E+04  0.00000000000E+00 0. -1.
          1    1    1    2  502    0 -0.26992980425E+02 -0.12672285471E+02  0.47731020822E+02  0.56280175551E+02  0.00000000000E+00 0. -1.
         22    1    3    3    0    0  0.60926846146E+02 -0.29124611986E+02 -0.50245289504E+03  0.50697064544E+03  0.00000000000E+00 0.  1.
         22    1    3    3    0    0 -0.15852369877E+02  0.61770773494E+02 -0.84881555080E+03  0.85120782737E+03  0.00000000000E+00 0.  1.
</event>
<event>
 7    1  0.5977291E-006  0.1242700E+03  0.7818608E-02  0.1337116E+00
          2   -1    0    0  502    0  0.00000000000E+00  0.00000000000E+00  0.28986076774E+03  0.28986076774E+03  0.00000000000E+00 0. -1.
          1   -1    0    0  501    0 -0.00000000000E+00 -0.00000000000E+00 -0.30177577061E+04  0.30177577061E+04  0.00000000000E+00 0. -1.
         25    2    1    2    0    0 -0.42778432918E+02  0.65231924374E+02  0.60828986580E+02  0.15940456553E+03  0.12499780647E+03 0.  0.
          2    1    1    2  501    0  0.56935420461E+02 -0.11108633207E+03 -0.29639293957E+04  0.29665568051E+04  0.00000000000E+00 0. -1.
          1    1    1    2  502    0 -0.14156987544E+02  0.45854407692E+02  0.17520347072E+03  0.18165710323E+03  0.00000000000E+00 0. -1.
         22    1    3    3    0    0 -0.15007158292E+02 -0.33419120922E+02  0.41064997061E+02  0.55030777087E+02  0.00000000000E+00 0. -1.
         22    1    3    3    0    0 -0.27771274625E+02  0.98651045295E+02  0.19763989519E+02  0.10437378844E+03  0.00000000000E+00 0. -1.
</event>
<event>
 7    1  0.5977291E-006  0.1170954E+03  0.7818608E-02  0.1346630E+00
          2   -1    0    0  502    0  0.00000000000E+00  0.00000000000E+00  0.31848854226E+04  0.31848854226E+04  0.00000000000E+00 0. -1.
          1   -1    0    0  501    0 -0.00000000000E+00 -0.00000000000E+00 -0.15652292798E+03  0.15652292798E+03  0.00000000000E+00 0. -1.
         25    2    1    2    0    0 -0.80119637610E+02 -0.11311969923E+03  0.12045434906E+04  0.12189200634E+04  0.12500351022E+03 0.  0.
          2    1    1    2  501    0  0.33220802864E+02  0.11200235258E+03 -0.12616102451E+03  0.17194403983E+03  0.00000000000E+00 0. -1.
          1    1    1    2  502    0  0.46898834747E+02  0.11173466529E+01  0.19499800285E+04  0.19505442473E+04  0.00000000000E+00 0. -1.
         22    1    3    3    0    0 -0.21109629953E+02 -0.38336675156E+02  0.87621450042E+02  0.97943022448E+02  0.00000000000E+00 0.  1.
         22    1    3    3    0    0 -0.59010007657E+02 -0.74783024076E+02  0.11169220406E+04  0.11209770410E+04  0.00000000000E+00 0.  1.
</event>
<event>
 7    1  0.5977291E-006  0.7828410E+02  0.7818608E-02  0.1368835E+00
          2   -1    0    0  502    0  0.00000000000E+00  0.00000000000E+00  0.19966040544E+04  0.19966040544E+04  0.00000000000E+00 0. -1.
          1   -1    0    0  501    0 -0.00000000000E+00 -0.00000000000E+00 -0.12545513606E+03  0.12545513606E+03  0.00000000000E+00 0. -1.
         25    2    1    2    0    0  0.72309315969E+02  0.76077639292E+02  0.48655186246E+03  0.51319928661E+03  0.12499739409E+03 0.  0.
          2    1    1    2  501    0  0.30171146520E+01 -0.58109809894E+02 -0.10350738738E+03  0.11874187226E+03  0.00000000000E+00 0. -1.
          1    1    1    2  502    0 -0.75326430621E+02 -0.17967829398E+02  0.14881044432E+04  0.14901180316E+04  0.00000000000E+00 0. -1.
         22    1    3    3    0    0  0.76450179526E+01  0.84398974825E+02  0.16939405341E+03  0.18940955251E+03  0.00000000000E+00 0. -1.
         22    1    3    3    0    0  0.64664298016E+02 -0.83213355325E+01  0.31715780905E+03  0.32378973410E+03  0.00000000000E+00 0. -1.
</event>
<event>
 7    1  0.5977291E-006  0.7946280E+02  0.7818608E-02  0.1403899E+00
          2   -1    0    0  502    0  0.00000000000E+00  0.00000000000E+00  0.16603836373E+04  0.16603836373E+04  0.00000000000E+00 0. -1.
          1   -1    0    0  501    0 -0.00000000000E+00 -0.00000000000E+00 -0.16663674640E+04  0.16663674640E+04  0.00000000000E+00 0. -1.
         25    2    1    2    0    0 -0.10830900414E+03  0.42553084673E+02 -0.81759318212E+02  0.18934332294E+03  0.12499880973E+03 0.  0.
          2    1    1    2  501    0  0.43112417221E+02  0.24469695724E+01 -0.15295347025E+04  0.15301441352E+04  0.00000000000E+00 0. -1.
          1    1    1    2  502    0  0.65196586919E+02 -0.45000054245E+02  0.16053101941E+04  0.16072636433E+04  0.00000000000E+00 0. -1.
         22    1    3    3    0    0 -0.12177949635E+03  0.56368591030E+02 -0.96309826620E+02  0.16517641021E+03  0.00000000000E+00 0.  1.
         22    1    3    3    0    0  0.13470492205E+02 -0.13815506357E+02  0.14550508408E+02  0.24166912734E+02  0.00000000000E+00 0.  1.
</event>
<event>
 7    1  0.5977291E-006  0.3542225E+02  0.7818608E-02  0.1580611E+00
          2   -1    0    0  502    0  0.00000000000E+00  0.00000000000E+00  0.11580836331E+04  0.11580836331E+04  0.00000000000E+00 0. -1.
          1   -1    0    0  501    0 -0.00000000000E+00 -0.00000000000E+00 -0.12292164882E+04  0.12292164882E+04  0.00000000000E+00 0. -1.
         25    2    1    2    0    0 -0.25257075897E+02 -0.22884120960E+02 -0.12449335455E+02  0.13016030950E+03  0.12500046937E+03 0.  0.
          2    1    1    2  501    0 -0.47417158748E-01  0.35480089217E+02 -0.11574580744E+04  0.11580017413E+04  0.00000000000E+00 0. -1.
          1    1    1    2  502    0  0.25304493056E+02 -0.12595968257E+02  0.10987745547E+04  0.10991380704E+04  0.00000000000E+00 0. -1.
         22    1    3    3    0    0 -0.24517799372E+02  0.50517250613E+02 -0.47815388650E+01  0.56355817885E+02  0.00000000000E+00 0. -1.
         22    1    3    3    0    0 -0.73927652519E+00 -0.73401371573E+02 -0.76677965900E+01  0.73804491619E+02  0.00000000000E+00 0. -1.
</event>
<event>
 7    1  0.5977291E-006  0.1336790E+03  0.7818608E-02  0.1312279E+00
          2   -1    0    0  502    0  0.00000000000E+00  0.00000000000E+00  0.20814328195E+04  0.20814328195E+04  0.00000000000E+00 0. -1.
          1   -1    0    0  501    0 -0.00000000000E+00 -0.00000000000E+00 -0.11063737249E+03  0.11063737249E+03  0.00000000000E+00 0. -1.
         25    2    1    2    0    0  0.17984028943E+03 -0.41893037600E+02  0.37040305993E+03  0.43234345834E+03  0.12499953146E+03 0.  0.
          2    1    1    2  501    0 -0.55237156999E+02  0.64023922300E+01 -0.67135128552E+02  0.87173732427E+02  0.00000000000E+00 0. -1.
          1    1    1    2  502    0 -0.12460313243E+03  0.35490645370E+02  0.16675275156E+04  0.16725530012E+04  0.00000000000E+00 0. -1.
         22    1    3    3    0    0  0.13488977587E+03  0.29833188722E+02  0.23822356653E+03  0.27538289423E+03  0.00000000000E+00 0. -1.
         22    1    3    3    0    0  0.44950513563E+02 -0.71726226322E+02  0.13217949340E+03  0.15696056412E+03  0.00000000000E+00 0. -1.
</event>
<event>
 7    1  0.5977291E-006  0.5984684E+02  0.7818608E-02  0.1520093E+00
          2   -1    0    0  502    0  0.00000000000E+00  0.00000000000E+00  0.11338459481E+04  0.11338459481E+04  0.00000000000E+00 0. -1.
          1   -1    0    0  501    0 -0.00000000000E+00 -0.00000000000E+00 -0.55253024538E+03  0.55253024538E+03  0.00000000000E+00 0. -1.
         25    2    1    2    0    0 -0.61705059380E+02 -0.45283704818E+02  0.79283004786E+02  0.16665005069E+03  0.12501326438E+03 0.  0.
          2    1    1    2  501    0  0.24640807717E+02 -0.13439836586E+01 -0.50766932207E+03  0.50826874414E+03  0.00000000000E+00 0. -1.
          1    1    1    2  502    0  0.37064251663E+02  0.46627688476E+02  0.10097020200E+04  0.10114573987E+04  0.00000000000E+00 0. -1.
         22    1    3    3    0    0 -0.12174924858E+02 -0.65987975541E+02  0.89643716971E+02  0.11197605862E+03  0.00000000000E+00 0.  1.
         22    1    3    3    0    0 -0.49530134522E+02  0.20704270723E+02 -0.10360712185E+02  0.54673992071E+02  0.00000000000E+00 0.  1.
</event>
<event>
 7    1  0.5977291E-006  0.8414827E+02  0.7818608E-02  0.1400464E+00
          2   -1    0    0  502    0  0.00000000000E+00  0.00000000000E+00  0.10514249504E+04  0.10514249504E+04  0.00000000000E+00 0. -1.
          1   -1    0    0  501    0 -0.00000000000E+00 -0.00000000000E+00 -0.18640172360E+03  0.18640172360E+03  0.00000000000E+00 0. -1.
         25    2    1    2    0    0 -0.17936595550E+02 -0.10916912778E+03  0.59516909993E+03  0.61813566077E+03  0.12500327073E+03 0.  0.
          2    1    1    2  501    0 -0.14772942735E+02  0.39207223158E+02 -0.16898817911E+03  0.17410471236E+03  0.00000000000E+00 0. -1.
          1    1    1    2  502    0  0.32709538286E+02  0.69961904625E+02  0.43884230598E+03  0.44558630086E+03  0.00000000000E+00 0. -1.
         22    1    3    3    0    0 -0.38873543484E+02 -0.50490703422E+02  0.96822104276E+02  0.11590937577E+03  0.00000000000E+00 0.  1.
         22    1    3    3    0    0  0.20936947934E+02 -0.58678424361E+02  0.49834699565E+03  0.50222628500E+03  0.00000000000E+00 0.  1.
</event>
<event>
 7    1  0.5977291E-006  0.1169333E+03  0.7818608E-02  0.1325808E+00
          2   -1    0    0  502    0  0.00000000000E+00  0.00000000000E+00  0.27816598865E+03  0.27816598865E+03  0.00000000000E+00 0. -1.
          1   -1    0    0  501    0 -0.00000000000E+00 -0.00000000000E+00 -0.19256484678E+04  0.19256484678E+04  0.00000000000E+00 0. -1.
         25    2    1    2    0    0  0.67458053733E+02  0.15089628473E+03 -0.59257965224E+03  0.62777059837E+03  0.12500000871E+03 0.  0.
          2    1    1    2  501    0 -0.34815710230E+02 -0.10499745500E+03 -0.13100713782E+04  0.13147332867E+04  0.00000000000E+00 0. -1.
          1    1    1    2  502    0 -0.32642343503E+02 -0.45898829725E+02  0.25516855127E+03  0.26131057138E+03  0.00000000000E+00 0. -1.
         22    1    3    3    0    0  0.87526044275E+02  0.45143532978E+02 -0.25085106308E+03  0.26949026484E+03  0.00000000000E+00 0.  1.
         22    1    3    3    0    0 -0.20067990542E+02  0.10575275175E+03 -0.34172858916E+03  0.35828033353E+03  0.00000000000E+00 0.  1.
</event>
<event>
 7    1  0.5977291E-006  0.1087626E+03  0.7818608E-02  0.1444620E+00
          2   -1    0    0  502    0  0.00000000000E+00  0.00000000000E+00  0.86920485542E+03  0.86920485542E+03  0.00000000000E+00 0. -1.
          1   -1    0    0  501    0 -0.00000000000E+00 -0.00000000000E+00 -0.38727677784E+02  0.38727677784E+02  0.00000000000E+00 0. -1.
         25    2    1    2    0    0  0.43952974749E+02  0.78508499848E+02  0.19890578153E+03  0.25156404247E+03  0.12500203599E+03 0.  0.
          2    1    1    2  501    0  0.16354743158E+02  0.16326697970E+02  0.10804826026E+02  0.25510447974E+02  0.00000000000E+00 0. -1.
          1    1    1    2  502    0 -0.60307717906E+02 -0.94835197818E+02  0.62076657008E+03  0.63085804276E+03  0.00000000000E+00 0. -1.
         22    1    3    3    0    0  0.74406807766E+02  0.29052118322E+02  0.56702656694E+02  0.97957081913E+02  0.00000000000E+00 0. -1.
         22    1    3    3    0    0 -0.30453833017E+02  0.49456381525E+02  0.14220312483E+03  0.15360696055E+03  0.00000000000E+00 0. -1.
</event>
<event>
 7    1  0.5977291E-006  0.6668526E+02  0.7818608E-02  0.1409496E+00
          2   -1    0    0  502    0  0.00000000000E+00  0.00000000000E+00  0.61349178010E+03  0.61349178010E+03  0.00000000000E+00 0. -1.
          1   -1    0    0  501    0 -0.00000000000E+00 -0.00000000000E+00 -0.98649539047E+03  0.98649539047E+03  0.00000000000E+00 0. -1.
         25    2    1    2    0    0  0.14252327409E+02  0.24640579346E+02  0.68239888316E+02  0.14522984056E+03  0.12499894897E+03 0.  0.
          2    1    1    2  501    0  0.49115335446E+02  0.35922763326E+01 -0.94498204372E+03  0.94626438356E+03  0.00000000000E+00 0. -1.
          1    1    1    2  502    0 -0.63367662855E+02 -0.28232855679E+02  0.50373854504E+03  0.50849294645E+03  0.00000000000E+00 0. -1.
         22    1    3    3    0    0  0.18522748902E+02  0.89242906463E+00  0.10203413196E+03  0.10370560613E+03  0.00000000000E+00 0. -1.
         22    1    3    3    0    0 -0.42704214928E+01  0.23748150282E+02 -0.33794243646E+02  0.41524234432E+02  0.00000000000E+00 0. -1.
</event>
<event>
 7    1  0.5977291E-006  0.4169185E+02  0.7818608E-02  0.1563519E+00
          2   -1    0    0  502    0  0.00000000000E+00  0.00000000000E+00  0.10418728444E+04  0.10418728444E+04  0.00000000000E+00 0. -1.
          1   -1    0    0  501    0 -0.00000000000E+00 -0.00000000000E+00 -0.26134962311E+03  0.26134962311E+03  0.00000000000E+00 0. -1.
         25    2    1    2    0    0  0.36420982112E+02 -0.16674835502E+02 -0.22153499914E+02  0.13311693259E+03  0.12499920842E+03 0.  0.
          2    1    1    2  501    0 -0.40996726885E+02 -0.96483382627E+01 -0.18111682243E+03  0.18594925495E+03  0.00000000000E+00 0. -1.
          1    1    1    2  502    0  0.45757447728E+01  0.26323173764E+02  0.98379354364E+03  0.98415627998E+03  0.00000000000E+00 0. -1.
         22    1    3    3    0    0  0.42204912606E+02 -0.67592942777E+02 -0.88819555157E+01  0.80180731445E+02  0.00000000000E+00 0. -1.
         22    1    3    3    0    0 -0.57839304944E+01  0.50918107275E+02 -0.13271544398E+02  0.52936201140E+02  0.00000000000E+00 0. -1.
</event>
<event>
 7    1  0.5977291E-006  0.3370934E+03  0.7818608E-02  0.1156212E+00
          2   -1    0    0  502    0  0.00000000000E+00  0.00000000000E+00  0.16476609259E+04  0.16476609259E+04  0.00000000000E+00 0. -1.
          1   -1    0    0  501    0 -0.00000000000E+00 -0.00000000000E+00 -0.12925211028E+04  0.12925211028E+04  0.00000000000E+00 0. -1.
         25    2    1    2    0    0  0.34814177089E+03 -0.46052345763E+02  0.62230586023E+02  0.37790317302E+03  0.12495859776E+03 0.  0.
          2    1    1    2  501    0 -0.33142630576E+03 -0.62615754741E+02 -0.11074171993E+04  0.11576428561E+04  0.00000000000E+00 0. -1.
          1    1    1    2  502    0 -0.16715465127E+02  0.10866810050E+03  0.14003264364E+04  0.14046359996E+04  0.00000000000E+00 0. -1.
         22    1    3    3    0    0  0.22109326011E+03 -0.55742519453E+02  0.93930313353E+02  0.24660162592E+03  0.00000000000E+00 0.  1.
         22    1    3    3    0    0  0.12704851078E+03  0.96901736899E+01 -0.31699727329E+02  0.13130154709E+03  0.00000000000E+00 0.  1.
</event>
<event>
 7    1  0.5977291E-006  0.4223050E+02  0.7818608E-02  0.1543195E+00
          2   -1    0    0  502    0  0.00000000000E+00  0.00000000000E+00  0.12554678794E+03  0.12554678794E+03  0.00000000000E+00 0. -1.
          1   -1    0    0  501    0 -0.00000000000E+00 -0.00000000000E+00 -0.27355569931E+03  0.27355569931E+03  0.00000000000E+00 0. -1.
         25    2    1    2    0    0 -0.39237660765E+02  0.48550363612E+02 -0.39086074494E+02  0.14503971568E+03  0.12494825360E+03 0.  0.
          2    1    1    2  501    0  0.37160475295E+02 -0.18584249578E+02 -0.17585644578E+03  0.18069799329E+03  0.00000000000E+00 0. -1.
          1    1    1    2  502    0  0.20771854697E+01 -0.29966114033E+02  0.66933608906E+02  0.73364778272E+02  0.00000000000E+00 0. -1.
         22    1    3    3    0    0 -0.54521477581E+02 -0.19319053311E+01 -0.66159568050E+02  0.85752039162E+02  0.00000000000E+00 0. -1.
         22    1    3    3    0    0  0.15283816816E+02  0.50482268943E+02  0.27073493556E+02  0.59287676522E+02  0.00000000000E+00 0. -1.
</event>
<event>
 7    1  0.5977291E-006  0.9881054E+02  0.7818608E-02  0.1335902E+00
          2   -1    0    0  502    0  0.00000000000E+00  0.00000000000E+00  0.22723249364E+04  0.22723249364E+04  0.00000000000E+00 0. -1.
          1   -1    0    0  501    0 -0.00000000000E+00 -0.00000000000E+00 -0.25068755934E+04  0.25068755934E+04  0.00000000000E+00 0. -1.
         25    2    1    2    0    0  0.42272908202E+02 -0.23714697330E+02  0.14627860150E+03  0.19842196959E+03  0.12499785248E+03 0.  0.
          2    1    1    2  501    0  0.16897567929E+02 -0.58609234753E+02 -0.24792049389E+04  0.24799551808E+04  0.00000000000E+00 0. -1.
          1    1    1    2  502    0 -0.59170476132E+02  0.82323932083E+02  0.20983756804E+04  0.21008233793E+04  0.00000000000E+00 0. -1.
         22    1    3    3    0    0 -0.42439512421E+02 -0.20668174662E+02  0.36198056817E+02  0.59486006554E+02  0.00000000000E+00 0.  1.
         22    1    3    3    0    0  0.84712420623E+02 -0.30465226676E+01  0.11008054468E+03  0.13893596304E+03  0.00000000000E+00 0.  1.
</event>
<event>
 7    1  0.5977291E-006  0.9315879E+02  0.7818608E-02  0.1329374E+00
          2   -1    0    0  502    0  0.00000000000E+00  0.00000000000E+00  0.58972392279E+03  0.58972392279E+03  0.00000000000E+00 0. -1.
          1   -1    0    0  501    0 -0.00000000000E+00 -0.00000000000E+00 -0.15368160637E+04  0.15368160637E+04  0.00000000000E+00 0. -1.
         25    2    1    2    0    0 -0.20146127043E+02 -0.57390168404E+02 -0.35861591017E+03  0.38461661662E+03  0.12500029155E+03 0.  0.
          2    1    1    2  501    0 -0.38054987304E+02  0.93522537931E+02 -0.11609665832E+04  0.11653488982E+04  0.00000000000E+00 0. -1.
          1    1    1    2  502    0  0.58201114347E+02 -0.36132369527E+02  0.57249035243E+03  0.57657447174E+03  0.00000000000E+00 0. -1.
         22    1    3    3    0    0  0.48486853160E+02 -0.39600693934E+02 -0.22253233616E+03  0.23117056587E+03  0.00000000000E+00 0. -1.
         22    1    3    3    0    0 -0.68632980204E+02 -0.17789474470E+02 -0.13608357401E+03  0.15344605075E+03  0.00000000000E+00 0. -1.
</event>
<event>
 7    1  0.5977291E-006  0.7997643E+02  0.7818608E-02  0.1361877E+00
          2   -1    0    0  502    0  0.00000000000E+00  0.00000000000E+00  0.14350628600E+04  0.14350628600E+04  0.00000000000E+00 0. -1.
          1   -1    0    0  501    0 -0.00000000000E+00 -0.00000000000E+00 -0.16242876105E+03  0.16242876105E+03  0.00000000000E+00 0. -1.
         25    2    1    2    0    0  0.59911087292E+01  0.40086043029E+02  0.70028915455E+03  0.71251144462E+03  0.12499949803E+03 0.  0.
          2    1    1    2  501    0 -0.66005601117E+02 -0.46515177643E+02 -0.14453597466E+03  0.16556282524E+03  0.00000000000E+00 0. -1.
          1    1    1    2  502    0  0.60014492388E+02  0.64291346139E+01  0.71688091903E+03  0.71941735115E+03  0.00000000000E+00 0. -1.
         22    1    3    3    0    0 -0.34447883920E+02  0.71383648328E+02  0.46757422236E+03  0.47424459446E+03  0.00000000000E+00 0. -1.
         22    1    3    3    0    0  0.40438992649E+02 -0.31297605299E+02  0.23271493219E+03  0.23826685017E+03  0.00000000000E+00 0. -1.
</event>
<event>
 7    1  0.5977291E-006  0.4389372E+02  0.7818608E-02  0.1532646E+00
          2   -1    0    0  502    0  0.00000000000E+00  0.00000000000E+00  0.98985786443E+03  0.98985786443E+03  0.00000000000E+00 0. -1.
          1   -1    0    0  501    0 -0.00000000000E+00 -0.00000000000E+00 -0.46042891748E+03  0.46042891748E+03  0.00000000000E+00 0. -1.
         25    2    1    2    0    0  0.14242195915E+02  0.62706255581E+01  0.62819921175E+03  0.64070383249E+03  0.12499996176E+03 0.  0.
          2    1    1    2  501    0 -0.43857871529E+02  0.27527157489E+01 -0.45243579964E+03  0.45456489430E+03  0.00000000000E+00 0. -1.
          1    1    1    2  502    0  0.29615675614E+02 -0.90233413070E+01  0.35366553483E+03  0.35501805512E+03  0.00000000000E+00 0. -1.
         22    1    3    3    0    0 -0.51462024844E+02 -0.19906420705E+02  0.26552545075E+03  0.27119802836E+03  0.00000000000E+00 0.  1.
         22    1    3    3    0    0  0.65704220759E+02  0.26177046263E+02  0.36267376099E+03  0.36950580414E+03  0.00000000000E+00 0.  1.
</event>
<event>
 7    1  0.5977291E-006  0.1753902E+03  0.7818608E-02  0.1225552E+00
          2   -1    0    0  502    0  0.00000000000E+00  0.00000000000E+00  0.44453324132E+04  0.44453324132E+04  0.00000000000E+00 0. -1.
          1   -1    0    0  501    0 -0.00000000000E+00 -0.00000000000E+00 -0.14551456770E+04  0.14551456770E+04  0.00000000000E+00 0. -1.
         25    2    1    2    0    0  0.17217476863E+03 -0.20440207894E+03  0.30359539657E+03  0.42334691954E+03  0.12501235392E+03 0.  0.
          2    1    1    2  501    0 -0.13017197178E+03  0.11554924969E+03 -0.13892468305E+04  0.14001082556E+04  0.00000000000E+00 0. -1.
          1    1    1    2  502    0 -0.42002796854E+02  0.88852829254E+02  0.40758381701E+04  0.40770229150E+04  0.00000000000E+00 0. -1.
         22    1    3    3    0    0  0.91951363761E+02 -0.72689832675E+02  0.21660118338E+03  0.24628223182E+03  0.00000000000E+00 0. -1.
         22    1    3    3    0    0  0.80223404873E+02 -0.13171224627E+03  0.86994213197E+02  0.17706468772E+03  0.00000000000E+00 0. -1.
</event>
<event>
 7    1  0.5977291E-006  0.9954699E+02  0.7818608E-02  0.1406946E+00
          2   -1    0    0  502    0  0.00000000000E+00  0.00000000000E+00  0.98230481388E+03  0.98230481388E+03  0.00000000000E+00 0. -1.
          1   -1    0    0  501    0 -0.00000000000E+00 -0.00000000000E+00 -0.77111973500E+03  0.77111973500E+03  0.00000000000E+00 0. -1.
         25    2    1    2    0    0 -0.35523729657E+02 -0.57338899391E+02 -0.45585850551E+03  0.47747458308E+03  0.12500126276E+03 0.  0.
          2    1    1    2  501    0 -0.26485701067E+02 -0.20763856424E+02 -0.30095352334E+03  0.30282941288E+03  0.00000000000E+00 0. -1.
          1    1    1    2  502    0  0.62009430725E+02  0.78102755816E+02  0.96799710773E+03  0.97312055293E+03  0.00000000000E+00 0. -1.
         22    1    3    3    0    0  0.38005327731E+02 -0.55198774256E+01 -0.57917527037E+02  0.69493265291E+02  0.00000000000E+00 0. -1.
         22    1    3    3    0    0 -0.73529057388E+02 -0.51819021966E+02 -0.39794097847E+03  0.40798131779E+03  0.00000000000E+00 0. -1.
</event>
<event>
 7    1  0.5977291E-006  0.6955127E+02  0.7818608E-02  0.1364371E+00
          2   -1    0    0  502    0  0.00000000000E+00  0.00000000000E+00  0.28129614215E+03  0.28129614215E+03  0.00000000000E+00 0. -1.
          1   -1    0    0  501    0 -0.00000000000E+00 -0.00000000000E+00 -0.87635011088E+03  0.87635011088E+03  0.00000000000E+00 0. -1.
         25    2    1    2    0    0  0.28187728347E+02  0.57486485571E+02 -0.11957720698E+03  0.18445143268E+03  0.12499751413E+03 0.  0.
          2    1    1    2  501    0  0.41354649397E+02 -0.56374104191E+02 -0.71774421301E+03  0.72114145767E+03  0.00000000000E+00 0. -1.
          1    1    1    2  502    0 -0.69542377745E+02 -0.11123813801E+01  0.24226745126E+03  0.25205336267E+03  0.00000000000E+00 0. -1.
         22    1    3    3    0    0 -0.39633692134E+02  0.56263967688E+02 -0.81468931360E+02  0.10664731778E+03  0.00000000000E+00 0.  1.
         22    1    3    3    0    0  0.67821420482E+02  0.12225178834E+01 -0.38108275616E+02  0.77804114907E+02  0.00000000000E+00 0.  1.
</event>
<event>
 7    1  0.5977291E-006  0.1302209E+03  0.7818608E-02  0.1356878E+00
          2   -1    0    0  502    0  0.00000000000E+00  0.00000000000E+00  0.81775263747E+03  0.81775263747E+03  0.00000000000E+00 0. -1.
          1   -1    0    0  501    0 -0.00000000000E+00 -0.00000000000E+00 -0.25896857580E+03  0.25896857580E+03  0.00000000000E+00 0. -1.
         25    2    1    2    0    0 -0.72656526423E+02 -0.14148386821E+03  0.33258898249E+02  0.20501919104E+03  0.12502023270E+03 0.  0.
          2    1    1    2  501    0  0.42267591823E+02  0.11758409814E+03 -0.14991341721E+03  0.19515789022E+03  0.00000000000E+00 0. -1.
          1    1    1    2  502    0  0.30388934600E+02  0.23899770074E+02  0.67543858064E+03  0.67654413202E+03  0.00000000000E+00 0. -1.
         22    1    3    3    0    0 -0.25182839609E+02 -0.23727342093E+02  0.65452706042E+02  0.74035254453E+02  0.00000000000E+00 0.  1.
         22    1    3    3    0    0 -0.47473686814E+02 -0.11775652612E+03 -0.32193807793E+02  0.13098393658E+03  0.00000000000E+00 0.  1.
</event>
<event>
 7    1  0.5977291E-006  0.7401935E+02  0.7818608E-02  0.1382073E+00
          2   -1    0    0  502    0  0.00000000000E+00  0.00000000000E+00  0.65560616412E+03  0.65560616412E+03  0.00000000000E+00 0. -1.
          1   -1    0    0  501    0 -0.00000000000E+00 -0.00000000000E+00 -0.47308619872E+03  0.47308619872E+03  0.00000000000E+00 0. -1.
         25    2    1    2    0    0 -0.62173672243E+00 -0.20917475468E+02 -0.13193784770E+03  0.18294800217E+03  0.12499779401E+03 0.  0.
          2    1    1    2  501    0  0.21115148882E+02 -0.51004135418E+02 -0.31098501765E+03  0.31584640657E+03  0.00000000000E+00 0. -1.
          1    1    1    2  502    0 -0.20493412159E+02  0.71921610886E+02  0.62544283075E+03  0.62989795411E+03  0.00000000000E+00 0. -1.
         22    1    3    3    0    0 -0.19994428460E+01  0.11289122130E+02  0.22462089246E+02  0.25218792664E+02  0.00000000000E+00 0.  1.
         22    1    3    3    0    0  0.13777061236E+01 -0.32206597598E+02 -0.15439993694E+03  0.15772920950E+03  0.00000000000E+00 0.  1.
</event>
<event>
 7    1  0.5977291E-006  0.1137376E+03  0.7818608E-02  0.1440428E+00
          2   -1    0    0  502    0  0.00000000000E+00  0.00000000000E+00  0.23775834584E+04  0.23775834584E+04  0.00000000000E+00 0. -1.
          1   -1    0    0  501    0 -0.00000000000E+00 -0.00000000000E+00 -0.51875202931E+02  0.51875202931E+02  0.00000000000E+00 0. -1.
         25    2    1    2    0    0  0.29163572036E+02  0.92251195396E+02  0.64762431194E+03  0.66663610355E+03  0.12500259261E+03 0.  0.
          2    1    1    2  501    0 -0.40769369716E+01  0.22431628674E+02 -0.37143424502E+02  0.43582489188E+02  0.00000000000E+00 0. -1.
          1    1    1    2  502    0 -0.25086635064E+02 -0.11468282407E+03  0.17152273680E+04  0.17192400686E+04  0.00000000000E+00 0. -1.
         22    1    3    3    0    0  0.74266549971E+02  0.62008771412E+02  0.31230240071E+03  0.32694555765E+03  0.00000000000E+00 0.  1.
         22    1    3    3    0    0 -0.45102977935E+02  0.30242423983E+02  0.33532191123E+03  0.33969054590E+03  0.00000000000E+00 0.  1.
</event>
<event>
 7    1  0.5977291E-006  0.8009676E+02  0.7818608E-02  0.1382163E+00
          2   -1    0    0  502    0  0.00000000000E+00  0.00000000000E+00  0.95704170117E+03  0.95704170117E+03  0.00000000000E+00 0. -1.
          1   -1    0    0  501    0 -0.00000000000E+00 -0.00000000000E+00 -0.10965854454E+04  0.10965854454E+04  0.00000000000E+00 0. -1.
         25    2    1    2    0    0 -0.37602430447E+02  0.86611430678E+01 -0.15431919818E+02  0.13172926957E+03  0.12500199253E+03 0.  0.
          2    1    1    2  501    0  0.60871642300E+02 -0.54016472207E+02 -0.10206611386E+04  0.10239005303E+04  0.00000000000E+00 0. -1.
          1    1    1    2  502    0 -0.23269211853E+02  0.45355329139E+02  0.89654931414E+03  0.89799734676E+03  0.00000000000E+00 0. -1.
         22    1    3    3    0    0 -0.35272780048E+02 -0.35556152222E+02 -0.53537047549E+02  0.73311830106E+02  0.00000000000E+00 0.  1.
         22    1    3    3    0    0 -0.23296503984E+01  0.44217295290E+02  0.38105127731E+02  0.58417439461E+02  0.00000000000E+00 0.  1.
</event>
<event>
 7    1  0.5977291E-006  0.2402956E+03  0.7818608E-02  0.1332872E+00
          2   -1    0    0  502    0  0.00000000000E+00  0.00000000000E+00  0.29714654384E+03  0.29714654384E+03  0.00000000000E+00 0. -1.
          1   -1    0    0  501    0 -0.00000000000E+00 -0.00000000000E+00 -0.42640916721E+03  0.42640916721E+03  0.00000000000E+00 0. -1.
         25    2    1    2    0    0 -0.12538499951E+03 -0.20639734639E+03 -0.61894354303E+02  0.27888595396E+03  0.12500080610E+03 0.  0.
          2    1    1    2  501    0 -0.20496465633E+02  0.15595021377E+02 -0.17827003692E+03  0.18012083683E+03  0.00000000000E+00 0. -1.
          1    1    1    2  502    0  0.14588146514E+03  0.19080232501E+03  0.11090176786E+03  0.26454892027E+03  0.00000000000E+00 0. -1.
         22    1    3    3    0    0 -0.10268264759E+03 -0.62619582812E+02  0.11124742518E+01  0.12027541671E+03  0.00000000000E+00 0. -1.
         22    1    3    3    0    0 -0.22702351926E+02 -0.14377776357E+03 -0.63006828555E+02  0.15861053725E+03  0.00000000000E+00 0. -1.
</event>
<event>
 7    1  0.5977291E-006  0.5324802E+02  0.7818608E-02  0.1513410E+00
          2   -1    0    0  502    0  0.00000000000E+00  0.00000000000E+00  0.46200723675E+03  0.46200723675E+03  0.00000000000E+00 0. -1.
          1   -1    0    0  501    0 -0.00000000000E+00 -0.00000000000E+00 -0.11047736597E+04  0.11047736597E+04  0.00000000000E+00 0. -1.
         25    2    1    2    0    0  0.78780303778E+01 -0.70854092100E+02  0.93999503600E+02  0.17188173373E+03  0.12500023194E+03 0.  0.
          2    1    1    2  501    0  0.16094447613E+02  0.24134684118E+02 -0.10635386601E+04  0.10639342065E+04  0.00000000000E+00 0. -1.
          1    1    1    2  502    0 -0.23972477990E+02  0.46719407982E+02  0.32677273361E+03  0.33096495617E+03  0.00000000000E+00 0. -1.
         22    1    3    3    0    0  0.16824375788E+00 -0.24893959661E+02  0.11720628466E+03  0.11982091093E+03  0.00000000000E+00 0. -1.
         22    1    3    3    0    0  0.77097866199E+01 -0.45960132439E+02 -0.23206781059E+02  0.52060822800E+02  0.00000000000E+00 0. -1.
</event>
<event>
 7    1  0.5977291E-006  0.7620645E+02  0.7818608E-02  0.1400533E+00
          2   -1    0    0  502    0  0.00000000000E+00  0.00000000000E+00  0.44761301102E+03  0.44761301102E+03  0.00000000000E+00 0. -1.
          1   -1    0    0  501    0 -0.00000000000E+00 -0.00000000000E+00 -0.94422372792E+03  0.94422372792E+03  0.00000000000E+00 0. -1.
         25    2    1    2    0    0  0.78992708016E+02  0.92348269844E+02  0.22435819200E+03  0.28412511690E+03  0.12498973106E+03 0.  0.
          2    1    1    2  501    0 -0.44585654700E+02 -0.61457563295E+02 -0.90997219312E+03  0.91313433017E+03  0.00000000000E+00 0. -1.
          1    1    1    2  502    0 -0.34407053316E+02 -0.30890706549E+02  0.18900328421E+03  0.19457729187E+03  0.00000000000E+00 0. -1.
         22    1    3    3    0    0  0.93672766270E+02  0.38461967563E+02  0.19794871473E+03  0.22234568526E+03  0.00000000000E+00 0. -1.
         22    1    3    3    0    0 -0.14680058255E+02  0.53886302281E+02  0.26409477274E+02  0.61779431640E+02  0.00000000000E+00 0. -1.
</event>
<event>
 7    1  0.5977291E-006  0.1046538E+03  0.7818608E-02  0.1360654E+00
          2   -1    0    0  502    0  0.00000000000E+00  0.00000000000E+00  0.30665008665E+03  0.30665008665E+03  0.00000000000E+00 0. -1.
          1   -1    0    0  501    0 -0.00000000000E+00 -0.00000000000E+00 -0.71252651240E+03  0.71252651240E+03  0.00000000000E+00 0. -1.
         25    2    1    2    0    0 -0.10294556404E+03 -0.26837699572E+02 -0.39775337018E+03  0.43028264517E+03  0.12496943615E+03 0.  0.
          2    1    1    2  501    0  0.82580822934E+02  0.68753519385E+02 -0.28684067613E+03  0.30630738193E+03  0.00000000000E+00 0. -1.
          1    1    1    2  502    0  0.20364741110E+02 -0.41915819813E+02  0.27871762056E+03  0.28258657194E+03  0.00000000000E+00 0. -1.
         22    1    3    3    0    0 -0.10844820742E+03 -0.37311621681E+02 -0.18817200404E+03  0.22036758815E+03  0.00000000000E+00 0. -1.
         22    1    3    3    0    0  0.55026433791E+01  0.10473922109E+02 -0.20958136614E+03  0.20991505702E+03  0.00000000000E+00 0. -1.
</event>
<event>
 7    1  0.5977291E-006  0.9115976E+02  0.7818608E-02  0.1347890E+00
          2   -1    0    0  502    0  0.00000000000E+00  0.00000000000E+00  0.23705384632E+04  0.23705384632E+04  0.00000000000E+00 0. -1.
          1   -1    0    0  501    0 -0.00000000000E+00 -0.00000000000E+00 -0.14843269618E+03  0.14843269618E+03  0.00000000000E+00 0. -1.
         25    2    1    2    0    0  0.93135574731E+02  0.10288439103E+03  0.11197326186E+03  0.21776305380E+03  0.12499321194E+03 0.  0.
          2    1    1    2  501    0 -0.71885623197E+02 -0.47188182580E+02 -0.75699723233E+02  0.11456315069E+03  0.00000000000E+00 0. -1.
          1    1    1    2  502    0 -0.21249951534E+02 -0.55696208453E+02  0.21858322284E+04  0.21866449549E+04  0.00000000000E+00 0. -1.
         22    1    3    3    0    0  0.77894406267E+02  0.18942778711E+02  0.10508525143E+03  0.13217139426E+03  0.00000000000E+00 0.  1.
         22    1    3    3    0    0  0.15241168465E+02  0.83941612321E+02  0.68880104338E+01  0.85591659541E+02  0.00000000000E+00 0.  1.
</event>
<event>
 7    1  0.5977291E-006  0.1339206E+03  0.7818608E-02  0.1276804E+00
          2   -1    0    0  502    0  0.00000000000E+00  0.00000000000E+00  0.25652774524E+03  0.25652774524E+03  0.00000000000E+00 0. -1.
          1   -1    0    0  501    0 -0.00000000000E+00 -0.00000000000E+00 -0.22559826890E+04  0.22559826890E+04  0.00000000000E+00 0. -1.
         25    2    1    2    0    0  0.12743048854E+03 -0.11960291971E+03 -0.25987383714E+03  0.33719742734E+03  0.12499722382E+03 0.  0.
          2    1    1    2  501    0 -0.12541560606E+03  0.42429386721E+02 -0.19482902113E+04  0.19527836733E+04  0.00000000000E+00 0. -1.
          1    1    1    2  502    0 -0.20148824778E+01  0.77173532987E+02  0.20870910469E+03  0.22252933363E+03  0.00000000000E+00 0. -1.
         22    1    3    3    0    0  0.11321846347E+03 -0.76197844366E+02 -0.25754129329E+03  0.29146534907E+03  0.00000000000E+00 0.  1.
         22    1    3    3    0    0  0.14212025071E+02 -0.43405075341E+02 -0.23325438432E+01  0.45732078269E+02  0.00000000000E+00 0.  1.
</event>
<event>
 7    1  0.5977291E-006  0.4808925E+02  0.7818608E-02  0.1464765E+00
          2   -1    0    0  502    0  0.00000000000E+00  0.00000000000E+00  0.13084991193E+03  0.13084991193E+03  0.00000000000E+00 0. -1.
          1   -1    0    0  501    0 -0.00000000000E+00 -0.00000000000E+00 -0.64645783129E+03  0.64645783129E+03  0.00000000000E+00 0. -1.
         25    2    1    2    0    0 -0.21352977738E+02 -0.16443297231E+02 -0.39382894857E+03  0.41406859735E+03  0.12500092357E+03 0.  0.
          2    1    1    2  501    0  0.42630995943E+01  0.58181134684E+02 -0.23459624187E+03  0.24174080158E+03  0.00000000000E+00 0. -1.
          1    1    1    2  502    0  0.17089878144E+02 -0.41737837453E+02  0.11281727108E+03  0.12149834428E+03  0.00000000000E+00 0. -1.
         22    1    3    3    0    0 -0.60930018315E+02 -0.10451724685E+02 -0.34699869236E+03  0.35246247769E+03  0.00000000000E+00 0.  1.
         22    1    3    3    0    0  0.39577040577E+02 -0.59915725458E+01 -0.46830256217E+02  0.61606119662E+02  0.00000000000E+00 0.  1.
</event>
<event>
 7    1  0.5977291E-006  0.8290130E+02  0.7818608E-02  0.1427348E+00
          2   -1    0    0  502    0  0.00000000000E+00  0.00000000000E+00  0.95169149908E+03  0.95169149908E+03  0.00000000000E+00 0. -1.
          1   -1    0    0  501    0 -0.00000000000E+00 -0.00000000000E+00 -0.23498765275E+02  0.23498765275E+02  0.00000000000E+00 0. -1.
         25    2    1    2    0    0  0.65579904858E+02  0.80477655046E+02  0.51049498042E+03  0.53573992186E+03  0.12503904171E+03 0.  0.
          2    1    1    2  501    0 -0.32864713372E+02 -0.10563968499E+02  0.35428725700E+02  0.49465962239E+02  0.00000000000E+00 0. -1.
          1    1    1    2  502    0 -0.32715191486E+02 -0.69913686547E+02  0.38226902769E+03  0.38998438026E+03  0.00000000000E+00 0. -1.
         22    1    3    3    0    0  0.67906087361E+02  0.26452746627E+01  0.12324965463E+03  0.14074342452E+03  0.00000000000E+00 0.  1.
         22    1    3    3    0    0 -0.23261825026E+01  0.77832380383E+02  0.38724532579E+03  0.39499649734E+03  0.00000000000E+00 0.  1.
</event>
<event>
 7    1  0.5977291E-006  0.1725577E+03  0.7818608E-02  0.1203768E+00
          2   -1    0    0  502    0  0.00000000000E+00  0.00000000000E+00  0.22948286674E+04  0.22948286674E+04  0.00000000000E+00 0. -1.
          1   -1    0    0  501    0 -0.00000000000E+00 -0.00000000000E+00 -0.14803630636E+03  0.14803630636E+03  0.00000000000E+00 0. -1.
         25    2    1    2    0    0 -0.62158409687E+01  0.18712400112E+03  0.45196062479E+03  0.50492466823E+03  0.12500594288E+03 0.  0.
          2    1    1    2  501    0 -0.11243694196E+03 -0.56476599831E+02 -0.83411440007E+02  0.15096072526E+03  0.00000000000E+00 0. -1.
          1    1    1    2  502    0  0.11865278293E+03 -0.13064740129E+03  0.17782431762E+04  0.17869795802E+04  0.00000000000E+00 0. -1.
         22    1    3    3    0    0 -0.24550890714E+02  0.10655253776E+03  0.11791567233E+03  0.16081136564E+03  0.00000000000E+00 0.  1.
         22    1    3    3    0    0  0.18335049745E+02  0.80571463360E+02  0.33404495246E+03  0.34411330259E+03  0.00000000000E+00 0.  1.
</event>
<event>
 7    1  0.5977291E-006  0.1071153E+03  0.7818608E-02  0.1366390E+00
          2   -1    0    0  502    0  0.00000000000E+00  0.00000000000E+00  0.23683791840E+03  0.23683791840E+03  0.00000000000E+00 0. -1.
          1   -1    0    0  501    0 -0.00000000000E+00 -0.00000000000E+00 -0.32774008384E+03  0.32774008384E+03  0.00000000000E+00 0. -1.
         25    2    1    2    0    0 -0.13227875025E+03 -0.54073057350E+02  0.11038031355E+02  0.19018123724E+03  0.12500200624E+03 0.  0.
          2    1    1    2  501    0  0.10017922213E+03  0.24865962969E+02 -0.22303415779E+03  0.24576091675E+03  0.00000000000E+00 0. -1.
          1    1    1    2  502    0  0.32099528119E+02  0.29207094381E+02  0.12109396099E+03  0.12863584825E+03  0.00000000000E+00 0. -1.
         22    1    3    3    0    0 -0.11911754070E+03 -0.59500935213E+02  0.54930872345E+02  0.14403732340E+03  0.00000000000E+00 0.  1.
         22    1    3    3    0    0 -0.13161209545E+02  0.54278778630E+01 -0.43892840990E+02  0.46143913845E+02  0.00000000000E+00 0.  1.
</event>
<event>
 7    1  0.5977291E-006  0.8757621E+02  0.7818608E-02  0.1409026E+00
          2   -1    0    0  502    0  0.00000000000E+00  0.00000000000E+00  0.24422686796E+04  0.24422686796E+04  0.00000000000E+00 0. -1.
          1   -1    0    0  501    0 -0.00000000000E+00 -0.00000000000E+00 -0.45365942548E+03  0.45365942548E+03  0.00000000000E+00 0. -1.
         25    2    1    2    0    0  0.94804391434E+02  0.80294800243E+02  0.19026056660E+03  0.25934245886E+03  0.12499720071E+03 0.  0.
          2    1    1    2  501    0 -0.63905773377E+02 -0.58804637778E+02 -0.41445804429E+03  0.42345885724E+03  0.00000000000E+00 0. -1.
          1    1    1    2  502    0 -0.30898618057E+02 -0.21490162465E+02  0.22128067318E+04  0.22131267890E+04  0.00000000000E+00 0. -1.
         22    1    3    3    0    0  0.17148735622E+02 -0.15286525976E+02  0.10993700098E+03  0.11231162538E+03  0.00000000000E+00 0.  1.
         22    1    3    3    0    0  0.77655655812E+02  0.95581326219E+02  0.80323565613E+02  0.14703083348E+03  0.00000000000E+00 0.  1.
</event>
<event>
 7    1  0.5977291E-006  0.5323417E+02  0.7818608E-02  0.1462885E+00
          2   -1    0    0  502    0  0.00000000000E+00  0.00000000000E+00  0.88666266096E+03  0.88666266096E+03  0.00000000000E+00 0. -1.
          1   -1    0    0  501    0 -0.00000000000E+00 -0.00000000000E+00 -0.51822657828E+02  0.51822657828E+02  0.00000000000E+00 0. -1.
         25    2    1    2    0    0 -0.25181396984E+01 -0.18804647394E+02  0.68874277309E+03  0.70025064557E+03  0.12499761337E+03 0.  0.
          2    1    1    2  501    0  0.39628517489E+02  0.36927528749E+02 -0.26827622353E+02  0.60446530910E+02  0.00000000000E+00 0. -1.
          1    1    1    2  502    0 -0.37110377791E+02 -0.18122881356E+02  0.17292485240E+03  0.17778814231E+03  0.00000000000E+00 0. -1.
         22    1    3    3    0    0 -0.24672547729E+02  0.45126958692E+02  0.41929118311E+03  0.42243375012E+03  0.00000000000E+00 0.  1.
         22    1    3    3    0    0  0.22154408030E+02 -0.63931606086E+02  0.26945158998E+03  0.27781689545E+03  0.00000000000E+00 0.  1.
</event>
<event>
 7    1  0.5977291E-006  0.1186688E+03  0.7818608E-02  0.1312018E+00
          2   -1    0    0  502    0  0.00000000000E+00  0.00000000000E+00  0.14781614940E+04  0.14781614940E+04  0.00000000000E+00 0. -1.
          1   -1    0    0  501    0 -0.00000000000E+00 -0.00000000000E+00 -0.52512854660E+03  0.52512854660E+03  0.00000000000E+00 0. -1.
         25    2    1    2    0    0  0.29506659251E+02  0.11430588741E+03  0.51245581061E+02  0.17942069992E+03  0.12501679545E+03 0.  0.
          2    1    1    2  501    0  0.55089328183E+02 -0.30125081587E+02 -0.45627416497E+03  0.46057406380E+03  0.00000000000E+00 0. -1.
          1    1    1    2  502    0 -0.84595987434E+02 -0.84180805819E+02  0.13580615313E+04  0.13632952769E+04  0.00000000000E+00 0. -1.
         22    1    3    3    0    0  0.68923253442E+02  0.95311980599E+02  0.79868730103E+01  0.11789223321E+03  0.00000000000E+00 0.  1.
         22    1    3    3    0    0 -0.39416594191E+02  0.18993906807E+02  0.43258708051E+02  0.61528466710E+02  0.00000000000E+00 0.  1.
</event>
<event>
 7    1  0.5977291E-006  0.9297847E+02  0.7818608E-02  0.1379890E+00
          2   -1    0    0  502    0  0.00000000000E+00  0.00000000000E+00  0.17399732962E+04  0.17399732962E+04  0.00000000000E+00 0. -1.
          1   -1    0    0  501    0 -0.00000000000E+00 -0.00000000000E+00 -0.32601352951E+03  0.32601352951E+03  0.00000000000E+00 0. -1.
         25    2    1    2    0    0 -0.48651226151E+02  0.75756495917E+02 -0.40932351433E+02  0.15939350488E+03  0.12499937409E+03 0.  0.
          2    1    1    2  501    0  0.81048166680E+01 -0.94654535590E+02 -0.21554769976E+03  0.23555462219E+03  0.00000000000E+00 0. -1.
          1    1    1    2  502    0  0.40546409483E+02  0.18898039673E+02  0.16704398179E+04  0.16710386987E+04  0.00000000000E+00 0. -1.
         22    1    3    3    0    0  0.11199270135E+02 -0.19304368397E+01 -0.58647356809E+02  0.59738285033E+02  0.00000000000E+00 0.  1.
         22    1    3    3    0    0 -0.59850496285E+02  0.77686932757E+02  0.17715005377E+02  0.99655219845E+02  0.00000000000E+00 0.  1.
</event>
<event>
 7    1  0.5977291E-006  0.3596723E+02  0.7818608E-02  0.1547208E+00
          2   -1    0    0  502    0  0.00000000000E+00  0.00000000000E+00  0.14212585888E+04  0.14212585888E+04  0.00000000000E+00 0. -1.
          1   -1    0    0  501    0 -0.00000000000E+00 -0.00000000000E+00 -0.84576878692E+03  0.84576878692E+03  0.00000000000E+00 0. -1.
         25    2    1    2    0    0  0.32843149638E+01  0.69212816406E+01 -0.36634300926E+03  0.38716428494E+03  0.12502116714E+03 0.  0.
          2    1    1    2  501    0  0.32425713543E+02 -0.11383075667E+02 -0.46815572564E+03  0.46941536485E+03  0.00000000000E+00 0. -1.
          1    1    1    2  502    0 -0.35710028507E+02  0.44617940264E+01  0.14099885368E+04  0.14104477260E+04  0.00000000000E+00 0. -1.
         22    1    3    3    0    0  0.45358645278E+02 -0.27257164668E+02 -0.81249397501E+02  0.96963004911E+02  0.00000000000E+00 0.  1.
         22    1    3    3    0    0 -0.42074330314E+02  0.34178446308E+02 -0.28509361176E+03  0.29020128002E+03  0.00000000000E+00 0.  1.
</event>
<event>
 7    1  0.5977291E-006  0.1068003E+03  0.7818608E-02  0.1380791E+00
          2   -1    0    0  502    0  0.00000000000E+00  0.00000000000E+00  0.95775043337E+02  0.95775043337E+02  0.00000000000E+00 0. -1.
          1   -1    0    0  501    0 -0.00000000000E+00 -0.00000000000E+00 -0.49619020396E+03  0.49619020396E+03  0.00000000000E+00 0. -1.
         25    2    1    2    0    0 -0.12599089133E+03 -0.16642600686E+02 -0.16173011262E+03  0.24069210836E+03  0.12500152336E+03 0.  0.
          2    1    1    2  501    0  0.24133156011E+02  0.30202054154E+02 -0.24527757191E+03  0.24830557903E+03  0.00000000000E+00 0. -1.
          1    1    1    2  502    0  0.10185773532E+03 -0.13559453468E+02  0.65925239130E+01  0.10296755991E+03  0.00000000000E+00 0. -1.
         22    1    3    3    0    0 -0.14688587896E+03 -0.31243537519E+02 -0.12197780043E+03  0.19346887055E+03  0.00000000000E+00 0. -1.
         22    1    3    3    0    0  0.20894987629E+02  0.14600936833E+02 -0.39752312199E+02  0.47223237813E+02  0.00000000000E+00 0. -1.
</event>
<event>
 7    1  0.5977291E-006  0.9091538E+02  0.7818608E-02  0.1317790E+00
          2   -1    0    0  502    0  0.00000000000E+00  0.00000000000E+00  0.16971105118E+04  0.16971105118E+04  0.00000000000E+00 0. -1.
          1   -1    0    0  501    0 -0.00000000000E+00 -0.00000000000E+00 -0.94445119969E+03  0.94445119969E+03  0.00000000000E+00 0. -1.
         25    2    1    2    0    0 -0.35953826144E+02  0.61888083391E+02  0.21648076248E+03  0.26002125644E+03  0.12499728316E+03 0.  0.
          2    1    1    2  501    0 -0.57779240710E+02 -0.52107124451E+02 -0.91951430206E+03  0.92280016513E+03  0.00000000000E+00 0. -1.
          1    1    1    2  502    0  0.93733066853E+02 -0.97809589407E+01  0.14556928517E+04  0.14587402899E+04  0.00000000000E+00 0. -1.
         22    1    3    3    0    0  0.15593863004E+02  0.15017385779E+01  0.16422856154E+03  0.16497407132E+03  0.00000000000E+00 0. -1.
         22    1    3    3    0    0 -0.51547689148E+02  0.60386344813E+02  0.52252200938E+02  0.95047185120E+02  0.00000000000E+00 0. -1.
</event>
<event>
 7    1  0.5977291E-006  0.7372761E+02  0.7818608E-02  0.1447645E+00
          2   -1    0    0  502    0  0.00000000000E+00  0.00000000000E+00  0.28387410674E+03  0.28387410674E+03  0.00000000000E+00 0. -1.
          1   -1    0    0  501    0 -0.00000000000E+00 -0.00000000000E+00 -0.19390926013E+04  0.19390926013E+04  0.00000000000E+00 0. -1.
         25    2    1    2    0    0 -0.51036893798E+02 -0.72124304964E+02  0.17950105060E+03  0.23590601352E+03  0.12499736059E+03 0.  0.
          2    1    1    2  501    0  0.32555056641E+02  0.71693467664E+01 -0.18957459485E+04  0.18960390113E+04  0.00000000000E+00 0. -1.
          1    1    1    2  502    0  0.18481837158E+02  0.64954958198E+02  0.61026403359E+02  0.91021683165E+02  0.00000000000E+00 0. -1.
         22    1    3    3    0    0 -0.69420614084E+02  0.75060632945E+01  0.99383746746E+02  0.12146065932E+03  0.00000000000E+00 0. -1.
         22    1    3    3    0    0  0.18383720285E+02 -0.79630368259E+02  0.80117303853E+02  0.11444535420E+03  0.00000000000E+00 0. -1.
</event>
<event>
 7    1  0.5977291E-006  0.2923526E+02  0.7818608E-02  0.1625791E+00
          2   -1    0    0  502    0  0.00000000000E+00  0.00000000000E+00  0.53490487860E+03  0.53490487860E+03  0.00000000000E+00 0. -1.
          1   -1    0    0  501    0 -0.00000000000E+00 -0.00000000000E+00 -0.55741330756E+03  0.55741330756E+03  0.00000000000E+00 0. -1.
         25    2    1    2    0    0  0.10360324009E+02  0.51708371348E+02  0.81151288306E+02  0.15808643849E+03  0.12499879383E+03 0.  0.
          2    1    1    2  501    0 -0.12667469674E+02 -0.22847831202E+02 -0.51811160173E+03  0.51876981411E+03  0.00000000000E+00 0. -1.
          1    1    1    2  502    0  0.23071456650E+01 -0.28860540146E+02  0.41445188447E+03  0.41546193357E+03  0.00000000000E+00 0. -1.
         22    1    3    3    0    0 -0.56726649245E+01 -0.68836489938E+00 -0.31925471659E+02  0.32432833891E+02  0.00000000000E+00 0. -1.
         22    1    3    3    0    0  0.16032988934E+02  0.52396736247E+02  0.11307675996E+03  0.12565360459E+03  0.00000000000E+00 0. -1.
</event>
<event>
 7    1  0.5977291E-006  0.9507707E+02  0.7818608E-02  0.1342243E+00
          2   -1    0    0  502    0  0.00000000000E+00  0.00000000000E+00  0.10150224242E+04  0.10150224242E+04  0.00000000000E+00 0. -1.
          1   -1    0    0  501    0 -0.00000000000E+00 -0.00000000000E+00 -0.86204203145E+03  0.86204203145E+03  0.00000000000E+00 0. -1.
         25    2    1    2    0    0 -0.71135017785E+02 -0.21278645338E+02  0.94192924590E+02  0.17323444435E+03  0.12499957666E+03 0.  0.
          2    1    1    2  501    0  0.54420429297E+02  0.78902060579E+02 -0.81870101284E+03  0.82429270694E+03  0.00000000000E+00 0. -1.
          1    1    1    2  502    0  0.16714588489E+02 -0.57623415241E+02  0.87748848100E+03  0.87953730435E+03  0.00000000000E+00 0. -1.
         22    1    3    3    0    0 -0.37689905337E+02  0.41277813041E+02  0.84962532542E+02  0.10170063299E+03  0.00000000000E+00 0.  1.
         22    1    3    3    0    0 -0.33445112448E+02 -0.62556458379E+02  0.92303920475E+01  0.71533811369E+02  0.00000000000E+00 0.  1.
</event>
<event>
 7    1  0.5977291E-006  0.1428736E+03  0.7818608E-02  0.1362554E+00
          2   -1    0    0  502    0  0.00000000000E+00  0.00000000000E+00  0.26899490111E+03  0.26899490111E+03  0.00000000000E+00 0. -1.
          1   -1    0    0  501    0 -0.00000000000E+00 -0.00000000000E+00 -0.18861590290E+04  0.18861590290E+04  0.00000000000E+00 0. -1.
         25    2    1    2    0    0  0.13669307440E+03  0.32610638714E+02 -0.22619128284E+02  0.18943414274E+03  0.12500087650E+03 0.  0.
          2    1    1    2  501    0 -0.79758509662E+01  0.32634908234E+02 -0.17518940193E+04  0.17522161129E+04  0.00000000000E+00 0. -1.
          1    1    1    2  502    0 -0.12871722344E+03 -0.65245546949E+02  0.15734901970E+03  0.21350367446E+03  0.00000000000E+00 0. -1.
         22    1    3    3    0    0  0.14969289716E+03  0.65269364263E+01 -0.40538454802E+02  0.15522219776E+03  0.00000000000E+00 0.  1.
         22    1    3    3    0    0 -0.12999822756E+02  0.26083702288E+02  0.17919326518E+02  0.34211944984E+02  0.00000000000E+00 0.  1.
</event>
<event>
 7    1  0.5977291E-006  0.7144828E+02  0.7818608E-02  0.1503132E+00
          2   -1    0    0  502    0  0.00000000000E+00  0.00000000000E+00  0.71340167187E+03  0.71340167187E+03  0.00000000000E+00 0. -1.
          1   -1    0    0  501    0 -0.00000000000E+00 -0.00000000000E+00 -0.78341081406E+03  0.78341081406E+03  0.00000000000E+00 0. -1.
         25    2    1    2    0    0 -0.77734918645E+02 -0.43715706171E+02  0.63036930613E+00  0.15355500629E+03  0.12499984819E+03 0.  0.
          2    1    1    2  501    0  0.67228654752E+02  0.23050176354E+02 -0.70495000933E+03  0.70852347760E+03  0.00000000000E+00 0. -1.
          1    1    1    2  502    0  0.10506263893E+02  0.20665529817E+02  0.63431049783E+03  0.63473400205E+03  0.00000000000E+00 0. -1.
         22    1    3    3    0    0  0.21334312502E+02  0.22619932120E+02 -0.12695154273E+02  0.33585430785E+02  0.00000000000E+00 0.  1.
         22    1    3    3    0    0 -0.99069231147E+02 -0.66335638291E+02  0.13325523579E+02  0.11996957550E+03  0.00000000000E+00 0.  1.
</event>
<event>
 7    1  0.5977291E-006  0.7179717E+02  0.7818608E-02  0.1356303E+00
          2   -1    0    0  502    0  0.00000000000E+00  0.00000000000E+00  0.47105606421E+03  0.47105606421E+03  0.00000000000E+00 0. -1.
          1   -1    0    0  501    0 -0.00000000000E+00 -0.00000000000E+00 -0.38193056288E+03  0.38193056288E+03  0.00000000000E+00 0. -1.
         25    2    1    2    0    0  0.11258229134E+01 -0.11189345730E+02  0.11945907865E+03  0.17326121329E+03  0.12499003010E+03 0.  0.
          2    1    1    2  501    0  0.35842814105E+02 -0.62210343382E+02 -0.34608495553E+03  0.35345385922E+03  0.00000000000E+00 0. -1.
          1    1    1    2  502    0 -0.36968637019E+02  0.73399689112E+02  0.31575137821E+03  0.32627155458E+03  0.00000000000E+00 0. -1.
         22    1    3    3    0    0 -0.60860760097E+02  0.17171718256E+01  0.46178501952E+02  0.76416194888E+02  0.00000000000E+00 0. -1.
         22    1    3    3    0    0  0.61986583011E+02 -0.12906517556E+02  0.73280576694E+02  0.96845018402E+02  0.00000000000E+00 0. -1.
</event>
<event>
 7    1  0.5977291E-006  0.1978099E+03  0.7818608E-02  0.1192553E+00
          2   -1    0    0  502    0  0.00000000000E+00  0.00000000000E+00  0.21879499457E+04  0.21879499457E+04  0.00000000000E+00 0. -1.
          1   -1    0    0  501    0 -0.00000000000E+00 -0.00000000000E+00 -0.50188452872E+03  0.50188452872E+03  0.00000000000E+00 0. -1.
         25    2    1    2    0    0  0.10782351446E+03  0.16301887886E+02  0.24611829284E+01  0.16590222214E+03  0.12500331224E+03 0.  0.
          2    1    1    2  501    0 -0.22427619795E+03 -0.58975895816E+02 -0.38616750583E+03  0.45044790133E+03  0.00000000000E+00 0. -1.
          1    1    1    2  502    0  0.11645268349E+03  0.42674007930E+02  0.20697717399E+04  0.20734843510E+04  0.00000000000E+00 0. -1.
         22    1    3    3    0    0  0.12707379057E+03  0.27055685068E+02  0.27225101612E+02  0.13274398104E+03  0.00000000000E+00 0. -1.
         22    1    3    3    0    0 -0.19250276113E+02 -0.10753797182E+02 -0.24763918683E+02  0.33158241100E+02  0.00000000000E+00 0. -1.
</event>
<event>
 7    1  0.5977291E-006  0.5928629E+02  0.7818608E-02  0.1468781E+00
          2   -1    0    0  502    0  0.00000000000E+00  0.00000000000E+00  0.25906173571E+04  0.25906173571E+04  0.00000000000E+00 0. -1.
          1   -1    0    0  501    0 -0.00000000000E+00 -0.00000000000E+00 -0.68495688917E+01  0.68495688917E+01  0.00000000000E+00 0. -1.
         25    2    1    2    0    0 -0.36607166011E+02  0.29494511849E+02  0.13457441974E+04  0.13523549605E+04  0.12500593397E+03 0.  0.
          2    1    1    2  501    0  0.63433041257E+02 -0.61806387361E+01  0.31387952861E+03  0.32028473191E+03  0.00000000000E+00 0. -1.
          1    1    1    2  502    0 -0.26825875246E+02 -0.23313873113E+02  0.92414406216E+03  0.92482723353E+03  0.00000000000E+00 0. -1.
         22    1    3    3    0    0  0.26394715403E+02 -0.23726054533E+02  0.76057724446E+03  0.76140485384E+03  0.00000000000E+00 0. -1.
         22    1    3    3    0    0 -0.63001881415E+02  0.53220566382E+02  0.58516695297E+03  0.59095010669E+03  0.00000000000E+00 0. -1.
</event>
<event>
 7    1  0.5977291E-006  0.7927759E+02  0.7818608E-02  0.1378478E+00
          2   -1    0    0  502    0  0.00000000000E+00  0.00000000000E+00  0.14932587232E+04  0.14932587232E+04  0.00000000000E+00 0. -1.
          1   -1    0    0  501    0 -0.00000000000E+00 -0.00000000000E+00 -0.15469197271E+04  0.15469197271E+04  0.00000000000E+00 0. -1.
         25    2    1    2    0    0 -0.43894910176E+02 -0.27872647094E+01  0.42313240744E+03  0.44339812557E+03  0.12500532607E+03 0.  0.
          2    1    1    2  501    0 -0.33438497273E+02  0.41214624824E+02 -0.15345685910E+04  0.15354860920E+04  0.00000000000E+00 0. -1.
          1    1    1    2  502    0  0.77333407449E+02 -0.38427360115E+02  0.10577751796E+04  0.10612942328E+04  0.00000000000E+00 0. -1.
         22    1    3    3    0    0 -0.60405207262E+02 -0.48159125226E+02  0.32467456675E+03  0.33373891697E+03  0.00000000000E+00 0. -1.
         22    1    3    3    0    0  0.16510297086E+02  0.45371860516E+02  0.98457840689E+02  0.10965920860E+03  0.00000000000E+00 0. -1.
</event>
<event>
 7    1  0.5977291E-006  0.2661339E+03  0.7818608E-02  0.1332395E+00
          2   -1    0    0  502    0  0.00000000000E+00  0.00000000000E+00  0.12904936512E+04  0.12904936512E+04  0.00000000000E+00 0. -1.
          1   -1    0    0  501    0 -0.00000000000E+00 -0.00000000000E+00 -0.13272898733E+04  0.13272898733E+04  0.00000000000E+00 0. -1.
         25    2    1    2    0    0  0.18285995477E+03 -0.18087796147E+03 -0.13471844310E+03  0.31611420588E+03  0.12499812896E+03 0.  0.
          2    1    1    2  501    0  0.21419233387E+02  0.93019341388E+01 -0.10869173302E+04  0.10871681527E+04  0.00000000000E+00 0. -1.
          1    1    1    2  502    0 -0.20427918816E+03  0.17157602733E+03  0.11848395512E+04  0.12145011659E+04  0.00000000000E+00 0. -1.
         22    1    3    3    0    0  0.17461316980E+03 -0.94782008935E+02 -0.10458748576E+03  0.22452601289E+03  0.00000000000E+00 0.  1.
         22    1    3    3    0    0  0.82467849668E+01 -0.86095952533E+02 -0.30130957334E+02  0.91588192987E+02  0.00000000000E+00 0.  1.
</event>
<event>
 7    1  0.5977291E-006  0.1204065E+03  0.7818608E-02  0.1269322E+00
          2   -1    0    0  502    0  0.00000000000E+00  0.00000000000E+00  0.38374612390E+03  0.38374612390E+03  0.00000000000E+00 0. -1.
          1   -1    0    0  501    0 -0.00000000000E+00 -0.00000000000E+00 -0.18979574648E+03  0.18979574648E+03  0.00000000000E+00 0. -1.
         25    2    1    2    0    0 -0.14842995689E+03 -0.67243437410E+02  0.68599424394E+02  0.21653139756E+03  0.12500733228E+03 0.  0.
          2    1    1    2  501    0  0.33894841590E+02  0.85823704189E+02 -0.79356735293E+02  0.12170480649E+03  0.00000000000E+00 0. -1.
          1    1    1    2  502    0  0.11453511530E+03 -0.18580266779E+02  0.20470768832E+03  0.23530566633E+03  0.00000000000E+00 0. -1.
         22    1    3    3    0    0 -0.60493824210E+01 -0.44901370951E+02 -0.17591131276E+02  0.48602222589E+02  0.00000000000E+00 0. -1.
         22    1    3    3    0    0 -0.14238057447E+03 -0.22342066459E+02  0.86190555671E+02  0.16792917497E+03  0.00000000000E+00 0. -1.
</event>
<event>
 7    1  0.5977291E-006  0.1126847E+03  0.7818608E-02  0.1329057E+00
          2   -1    0    0  502    0  0.00000000000E+00  0.00000000000E+00  0.11957097436E+04  0.11957097436E+04  0.00000000000E+00 0. -1.
          1   -1    0    0  501    0 -0.00000000000E+00 -0.00000000000E+00 -0.90790422134E+02  0.90790422134E+02  0.00000000000E+00 0. -1.
         25    2    1    2    0    0 -0.52077017046E+02 -0.14710187822E+03  0.89485969410E+02  0.21904563586E+03  0.12498909387E+03 0.  0.
          2    1    1    2  501    0  0.43459739422E+02  0.36560478390E+02  0.12168889831E+02  0.58081833739E+02  0.00000000000E+00 0. -1.
          1    1    1    2  502    0  0.86172776238E+01  0.11054139982E+03  0.10032644622E+04  0.10093726962E+04  0.00000000000E+00 0. -1.
         22    1    3    3    0    0 -0.15314801274E+02  0.19973822841E+02 -0.16285434157E+01  0.25221992201E+02  0.00000000000E+00 0. -1.
         22    1    3    3    0    0 -0.36762215772E+02 -0.16707570106E+03  0.91114512826E+02  0.19382364365E+03  0.00000000000E+00 0. -1.
</event>
<event>
 7    1  0.5977291E-006  0.1166321E+03  0.7818608E-02  0.1346492E+00
          2   -1    0    0  502    0  0.00000000000E+00  0.00000000000E+00  0.28436173904E+04  0.28436173904E+04  0.00000000000E+00 0. -1.
          1   -1    0    0  501    0 -0.00000000000E+00 -0.00000000000E+00 -0.45073744961E+03  0.45073744961E+03  0.00000000000E+00 0. -1.
         25    2    1    2    0    0 -0.31650866918E+02  0.87024020568E+02  0.66891992954E+01  0.15570754832E+03  0.12500055074E+03 0.  0.
          2    1    1    2  501    0  0.36356939531E+02  0.30028244512E+02 -0.37350323189E+03  0.37646804214E+03  0.00000000000E+00 0. -1.
          1    1    1    2  502    0 -0.47060726125E+01 -0.11705226508E+03  0.27596939734E+04  0.27621792496E+04  0.00000000000E+00 0. -1.
         22    1    3    3    0    0 -0.27341061256E+02  0.97663249789E+02 -0.38954862634E+02  0.10864218938E+03  0.00000000000E+00 0.  1.
         22    1    3    3    0    0 -0.43098056623E+01 -0.10639229221E+02  0.45644061930E+02  0.47065358946E+02  0.00000000000E+00 0.  1.
</event>
<event>
 7    1  0.5977291E-006  0.4394957E+02  0.7818608E-02  0.1570737E+00
          2   -1    0    0  502    0  0.00000000000E+00  0.00000000000E+00  0.58935823625E+03  0.58935823625E+03  0.00000000000E+00 0. -1.
          1   -1    0    0  501    0 -0.00000000000E+00 -0.00000000000E+00 -0.12081314713E+04  0.12081314713E+04  0.00000000000E+00 0. -1.
         25    2    1    2    0    0  0.28448828158E+02  0.36635328674E+02 -0.61170754768E+02  0.14669346934E+03  0.12500251829E+03 0.  0.
          2    1    1    2  501    0 -0.23179001464E+02  0.70324481996E+01 -0.11031813393E+04  0.11034472297E+04  0.00000000000E+00 0. -1.
          1    1    1    2  502    0 -0.52698266939E+01 -0.43667776874E+02  0.54557885895E+03  0.54734900853E+03  0.00000000000E+00 0. -1.
         22    1    3    3    0    0 -0.49721425042E+01 -0.11123034138E+02 -0.83416809882E+02  0.84301887645E+02  0.00000000000E+00 0.  1.
         22    1    3    3    0    0  0.33420970662E+02  0.47758362812E+02  0.22246055114E+02  0.62391581696E+02  0.00000000000E+00 0.  1.
</event>
<event>
 7    1  0.5977291E-006  0.8339174E+02  0.7818608E-02  0.1326728E+00
          2   -1    0    0  502    0  0.00000000000E+00  0.00000000000E+00  0.17957105942E+04  0.17957105942E+04  0.00000000000E+00 0. -1.
          1   -1    0    0  501    0 -0.00000000000E+00 -0.00000000000E+00 -0.27379901770E+03  0.27379901770E+03  0.00000000000E+00 0. -1.
         25    2    1    2    0    0 -0.13633912703E+03 -0.53076685583E+02  0.85517132305E+02  0.21057973570E+03  0.12500061222E+03 0.  0.
          2    1    1    2  501    0  0.53876667444E+02  0.56866613027E+02 -0.20293176121E+03  0.21752656546E+03  0.00000000000E+00 0. -1.
          1    1    1    2  502    0  0.82462459589E+02 -0.37899274440E+01  0.16393262054E+04  0.16414033107E+04  0.00000000000E+00 0. -1.
         22    1    3    3    0    0 -0.31897145247E+02 -0.13562455967E+02 -0.32918957937E+02  0.47801944295E+02  0.00000000000E+00 0.  1.
         22    1    3    3    0    0 -0.10444198179E+03 -0.39514229616E+02  0.11843609024E+03  0.16277779140E+03  0.00000000000E+00 0.  1.
</event>
<event>
 7    1  0.5977291E-006  0.7343676E+02  0.7818608E-02  0.1452819E+00
          2   -1    0    0  502    0  0.00000000000E+00  0.00000000000E+00  0.24494111971E+02  0.24494111971E+02  0.00000000000E+00 0. -1.
          1   -1    0    0  501    0 -0.00000000000E+00 -0.00000000000E+00 -0.15555793312E+04  0.15555793312E+04  0.00000000000E+00 0. -1.
         25    2    1    2    0    0  0.22901353386E+02  0.81370004759E+02 -0.32189320354E+03  0.35550810580E+03  0.12500091657E+03 0.  0.
          2    1    1    2  501    0 -0.44795966786E+02 -0.57737580665E+02 -0.11761473356E+04  0.11784154029E+04  0.00000000000E+00 0. -1.
          1    1    1    2  502    0  0.21894613400E+02 -0.23632424094E+02 -0.33044680067E+02  0.46149934401E+02  0.00000000000E+00 0. -1.
         22    1    3    3    0    0 -0.50445266418E+02  0.20854992171E+02 -0.96321707247E+02  0.11071371590E+03  0.00000000000E+00 0. -1.
         22    1    3    3    0    0  0.73346619804E+02  0.60515012588E+02 -0.22557149630E+03  0.24479438990E+03  0.00000000000E+00 0. -1.
</event>
<event>
 7    1  0.5977291E-006  0.6741208E+02  0.7818608E-02  0.1376797E+00
          2   -1    0    0  502    0  0.00000000000E+00  0.00000000000E+00  0.35425818594E+03  0.35425818594E+03  0.00000000000E+00 0. -1.
          1   -1    0    0  501    0 -0.00000000000E+00 -0.00000000000E+00 -0.76158076131E+03  0.76158076131E+03  0.00000000000E+00 0. -1.
         25    2    1    2    0    0 -0.11608360980E+03  0.17674101302E+02  0.26983431336E+02  0.17361068610E+03  0.12499914576E+03 0.  0.
          2    1    1    2  501    0  0.55747128273E+02 -0.36749529893E+02 -0.68267101316E+03  0.68592855493E+03  0.00000000000E+00 0. -1.
          1    1    1    2  502    0  0.60336481529E+02  0.19075428591E+02  0.24836500645E+03  0.25629970622E+03  0.00000000000E+00 0. -1.
         22    1    3    3    0    0 -0.13843465929E+03 -0.85816089999E+00  0.74912629040E+01  0.13863985846E+03  0.00000000000E+00 0. -1.
         22    1    3    3    0    0  0.22351049490E+02  0.18532262202E+02  0.19492168432E+02  0.34970827640E+02  0.00000000000E+00 0. -1.
</event>
<event>
 7    1  0.5977291E-006  0.6735098E+02  0.7818608E-02  0.1450568E+00
          2   -1    0    0  502    0  0.00000000000E+00  0.00000000000E+00  0.65042113654E+03  0.65042113654E+03  0.00000000000E+00 0. -1.
          1   -1    0    0  501    0 -0.00000000000E+00 -0.00000000000E+00 -0.15509060263E+04  0.15509060263E+04  0.00000000000E+00 0. -1.
         25    2    1    2    0    0  0.13505376825E+02 -0.31111677893E+02 -0.17160552760E+03  0.21499753000E+03  0.12500059639E+03 0.  0.
          2    1    1    2  501    0 -0.16502122103E+02  0.66698665876E+02 -0.13562269586E+04  0.13579663455E+04  0.00000000000E+00 0. -1.
          1    1    1    2  502    0  0.29967452783E+01 -0.35586987983E+02  0.62734759645E+03  0.62836328741E+03  0.00000000000E+00 0. -1.
         22    1    3    3    0    0 -0.32198921554E+01  0.29986991877E+02 -0.14183165100E+03  0.14500277450E+03  0.00000000000E+00 0.  1.
         22    1    3    3    0    0  0.16725268980E+02 -0.61098669770E+02 -0.29773876606E+02  0.69994755506E+02  0.00000000000E+00 0.  1.
</event>
<event>
 7    1  0.5977291E-006  0.7113398E+02  0.7818608E-02  0.1388936E+00
          2   -1    0    0  502    0  0.00000000000E+00  0.00000000000E+00  0.14237133208E+04  0.14237133208E+04  0.00000000000E+00 0. -1.
          1   -1    0    0  501    0 -0.00000000000E+00 -0.00000000000E+00 -0.15483719479E+03  0.15483719479E+03  0.00000000000E+00 0. -1.
         25    2    1    2    0    0 -0.67958833745E+02  0.88412208170E+02  0.22075462562E+03  0.27711551981E+03  0.12500113979E+03 0.  0.
          2    1    1    2  501    0  0.17768948907E+02 -0.67586209537E+02 -0.11633519633E+03  0.13571112397E+03  0.00000000000E+00 0. -1.
          1    1    1    2  502    0  0.50189884839E+02 -0.20825998633E+02  0.11644566968E+04  0.11657238718E+04  0.00000000000E+00 0. -1.
         22    1    3    3    0    0  0.14410318402E+02  0.55059034068E+02  0.15905447257E+03  0.16893039914E+03  0.00000000000E+00 0. -1.
         22    1    3    3    0    0 -0.82369152148E+02  0.33353174102E+02  0.61700153054E+02  0.10818512067E+03  0.00000000000E+00 0. -1.
</event>
<event>
 7    1  0.5977291E-006  0.9695741E+02  0.7818608E-02  0.1363191E+00
          2   -1    0    0  502    0  0.00000000000E+00  0.00000000000E+00  0.55560448924E+03  0.55560448924E+03  0.00000000000E+00 0. -1.
          1   -1    0    0  501    0 -0.00000000000E+00 -0.00000000000E+00 -0.19281381847E+03  0.19281381847E+03  0.00000000000E+00 0. -1.
         25    2    1    2    0    0  0.85387191612E+02 -0.70177151299E+02  0.27420457402E+03  0.32098160552E+03  0.12500095044E+03 0.  0.
          2    1    1    2  501    0 -0.94359426066E+02  0.21759281497E+02 -0.15289789347E+03  0.18098324079E+03  0.00000000000E+00 0. -1.
          1    1    1    2  502    0  0.89722344544E+01  0.48417869803E+02  0.24148399022E+03  0.24645346141E+03  0.00000000000E+00 0. -1.
         22    1    3    3    0    0  0.82527135096E+02  0.13003196148E+02  0.13234339702E+03  0.15650746267E+03  0.00000000000E+00 0. -1.
         22    1    3    3    0    0  0.28600565156E+01 -0.83180347447E+02  0.14186117700E+03  0.16447414284E+03  0.00000000000E+00 0. -1.
</event>
<event>
 7    1  0.5977291E-006  0.1735899E+03  0.7818608E-02  0.1276327E+00
          2   -1    0    0  502    0  0.00000000000E+00  0.00000000000E+00  0.20686594906E+03  0.20686594906E+03  0.00000000000E+00 0. -1.
          1   -1    0    0  501    0 -0.00000000000E+00 -0.00000000000E+00 -0.19022050054E+04  0.19022050054E+04  0.00000000000E+00 0. -1.
         25    2    1    2    0    0 -0.63837607299E+02  0.17215718392E+03 -0.14299754796E+04  0.14471242417E+04  0.12500144974E+03 0.  0.
          2    1    1    2  501    0  0.59814332193E+02  0.13789124733E+01 -0.42315506472E+03  0.42736385497E+03  0.00000000000E+00 0. -1.
          1    1    1    2  502    0  0.40232751064E+01 -0.17353609639E+03  0.15779148801E+03  0.23458285781E+03  0.00000000000E+00 0. -1.
         22    1    3    3    0    0  0.32423715638E+01 -0.11570465002E+02 -0.30755542153E+03  0.30779006798E+03  0.00000000000E+00 0. -1.
         22    1    3    3    0    0 -0.67079978863E+02  0.18372764892E+03 -0.11224200581E+04  0.11393341737E+04  0.00000000000E+00 0. -1.
</event>
<event>
 7    1  0.5977291E-006  0.2913403E+02  0.7818608E-02  0.1608699E+00
          2   -1    0    0  502    0  0.00000000000E+00  0.00000000000E+00  0.77716109573E+03  0.77716109573E+03  0.00000000000E+00 0. -1.
          1   -1    0    0  501    0 -0.00000000000E+00 -0.00000000000E+00 -0.19310837165E+03  0.19310837165E+03  0.00000000000E+00 0. -1.
         25    2    1    2    0    0  0.29261667143E+02 -0.51094323501E+01  0.26174815475E+03  0.29158154680E+03  0.12500140182E+03 0.  0.
          2    1    1    2  501    0 -0.18729545085E+02 -0.22315815335E+02 -0.17656580241E+03  0.17895327338E+03  0.00000000000E+00 0. -1.
          1    1    1    2  502    0 -0.10532122058E+02  0.27425247685E+02  0.49887037175E+03  0.49973464720E+03  0.00000000000E+00 0. -1.
         22    1    3    3    0    0  0.16227499592E+02  0.25091586244E+01  0.27253330107E+03  0.27302752208E+03  0.00000000000E+00 0. -1.
         22    1    3    3    0    0  0.13034167551E+02 -0.76185909745E+01 -0.10785146321E+02  0.18554024721E+02  0.00000000000E+00 0. -1.
</event>
<event>
 7    1  0.5977291E-006  0.8784496E+02  0.7818608E-02  0.1445387E+00
          2   -1    0    0  502    0  0.00000000000E+00  0.00000000000E+00  0.12805395158E+04  0.12805395158E+04  0.00000000000E+00 0. -1.
          1   -1    0    0  501    0 -0.00000000000E+00 -0.00000000000E+00 -0.13861676064E+04  0.13861676064E+04  0.00000000000E+00 0. -1.
         25    2    1    2    0    0  0.26698767024E+02  0.10681942180E+03  0.68059753976E+02  0.17994729848E+03  0.12500274830E+03 0.  0.
          2    1    1    2  501    0 -0.59013276907E+01 -0.87406849963E+02 -0.13286060819E+04  0.13314912332E+04  0.00000000000E+00 0. -1.
          1    1    1    2  502    0 -0.20797439333E+02 -0.19412571841E+02  0.11549182373E+04  0.11552685906E+04  0.00000000000E+00 0. -1.
         22    1    3    3    0    0  0.24687578203E+02 -0.21486694434E+02  0.33977275441E+02  0.47176369102E+02  0.00000000000E+00 0. -1.
         22    1    3    3    0    0  0.20111888207E+01  0.12830611624E+03  0.34082478534E+02  0.13277092938E+03  0.00000000000E+00 0. -1.
</event>
<event>
 7    1  0.5977291E-006  0.1374552E+03  0.7818608E-02  0.1322723E+00
          2   -1    0    0  502    0  0.00000000000E+00  0.00000000000E+00  0.24977674559E+04  0.24977674559E+04  0.00000000000E+00 0. -1.
          1   -1    0    0  501    0 -0.00000000000E+00 -0.00000000000E+00 -0.14029080655E+04  0.14029080655E+04  0.00000000000E+00 0. -1.
         25    2    1    2    0    0 -0.85739641550E+02  0.77003440943E+02  0.10087467220E+04  0.10229741366E+04  0.12500127575E+03 0.  0.
          2    1    1    2  501    0  0.29093368650E+01  0.49157679571E+02 -0.13915151018E+04  0.13923861606E+04  0.00000000000E+00 0. -1.
          1    1    1    2  502    0  0.82830304685E+02 -0.12616112051E+03  0.14776277702E+04  0.14853152241E+04  0.00000000000E+00 0. -1.
         22    1    3    3    0    0  0.31297270267E+02  0.87538985131E+01  0.13971677961E+03  0.14344660459E+03  0.00000000000E+00 0. -1.
         22    1    3    3    0    0 -0.11703691182E+03  0.68249542430E+02  0.86902994243E+03  0.87952753204E+03  0.00000000000E+00 0. -1.
</event>
<event>
 7    1  0.5977291E-006  0.8820632E+02  0.7818608E-02  0.1333986E+00
          2   -1    0    0  502    0  0.00000000000E+00  0.00000000000E+00  0.18419846046E+04  0.18419846046E+04  0.00000000000E+00 0. -1.
          1   -1    0    0  501    0 -0.00000000000E+00 -0.00000000000E+00 -0.86057913253E+03  0.86057913253E+03  0.00000000000E+00 0. -1.
         25    2    1    2    0    0 -0.14513983140E+03 -0.37350092970E+02  0.58174404561E+03  0.61360582968E+03  0.12500151801E+03 0.  0.
          2    1    1    2  501    0  0.76008946826E+02  0.44329492263E+02 -0.84138221163E+03  0.84597073823E+03  0.00000000000E+00 0. -1.
          1    1    1    2  502    0  0.69130884577E+02 -0.69793992935E+01  0.12410436381E+04  0.12429871693E+04  0.00000000000E+00 0. -1.
         22    1    3    3    0    0 -0.68936956155E+02  0.28755797192E+02  0.38849403765E+03  0.39560942492E+03  0.00000000000E+00 0. -1.
         22    1    3    3    0    0 -0.76202875248E+02 -0.66105890162E+02  0.19325000796E+03  0.21799640476E+03  0.00000000000E+00 0. -1.
</event>
<event>
 7    1  0.5977291E-006  0.4182885E+02  0.7818608E-02  0.1535994E+00
          2   -1    0    0  502    0  0.00000000000E+00  0.00000000000E+00  0.40676539796E+02  0.40676539796E+02  0.00000000000E+00 0. -1.
          1   -1    0    0  501    0 -0.00000000000E+00 -0.00000000000E+00 -0.52562018127E+03  0.52562018127E+03  0.00000000000E+00 0. -1.
         25    2    1    2    0    0 -0.21559824427E+02  0.66477971061E+02 -0.17290054775E+03  0.22450813583E+03  0.12500062791E+03 0.  0.
          2    1    1    2  501    0  0.83598491600E+01 -0.30663289914E+02 -0.30012254915E+03  0.30180071062E+03  0.00000000000E+00 0. -1.
          1    1    1    2  502    0  0.13199975267E+02 -0.35814681147E+02 -0.11920544580E+02  0.39987874610E+02  0.00000000000E+00 0. -1.
         22    1    3    3    0    0 -0.54606977618E+02  0.88135728281E+02 -0.12360709841E+03  0.16133363996E+03  0.00000000000E+00 0. -1.
         22    1    3    3    0    0  0.33047153190E+02 -0.21657757220E+02 -0.49293449336E+02  0.63174495876E+02  0.00000000000E+00 0. -1.
</event>
<event>
 7    1  0.5977291E-006  0.6839520E+02  0.7818608E-02  0.1390689E+00
          2   -1    0    0  502    0  0.00000000000E+00  0.00000000000E+00  0.61055949985E+03  0.61055949985E+03  0.00000000000E+00 0. -1.
          1   -1    0    0  501    0 -0.00000000000E+00 -0.00000000000E+00 -0.14236870906E+03  0.14236870906E+03  0.00000000000E+00 0. -1.
         25    2    1    2    0    0 -0.18692137330E+02 -0.26180292954E+01  0.13545865707E+03  0.18528390493E+03  0.12499931031E+03 0.  0.
          2    1    1    2  501    0  0.68284791634E+02 -0.22794088889E+02 -0.10448862015E+03  0.12688678023E+03  0.00000000000E+00 0. -1.
          1    1    1    2  502    0 -0.49592654304E+02  0.25412118185E+02  0.43722075388E+03  0.44075752374E+03  0.00000000000E+00 0. -1.
         22    1    3    3    0    0 -0.25510053384E+02 -0.61756766531E+02  0.74658619490E+02  0.10019266690E+03  0.00000000000E+00 0. -1.
         22    1    3    3    0    0  0.68179160536E+01  0.59138737236E+02  0.60800037575E+02  0.85091238035E+02  0.00000000000E+00 0. -1.
</event>
<event>
 7    1  0.5977291E-006  0.2752125E+02  0.7818608E-02  0.1641749E+00
          2   -1    0    0  502    0  0.00000000000E+00  0.00000000000E+00  0.43196537843E+03  0.43196537843E+03  0.00000000000E+00 0. -1.
          1   -1    0    0  501    0 -0.00000000000E+00 -0.00000000000E+00 -0.28402420283E+03  0.28402420283E+03  0.00000000000E+00 0. -1.
         25    2    1    2    0    0 -0.23166540782E+02  0.14545994566E+02  0.16761609653E+03  0.21086506807E+03  0.12498258497E+03 0.  0.
          2    1    1    2  501    0  0.14364224478E+01 -0.27528875601E+02 -0.26101195503E+03  0.26246360314E+03  0.00000000000E+00 0. -1.
          1    1    1    2  502    0  0.21730118334E+02  0.12982881035E+02  0.24133703410E+03  0.24266091006E+03  0.00000000000E+00 0. -1.
         22    1    3    3    0    0 -0.72871854827E+02  0.21441598739E+02  0.83200907197E+02  0.11266073114E+03  0.00000000000E+00 0. -1.
         22    1    3    3    0    0  0.49705314045E+02 -0.68956041728E+01  0.84415189333E+02  0.98204336927E+02  0.00000000000E+00 0. -1.
</event>
<event>
 7    1  0.5977291E-006  0.1547843E+03  0.7818608E-02  0.1315405E+00
          2   -1    0    0  502    0  0.00000000000E+00  0.00000000000E+00  0.72036403790E+03  0.72036403790E+03  0.00000000000E+00 0. -1.
          1   -1    0    0  501    0 -0.00000000000E+00 -0.00000000000E+00 -0.15794691058E+04  0.15794691058E+04  0.00000000000E+00 0. -1.
         25    2    1    2    0    0  0.12583319810E+02  0.11822969317E+03 -0.31217735078E+03  0.35667239930E+03  0.12499560712E+03 0.  0.
          2    1    1    2  501    0 -0.33036274288E+02 -0.16020068398E+03 -0.12388817139E+04  0.12496333685E+04  0.00000000000E+00 0. -1.
          1    1    1    2  502    0  0.20452954478E+02  0.41970990811E+02  0.69195399681E+03  0.69352737590E+03  0.00000000000E+00 0. -1.
         22    1    3    3    0    0 -0.55578758518E+02  0.53677362783E+02 -0.11887726513E+03  0.14178174015E+03  0.00000000000E+00 0.  1.
         22    1    3    3    0    0  0.68162078329E+02  0.64552330383E+02 -0.19330008565E+03  0.21489065916E+03  0.00000000000E+00 0.  1.
</event>
<event>
 7    1  0.5977291E-006  0.7467928E+02  0.7818608E-02  0.1434818E+00
          2   -1    0    0  502    0  0.00000000000E+00  0.00000000000E+00  0.18976567715E+04  0.18976567715E+04  0.00000000000E+00 0. -1.
          1   -1    0    0  501    0 -0.00000000000E+00 -0.00000000000E+00 -0.10306036392E+03  0.10306036392E+03  0.00000000000E+00 0. -1.
         25    2    1    2    0    0 -0.58813184327E+02 -0.54599889538E+02  0.52127172588E+03  0.54202314905E+03  0.12499897327E+03 0.  0.
          2    1    1    2  501    0  0.26066696091E+02  0.70065959144E+02 -0.77327824705E+02  0.10755604934E+03  0.00000000000E+00 0. -1.
          1    1    1    2  502    0  0.32746488237E+02 -0.15466069607E+02  0.13506525064E+04  0.13511379370E+04  0.00000000000E+00 0. -1.
         22    1    3    3    0    0 -0.62024239293E+02 -0.21809151427E+02  0.10132920203E+03  0.12079011769E+03  0.00000000000E+00 0. -1.
         22    1    3    3    0    0  0.32110549662E+01 -0.32790738111E+02  0.41994252385E+03  0.42123303137E+03  0.00000000000E+00 0. -1.
</event>
<event>
 7    1  0.5977291E-006  0.1731736E+03  0.7818608E-02  0.1254122E+00
          2   -1    0    0  502    0  0.00000000000E+00  0.00000000000E+00  0.17767502969E+03  0.17767502969E+03  0.00000000000E+00 0. -1.
          1   -1    0    0  501    0 -0.00000000000E+00 -0.00000000000E+00 -0.54236002240E+03  0.54236002240E+03  0.00000000000E+00 0. -1.
         25    2    1    2    0    0 -0.13483630726E+03 -0.21661132595E+02 -0.38732835685E+02  0.18914458651E+03  0.12500163049E+03 0.  0.
          2    1    1    2  501    0 -0.68071316836E+02 -0.30183494717E+02 -0.31226154571E+03  0.32101716537E+03  0.00000000000E+00 0. -1.
          1    1    1    2  502    0  0.20290762410E+03  0.51844627312E+02 -0.13690611313E+02  0.20987330020E+03  0.00000000000E+00 0. -1.
         22    1    3    3    0    0 -0.34447606848E+02  0.19543759382E+02 -0.66257383376E+02  0.77192208158E+02  0.00000000000E+00 0.  1.
         22    1    3    3    0    0 -0.10038870042E+03 -0.41204891978E+02  0.27524547692E+02  0.11195237836E+03  0.00000000000E+00 0.  1.
</event>
<event>
 7    1  0.5977291E-006  0.6832156E+02  0.7818608E-02  0.1443060E+00
          2   -1    0    0  502    0  0.00000000000E+00  0.00000000000E+00  0.64607861427E+03  0.64607861427E+03  0.00000000000E+00 0. -1.
          1   -1    0    0  501    0 -0.00000000000E+00 -0.00000000000E+00 -0.34278620826E+03  0.34278620826E+03  0.00000000000E+00 0. -1.
         25    2    1    2    0    0 -0.80704967875E+01 -0.52071634501E+02  0.12788943460E+03  0.18643207822E+03  0.12499849707E+03 0.  0.
          2    1    1    2  501    0  0.45287257566E+02  0.51915224186E+02 -0.30900784856E+03  0.31659434087E+03  0.00000000000E+00 0. -1.
          1    1    1    2  502    0 -0.37216760779E+02  0.15641031518E+00  0.48441081997E+03  0.48583840343E+03  0.00000000000E+00 0. -1.
         22    1    3    3    0    0 -0.35763510701E+02 -0.71101571745E+01  0.12855088562E+03  0.13362227818E+03  0.00000000000E+00 0.  1.
         22    1    3    3    0    0  0.27693013913E+02 -0.44961477327E+02 -0.66145101750E+00  0.52809800042E+02  0.00000000000E+00 0.  1.
</event>
<event>
 7    1  0.5977291E-006  0.6668016E+02  0.7818608E-02  0.1442682E+00
          2   -1    0    0  502    0  0.00000000000E+00  0.00000000000E+00  0.41853671211E+02  0.41853671211E+02  0.00000000000E+00 0. -1.
          1   -1    0    0  501    0 -0.00000000000E+00 -0.00000000000E+00 -0.61520890873E+03  0.61520890873E+03  0.00000000000E+00 0. -1.
         25    2    1    2    0    0  0.12208847013E+02  0.47873302607E+02 -0.12752054878E+03  0.18524569418E+03  0.12495426284E+03 0.  0.
          2    1    1    2  501    0 -0.12006927190E+02  0.36306812125E+02 -0.30759835404E+03  0.30996628577E+03  0.00000000000E+00 0. -1.
          1    1    1    2  502    0 -0.20191982353E+00 -0.84180114732E+02 -0.13823633470E+03  0.16185060000E+03  0.00000000000E+00 0. -1.
         22    1    3    3    0    0  0.56919623209E+02  0.61404570020E+02 -0.10217645441E+03  0.13209993399E+03  0.00000000000E+00 0. -1.
         22    1    3    3    0    0 -0.44710776196E+02 -0.13531267413E+02 -0.25344094375E+02  0.53145760184E+02  0.00000000000E+00 0. -1.
</event>
<event>
 7    1  0.5977291E-006  0.1134309E+03  0.7818608E-02  0.1305597E+00
          2   -1    0    0  502    0  0.00000000000E+00  0.00000000000E+00  0.12786270611E+04  0.12786270611E+04  0.00000000000E+00 0. -1.
          1   -1    0    0  501    0 -0.00000000000E+00 -0.00000000000E+00 -0.12285234898E+04  0.12285234898E+04  0.00000000000E+00 0. -1.
         25    2    1    2    0    0 -0.94989440022E+02  0.44265386569E+02 -0.42192766470E+02  0.16848862147E+03  0.12500307140E+03 0.  0.
          2    1    1    2  501    0  0.40963041846E+02  0.56313857402E+02 -0.11194174252E+04  0.11215812914E+04  0.00000000000E+00 0. -1.
          1    1    1    2  502    0  0.54026398175E+02 -0.10057924397E+03  0.12117137630E+04  0.12170806380E+04  0.00000000000E+00 0. -1.
         22    1    3    3    0    0 -0.96930289896E+02  0.19612036758E+01  0.14179521277E+02  0.97981560729E+02  0.00000000000E+00 0. -1.
         22    1    3    3    0    0  0.19408498745E+01  0.42304182893E+02 -0.56372287747E+02  0.70507060741E+02  0.00000000000E+00 0. -1.
</event>
<event>
 7    1  0.5977291E-006  0.7006815E+02  0.7818608E-02  0.1481741E+00
          2   -1    0    0  502    0  0.00000000000E+00  0.00000000000E+00  0.94156572062E+03  0.94156572062E+03  0.00000000000E+00 0. -1.
          1   -1    0    0  501    0 -0.00000000000E+00 -0.00000000000E+00 -0.91750590847E+02  0.91750590847E+02  0.00000000000E+00 0. -1.
         25    2    1    2    0    0  0.20643714440E+02 -0.71117356413E+02  0.35303479762E+02  0.14952232858E+03  0.12500699873E+03 0.  0.
          2    1    1    2  501    0  0.22413876204E+02  0.15803275747E+02 -0.27518645484E+02  0.38851013115E+02  0.00000000000E+00 0. -1.
          1    1    1    2  502    0 -0.43057590644E+02  0.55314080666E+02  0.84203029550E+03  0.84494296977E+03  0.00000000000E+00 0. -1.
         22    1    3    3    0    0 -0.51303951255E+02 -0.13334386720E+02  0.13624523369E+02  0.54731425348E+02  0.00000000000E+00 0. -1.
         22    1    3    3    0    0  0.71947665695E+02 -0.57782969692E+02  0.21678956392E+02  0.94790903233E+02  0.00000000000E+00 0. -1.
</event>
<event>
 7    1  0.5977291E-006  0.6924286E+02  0.7818608E-02  0.1440766E+00
          2   -1    0    0  502    0  0.00000000000E+00  0.00000000000E+00  0.94349507472E+02  0.94349507472E+02  0.00000000000E+00 0. -1.
          1   -1    0    0  501    0 -0.00000000000E+00 -0.00000000000E+00 -0.75407045411E+03  0.75407045411E+03  0.00000000000E+00 0. -1.
         25    2    1    2    0    0 -0.39255867401E+02 -0.12510489503E+02 -0.19257698533E+03  0.23325558615E+03  0.12499895088E+03 0.  0.
          2    1    1    2  501    0 -0.32277768909E+02  0.18802840172E+02 -0.52291091952E+03  0.52424348438E+03  0.00000000000E+00 0. -1.
          1    1    1    2  502    0  0.71533636310E+02 -0.62923506693E+01  0.55766958209E+02  0.90920891046E+02  0.00000000000E+00 0. -1.
         22    1    3    3    0    0 -0.38506357140E+02 -0.23811756114E+02 -0.20869872208E+03  0.21355302823E+03  0.00000000000E+00 0.  1.
         22    1    3    3    0    0 -0.74951026094E+00  0.11301266612E+02  0.16121736754E+02  0.19702557920E+02  0.00000000000E+00 0.  1.
</event>
<event>
 7    1  0.5977291E-006  0.9845658E+02  0.7818608E-02  0.1372228E+00
          2   -1    0    0  502    0  0.00000000000E+00  0.00000000000E+00  0.17139234300E+04  0.17139234300E+04  0.00000000000E+00 0. -1.
          1   -1    0    0  501    0 -0.00000000000E+00 -0.00000000000E+00 -0.17890624811E+03  0.17890624811E+03  0.00000000000E+00 0. -1.
         25    2    1    2    0    0  0.14017575084E+02  0.11752240274E+03  0.10200205207E+03  0.20009364000E+03  0.12500015434E+03 0.  0.
          2    1    1    2  501    0  0.24229039062E+02 -0.93838789163E+02 -0.11140479884E+03  0.14766107777E+03  0.00000000000E+00 0. -1.
          1    1    1    2  502    0 -0.38246614146E+02 -0.23683613581E+02  0.15444199287E+04  0.15450749604E+04  0.00000000000E+00 0. -1.
         22    1    3    3    0    0  0.67550410899E+02  0.43068879640E+02  0.53743405891E+02  0.96469373808E+02  0.00000000000E+00 0.  1.
         22    1    3    3    0    0 -0.53532835816E+02  0.74453523104E+02  0.48258646181E+02  0.10362426619E+03  0.00000000000E+00 0.  1.
</event>
<event>
 7    1  0.5977291E-006  0.1224378E+03  0.7818608E-02  0.1329950E+00
          2   -1    0    0  502    0  0.00000000000E+00  0.00000000000E+00  0.36145400440E+03  0.36145400440E+03  0.00000000000E+00 0. -1.
          1   -1    0    0  501    0 -0.00000000000E+00 -0.00000000000E+00 -0.33424087994E+04  0.33424087994E+04  0.00000000000E+00 0. -1.
         25    2    1    2    0    0 -0.33306097836E+02  0.10961997089E+03  0.26562090718E+03  0.31513535711E+03  0.12501996962E+03 0.  0.
          2    1    1    2  501    0  0.29365997249E+02  0.42744326437E+02 -0.32354943184E+04  0.32359099066E+04  0.00000000000E+00 0. -1.
          1    1    1    2  502    0  0.39401005864E+01 -0.15236429733E+03 -0.11081383790E+02  0.15281754009E+03  0.00000000000E+00 0. -1.
         22    1    3    3    0    0 -0.67506633748E+02  0.94748368988E+02  0.12988307996E+03  0.17436746682E+03  0.00000000000E+00 0. -1.
         22    1    3    3    0    0  0.34200535913E+02  0.14871601904E+02  0.13573782722E+03  0.14076789029E+03  0.00000000000E+00 0. -1.
</event>
<event>
 7    1  0.5977291E-006  0.3738051E+02  0.7818608E-02  0.1574621E+00
          2   -1    0    0  502    0  0.00000000000E+00  0.00000000000E+00  0.28859154450E+03  0.28859154450E+03  0.00000000000E+00 0. -1.
          1   -1    0    0  501    0 -0.00000000000E+00 -0.00000000000E+00 -0.41339595744E+03  0.41339595744E+03  0.00000000000E+00 0. -1.
         25    2    1    2    0    0 -0.18169410554E+02 -0.20383408829E+02 -0.84468101118E+01  0.12822613693E+03  0.12499993102E+03 0.  0.
          2    1    1    2  501    0 -0.19633525446E+02  0.19678461342E+02 -0.34293054679E+03  0.34405534015E+03  0.00000000000E+00 0. -1.
          1    1    1    2  502    0  0.37802936000E+02  0.70494748632E+00  0.22657294396E+03  0.22970602486E+03  0.00000000000E+00 0. -1.
         22    1    3    3    0    0 -0.31191720414E+02  0.15641004287E+02 -0.56724543641E+02  0.66597584707E+02  0.00000000000E+00 0. -1.
         22    1    3    3    0    0  0.13022309860E+02 -0.36024413116E+02  0.48277733529E+02  0.61628552224E+02  0.00000000000E+00 0. -1.
</event>
<event>
 7    1  0.5977291E-006  0.5314409E+02  0.7818608E-02  0.1519958E+00
          2   -1    0    0  502    0  0.00000000000E+00  0.00000000000E+00  0.64043304704E+03  0.64043304704E+03  0.00000000000E+00 0. -1.
          1   -1    0    0  501    0 -0.00000000000E+00 -0.00000000000E+00 -0.56181599522E+03  0.56181599522E+03  0.00000000000E+00 0. -1.
         25    2    1    2    0    0  0.51488927924E+02  0.58398571656E+02 -0.20825687359E+03  0.25506368064E+03  0.12500021166E+03 0.  0.
          2    1    1    2  501    0 -0.38152577106E+02 -0.33989240862E+02 -0.32786234536E+03  0.33182013974E+03  0.00000000000E+00 0. -1.
          1    1    1    2  502    0 -0.13336350818E+02 -0.24409330794E+02  0.61473627077E+03  0.61536522187E+03  0.00000000000E+00 0. -1.
         22    1    3    3    0    0 -0.40815168398E+02  0.63827709095E+01 -0.58005802929E+02  0.71212996772E+02  0.00000000000E+00 0. -1.
         22    1    3    3    0    0  0.92304096321E+02  0.52015800747E+02 -0.15025107066E+03  0.18385068387E+03  0.00000000000E+00 0. -1.
</event>
<event>
 7    1  0.5977291E-006  0.3177706E+03  0.7818608E-02  0.1203337E+00
          2   -1    0    0  502    0  0.00000000000E+00  0.00000000000E+00  0.68315877876E+03  0.68315877876E+03  0.00000000000E+00 0. -1.
          1   -1    0    0  501    0 -0.00000000000E+00 -0.00000000000E+00 -0.20789982103E+04  0.20789982103E+04  0.00000000000E+00 0. -1.
         25    2    1    2    0    0  0.12982769597E+03 -0.29165711375E+03  0.41921632190E+02  0.34540004555E+03  0.12499866232E+03 0.  0.
          2    1    1    2  501    0 -0.65378214865E+02 -0.20921813648E+02 -0.18745415946E+04  0.18757980230E+04  0.00000000000E+00 0. -1.
          1    1    1    2  502    0 -0.64449481102E+02  0.31257892739E+03  0.43678053090E+03  0.54095892047E+03  0.00000000000E+00 0. -1.
         22    1    3    3    0    0 -0.21422349198E+02 -0.36842639314E+02  0.23111153664E+02  0.48481156550E+02  0.00000000000E+00 0.  1.
         22    1    3    3    0    0  0.15125004516E+03 -0.25481447443E+03  0.18810478526E+02  0.29691888900E+03  0.00000000000E+00 0.  1.
</event>
<event>
 7    1  0.5977291E-006  0.3740287E+02  0.7818608E-02  0.1621057E+00
          2   -1    0    0  502    0  0.00000000000E+00  0.00000000000E+00  0.10788290025E+04  0.10788290025E+04  0.00000000000E+00 0. -1.
          1   -1    0    0  501    0 -0.00000000000E+00 -0.00000000000E+00 -0.63727262503E+02  0.63727262503E+02  0.00000000000E+00 0. -1.
         25    2    1    2    0    0  0.24475269076E+02 -0.47633341473E+02  0.43913943824E+02  0.14291442279E+03  0.12501249443E+03 0.  0.
          2    1    1    2  501    0 -0.20685453167E+02  0.26986274240E+02  0.63675362182E+01  0.34593243380E+02  0.00000000000E+00 0. -1.
          1    1    1    2  502    0 -0.37898159089E+01  0.20647067233E+02  0.96482025993E+03  0.96504859880E+03  0.00000000000E+00 0. -1.
         22    1    3    3    0    0 -0.16722570569E+02  0.17446603432E+02  0.59596825013E+02  0.64310262706E+02  0.00000000000E+00 0.  1.
         22    1    3    3    0    0  0.41197839645E+02 -0.65079944905E+02 -0.15682881189E+02  0.78604160085E+02  0.00000000000E+00 0.  1.
</event>
<event>
 7    1  0.1165096E-005  0.1099203E+03  0.7818608E-02  0.1387661E+00
          2   -1    0    0  502    0  0.00000000000E+00  0.00000000000E+00  0.29465231143E+04  0.29465231143E+04  0.00000000000E+00 0. -1.
          1   -1    0    0  501    0 -0.00000000000E+00 -0.00000000000E+00 -0.11485277286E+04  0.11485277286E+04  0.00000000000E+00 0. -1.
         25    2    1    2    0    0  0.33696811628E+02 -0.11790734167E+03 -0.24940828185E+03  0.30474080302E+03  0.12499939854E+03 0.  0.
          2    1    1    2  501    0 -0.34611191142E+02  0.80196994913E+01 -0.87005619649E+03  0.87078127862E+03  0.00000000000E+00 0. -1.
          1    1    1    2  502    0  0.91437951430E+00  0.10988764218E+03  0.29174598640E+04  0.29195287613E+04  0.00000000000E+00 0. -1.
         22    1    3    3    0    0  0.63393240958E+02 -0.48721833807E+02 -0.19811248429E+03  0.21363772260E+03  0.00000000000E+00 0. -1.
         22    1    3    3    0    0 -0.29696429330E+02 -0.69185507866E+02 -0.51295797561E+02  0.91103080415E+02  0.00000000000E+00 0. -1.
</event>
<event>
 7    1  0.5977291E-006  0.2074281E+03  0.7818608E-02  0.1264485E+00
          2   -1    0    0  502    0  0.00000000000E+00  0.00000000000E+00  0.75808191374E+03  0.75808191374E+03  0.00000000000E+00 0. -1.
          1   -1    0    0  501    0 -0.00000000000E+00 -0.00000000000E+00 -0.12025946087E+04  0.12025946087E+04  0.00000000000E+00 0. -1.
         25    2    1    2    0    0  0.11353650051E+03  0.15966413242E+03 -0.24092953317E+03  0.33474598847E+03  0.12499865886E+03 0.  0.
          2    1    1    2  501    0 -0.42776137789E+02  0.36358676154E+02 -0.89859430771E+03  0.90034631179E+03  0.00000000000E+00 0. -1.
          1    1    1    2  502    0 -0.70760362718E+02 -0.19602280857E+03  0.69501114596E+03  0.72558422214E+03  0.00000000000E+00 0. -1.
         22    1    3    3    0    0  0.54747993975E+02 -0.73219728755E+01 -0.62096857908E+02  0.83108205931E+02  0.00000000000E+00 0.  1.
         22    1    3    3    0    0  0.58788506532E+02  0.16698610529E+03 -0.17883267526E+03  0.25163778254E+03  0.00000000000E+00 0.  1.
</event>
<event>
 7    1  0.5977291E-006  0.2458465E+02  0.7818608E-02  0.1685947E+00
          2   -1    0    0  502    0  0.00000000000E+00  0.00000000000E+00  0.78132136808E+03  0.78132136808E+03  0.00000000000E+00 0. -1.
          1   -1    0    0  501    0 -0.00000000000E+00 -0.00000000000E+00 -0.51277438803E+03  0.51277438803E+03  0.00000000000E+00 0. -1.
         25    2    1    2    0    0  0.17024410104E+01  0.25755125227E+02 -0.23336753929E+03  0.26599187457E+03  0.12500017665E+03 0.  0.
          2    1    1    2  501    0 -0.20075707942E+02 -0.94098463065E+01 -0.26242946967E+03  0.26336439739E+03  0.00000000000E+00 0. -1.
          1    1    1    2  502    0  0.18373266932E+02 -0.16345278920E+02  0.76434398901E+03  0.76473948415E+03  0.00000000000E+00 0. -1.
         22    1    3    3    0    0  0.68477539160E+01 -0.52725331106E+00  0.14835506503E+02  0.16348149220E+02  0.00000000000E+00 0. -1.
         22    1    3    3    0    0 -0.51453129055E+01  0.26282378538E+02 -0.24820304579E+03  0.24964372535E+03  0.00000000000E+00 0. -1.
</event>
<event>
 7    1  0.5977291E-006  0.7206475E+02  0.7818608E-02  0.1487920E+00
          2   -1    0    0  502    0  0.00000000000E+00  0.00000000000E+00  0.79277773784E+03  0.79277773784E+03  0.00000000000E+00 0. -1.
          1   -1    0    0  501    0 -0.00000000000E+00 -0.00000000000E+00 -0.38101341285E+03  0.38101341285E+03  0.00000000000E+00 0. -1.
         25    2    1    2    0    0  0.46606744060E+02  0.29484158379E+02  0.45940577672E+03  0.47929199276E+03  0.12500256979E+03 0.  0.
          2    1    1    2  501    0  0.22564616382E+02  0.11950296620E+02 -0.36559264527E+03  0.36648322441E+03  0.00000000000E+00 0. -1.
          1    1    1    2  502    0 -0.69171360443E+02 -0.41434455000E+02  0.31795119354E+03  0.32801593352E+03  0.00000000000E+00 0. -1.
         22    1    3    3    0    0  0.23956554485E+01 -0.46915341473E+02  0.19338881142E+03  0.19901261471E+03  0.00000000000E+00 0.  1.
         22    1    3    3    0    0  0.44211088612E+02  0.76399499853E+02  0.26601696530E+03  0.28027937805E+03  0.00000000000E+00 0.  1.
</event>
<event>
 7    1  0.5977291E-006  0.9372552E+02  0.7818608E-02  0.1317870E+00
          2   -1    0    0  502    0  0.00000000000E+00  0.00000000000E+00  0.62285212059E+03  0.62285212059E+03  0.00000000000E+00 0. -1.
          1   -1    0    0  501    0 -0.00000000000E+00 -0.00000000000E+00 -0.65600150690E+02  0.65600150690E+02  0.00000000000E+00 0. -1.
         25    2    1    2    0    0 -0.10398695388E+02  0.59593011731E+02  0.10618303751E+03  0.17481628707E+03  0.12500574730E+03 0.  0.
          2    1    1    2  501    0  0.71848767296E+02  0.22926141611E+02  0.31663199012E+02  0.81794935679E+02  0.00000000000E+00 0. -1.
          1    1    1    2  502    0 -0.61450071908E+02 -0.82519153342E+02  0.41940573338E+03  0.43184104853E+03  0.00000000000E+00 0. -1.
         22    1    3    3    0    0  0.42910631031E+01  0.61829634078E+01 -0.28346591997E+02  0.29328681131E+02  0.00000000000E+00 0.  1.
         22    1    3    3    0    0 -0.14689758492E+02  0.53410048323E+02  0.13452962951E+03  0.14548760594E+03  0.00000000000E+00 0.  1.
</event>
<event>
 7    1  0.5977291E-006  0.7484261E+02  0.7818608E-02  0.1464587E+00
          2   -1    0    0  502    0  0.00000000000E+00  0.00000000000E+00  0.38205726863E+03  0.38205726863E+03  0.00000000000E+00 0. -1.
          1   -1    0    0  501    0 -0.00000000000E+00 -0.00000000000E+00 -0.70575572669E+03  0.70575572669E+03  0.00000000000E+00 0. -1.
         25    2    1    2    0    0  0.30260577610E+02 -0.97250450630E+02 -0.22390414053E+03  0.27592107064E+03  0.12500408143E+03 0.  0.
          2    1    1    2  501    0 -0.16016898543E+02  0.24195110755E+02 -0.45148240393E+03  0.45241386527E+03  0.00000000000E+00 0. -1.
          1    1    1    2  502    0 -0.14243679067E+02  0.73055339875E+02  0.35168808641E+03  0.35947805941E+03  0.00000000000E+00 0. -1.
         22    1    3    3    0    0  0.64815675338E+02 -0.13219834014E+02 -0.64207489825E+02  0.92186970503E+02  0.00000000000E+00 0.  1.
         22    1    3    3    0    0 -0.34555097728E+02 -0.84030616617E+02 -0.15969665071E+03  0.18373410014E+03  0.00000000000E+00 0.  1.
</event>
<event>
 7    1  0.5977291E-006  0.2231119E+02  0.7818608E-02  0.1723648E+00
          2   -1    0    0  502    0  0.00000000000E+00  0.00000000000E+00  0.32344825644E+02  0.32344825644E+02  0.00000000000E+00 0. -1.
          1   -1    0    0  501    0 -0.00000000000E+00 -0.00000000000E+00 -0.17216402640E+04  0.17216402640E+04  0.00000000000E+00 0. -1.
         25    2    1    2    0    0 -0.31669850273E+02 -0.18836608022E+02 -0.53165925044E+03  0.54739814192E+03  0.12500147993E+03 0.  0.
          2    1    1    2  501    0  0.94888910517E+01  0.17630291355E+02 -0.11769685607E+04  0.11771388444E+04  0.00000000000E+00 0. -1.
          1    1    1    2  502    0  0.22180959221E+02  0.12063166670E+01  0.19332372755E+02  0.29448103304E+02  0.00000000000E+00 0. -1.
         22    1    3    3    0    0  0.45692382958E+02  0.11664175684E+02 -0.19032629061E+03  0.19608147223E+03  0.00000000000E+00 0.  1.
         22    1    3    3    0    0 -0.77362233232E+02 -0.30500783706E+02 -0.34133295983E+03  0.35131666969E+03  0.00000000000E+00 0.  1.
</event>
<event>
 7    1  0.5977291E-006  0.6340168E+02  0.7818608E-02  0.1471873E+00
          2   -1    0    0  502    0  0.00000000000E+00  0.00000000000E+00  0.33325862497E+03  0.33325862497E+03  0.00000000000E+00 0. -1.
          1   -1    0    0  501    0 -0.00000000000E+00 -0.00000000000E+00 -0.47900659920E+03  0.47900659920E+03  0.00000000000E+00 0. -1.
         25    2    1    2    0    0  0.33883638881E+02 -0.22255067708E+02 -0.65110985023E+02  0.14665391987E+03  0.12499817127E+03 0.  0.
          2    1    1    2  501    0  0.29752412599E+02  0.13094576310E+02 -0.36886768780E+03  0.37029723883E+03  0.00000000000E+00 0. -1.
          1    1    1    2  502    0 -0.63636051480E+02  0.91604913976E+01  0.28823069859E+03  0.29531406546E+03  0.00000000000E+00 0. -1.
         22    1    3    3    0    0 -0.38981504872E+02  0.19908461639E+02 -0.38692782399E+02  0.58421194585E+02  0.00000000000E+00 0. -1.
         22    1    3    3    0    0  0.72865143753E+02 -0.42163529347E+02 -0.26418202624E+02  0.88232725284E+02  0.00000000000E+00 0. -1.
</event>
<event>
 7    1  0.5977291E-006  0.6011916E+02  0.7818608E-02  0.1455619E+00
          2   -1    0    0  502    0  0.00000000000E+00  0.00000000000E+00  0.24802017207E+03  0.24802017207E+03  0.00000000000E+00 0. -1.
          1   -1    0    0  501    0 -0.00000000000E+00 -0.00000000000E+00 -0.26125834802E+03  0.26125834802E+03  0.00000000000E+00 0. -1.
         25    2    1    2    0    0  0.44165376527E+02  0.13362766612E+01 -0.18063058496E+02  0.13380440638E+03  0.12499991586E+03 0.  0.
          2    1    1    2  501    0  0.31367622087E+01  0.38425926968E+02 -0.17818758472E+03  0.18231074156E+03  0.00000000000E+00 0. -1.
          1    1    1    2  502    0 -0.47302138735E+02 -0.39762203629E+02  0.18301246726E+03  0.19316337215E+03  0.00000000000E+00 0. -1.
         22    1    3    3    0    0  0.86578248161E+02 -0.17892142191E+01 -0.26266251198E+02  0.90492598008E+02  0.00000000000E+00 0.  1.
         22    1    3    3    0    0 -0.42412871635E+02  0.31254908803E+01  0.82031927016E+01  0.43311808367E+02  0.00000000000E+00 0.  1.
</event>
<event>
 7    1  0.5977291E-006  0.1370908E+03  0.7818608E-02  0.1379563E+00
          2   -1    0    0  502    0  0.00000000000E+00  0.00000000000E+00  0.24205812395E+04  0.24205812395E+04  0.00000000000E+00 0. -1.
          1   -1    0    0  501    0 -0.00000000000E+00 -0.00000000000E+00 -0.57267009214E+02  0.57267009214E+02  0.00000000000E+00 0. -1.
         25    2    1    2    0    0  0.95178512579E+02 -0.83065671204E+02  0.17711217675E+03  0.25090314133E+03  0.12499923274E+03 0.  0.
          2    1    1    2  501    0 -0.10195037288E+03  0.11272322577E+03  0.26492334023E+03  0.30542557253E+03  0.00000000000E+00 0. -1.
          1    1    1    2  502    0  0.67718603020E+01 -0.29657554564E+02  0.19212787133E+04  0.19215195349E+04  0.00000000000E+00 0. -1.
         22    1    3    3    0    0  0.66252045218E+02 -0.14921143467E+02  0.10676112029E+02  0.68745569937E+02  0.00000000000E+00 0.  1.
         22    1    3    3    0    0  0.28926467361E+02 -0.68144527736E+02  0.16643606472E+03  0.18215757139E+03  0.00000000000E+00 0.  1.
</event>
<event>
 7    1  0.5977291E-006  0.6071222E+02  0.7818608E-02  0.1452297E+00
          2   -1    0    0  502    0  0.00000000000E+00  0.00000000000E+00  0.80211558259E+03  0.80211558259E+03  0.00000000000E+00 0. -1.
          1   -1    0    0  501    0 -0.00000000000E+00 -0.00000000000E+00 -0.81911143455E+03  0.81911143455E+03  0.00000000000E+00 0. -1.
         25    2    1    2    0    0 -0.92226810810E+02  0.19810158533E+02  0.22487257164E+03  0.27403076799E+03  0.12500784500E+03 0.  0.
          2    1    1    2  501    0  0.33521602270E+02 -0.20161788812E+02 -0.79248954422E+03  0.79345439267E+03  0.00000000000E+00 0. -1.
          1    1    1    2  502    0  0.58705208540E+02  0.35163027957E+00  0.55062112062E+03  0.55374185649E+03  0.00000000000E+00 0. -1.
         22    1    3    3    0    0 -0.77698943804E+02 -0.75478715532E+01  0.22977059715E+03  0.24266978293E+03  0.00000000000E+00 0. -1.
         22    1    3    3    0    0 -0.14527867006E+02  0.27358030086E+02 -0.48980255048E+01  0.31360985057E+02  0.00000000000E+00 0. -1.
</event>
<event>
 7    1  0.5977291E-006  0.5742522E+02  0.7818608E-02  0.1489375E+00
          2   -1    0    0  502    0  0.00000000000E+00  0.00000000000E+00  0.10571675215E+04  0.10571675215E+04  0.00000000000E+00 0. -1.
          1   -1    0    0  501    0 -0.00000000000E+00 -0.00000000000E+00 -0.89056577217E+02  0.89056577217E+02  0.00000000000E+00 0. -1.
         25    2    1    2    0    0  0.28204049654E+02 -0.81941584131E+02  0.21893798091E+03  0.26658707425E+03  0.12499974818E+03 0.  0.
          2    1    1    2  501    0 -0.24265435725E+02  0.50467700733E+02 -0.52842625925E+02  0.76994436831E+02  0.00000000000E+00 0. -1.
          1    1    1    2  502    0 -0.39386139283E+01  0.31473883398E+02  0.80201558933E+03  0.80264258767E+03  0.00000000000E+00 0. -1.
         22    1    3    3    0    0  0.38735703289E+02  0.20046334055E+02  0.10277868873E+03  0.11165020857E+03  0.00000000000E+00 0.  1.
         22    1    3    3    0    0 -0.10531653635E+02 -0.10198791819E+03  0.11615929218E+03  0.15493686567E+03  0.00000000000E+00 0.  1.
</event>
<event>
 7    1  0.5977291E-006  0.7735048E+02  0.7818608E-02  0.1375041E+00
          2   -1    0    0  502    0  0.00000000000E+00  0.00000000000E+00  0.47395289844E+03  0.47395289844E+03  0.00000000000E+00 0. -1.
          1   -1    0    0  501    0 -0.00000000000E+00 -0.00000000000E+00 -0.52643530197E+03  0.52643530197E+03  0.00000000000E+00 0. -1.
         25    2    1    2    0    0  0.88185643285E+02 -0.17146314858E+02 -0.13867669872E+03  0.20718770669E+03  0.12499926096E+03 0.  0.
          2    1    1    2  501    0 -0.19261088979E+02  0.52529628489E+02 -0.34783725815E+03  0.35230825931E+03  0.00000000000E+00 0. -1.
          1    1    1    2  502    0 -0.68924554306E+02 -0.35383313631E+02  0.43403155335E+03  0.44089223442E+03  0.00000000000E+00 0. -1.
         22    1    3    3    0    0  0.80624115827E+02 -0.62851801638E+01 -0.14317577537E+02  0.82126393864E+02  0.00000000000E+00 0. -1.
         22    1    3    3    0    0  0.75615274578E+01 -0.10861134694E+02 -0.12435912119E+03  0.12506131283E+03  0.00000000000E+00 0. -1.
</event>
<event>
 7    1  0.5977291E-006  0.1314030E+03  0.7818608E-02  0.1301840E+00
          2   -1    0    0  502    0  0.00000000000E+00  0.00000000000E+00  0.99782035209E+03  0.99782035209E+03  0.00000000000E+00 0. -1.
          1   -1    0    0  501    0 -0.00000000000E+00 -0.00000000000E+00 -0.17146270456E+03  0.17146270456E+03  0.00000000000E+00 0. -1.
         25    2    1    2    0    0 -0.78946249714E+02 -0.16494009258E+01  0.54970100301E+03  0.56923751263E+03  0.12499968884E+03 0.  0.
          2    1    1    2  501    0  0.12821002772E+03  0.39651525142E+02 -0.13107633399E+03  0.18759280366E+03  0.00000000000E+00 0. -1.
          1    1    1    2  502    0 -0.49263778011E+02 -0.38002124217E+02  0.40773297850E+03  0.41245274036E+03  0.00000000000E+00 0. -1.
         22    1    3    3    0    0 -0.91865656743E+02  0.20323908981E+02  0.52627075178E+03  0.53461506184E+03  0.00000000000E+00 0.  1.
         22    1    3    3    0    0  0.12919407028E+02 -0.21973309907E+02  0.23430251231E+02  0.34622450794E+02  0.00000000000E+00 0.  1.
</event>
<event>
 7    1  0.5977291E-006  0.1916459E+03  0.7818608E-02  0.1335058E+00
          2   -1    0    0  502    0  0.00000000000E+00  0.00000000000E+00  0.34154377792E+04  0.34154377792E+04  0.00000000000E+00 0. -1.
          1   -1    0    0  501    0 -0.00000000000E+00 -0.00000000000E+00 -0.10817552599E+03  0.10817552599E+03  0.00000000000E+00 0. -1.
         25    2    1    2    0    0 -0.32600813400E+02  0.17254067268E+03  0.67073927113E+03  0.70452049942E+03  0.12499947001E+03 0.  0.
          2    1    1    2  501    0  0.22367431908E+02  0.22436915121E+02 -0.84929138023E+02  0.90645880522E+02  0.00000000000E+00 0. -1.
          1    1    1    2  502    0  0.10233381492E+02 -0.19497758780E+03  0.27214521202E+04  0.27284469253E+04  0.00000000000E+00 0. -1.
         22    1    3    3    0    0 -0.44854705151E+02  0.11974921763E+02  0.24466792449E+03  0.24903360537E+03  0.00000000000E+00 0.  1.
         22    1    3    3    0    0  0.12253891751E+02  0.16056575091E+03  0.42607134664E+03  0.45548689406E+03  0.00000000000E+00 0.  1.
</event>
<event>
 7    1  0.5977291E-006  0.6182799E+02  0.7818608E-02  0.1412848E+00
          2   -1    0    0  502    0  0.00000000000E+00  0.00000000000E+00  0.70144756404E+03  0.70144756404E+03  0.00000000000E+00 0. -1.
          1   -1    0    0  501    0 -0.00000000000E+00 -0.00000000000E+00 -0.25588497866E+03  0.25588497866E+03  0.00000000000E+00 0. -1.
         25    2    1    2    0    0 -0.23454846215E+02  0.45079222287E+02 -0.10240498662E+03  0.16939260396E+03  0.12499922759E+03 0.  0.
          2    1    1    2  501    0  0.50597035571E+02  0.10847102889E+02 -0.11287958382E+03  0.12417536025E+03  0.00000000000E+00 0. -1.
          1    1    1    2  502    0 -0.27142189355E+02 -0.55926325176E+02  0.66084715582E+03  0.66376457848E+03  0.00000000000E+00 0. -1.
         22    1    3    3    0    0  0.48836784475E+02  0.16399435469E+01 -0.24868913825E+02  0.54828676872E+02  0.00000000000E+00 0.  1.
         22    1    3    3    0    0 -0.72291630691E+02  0.43439278740E+02 -0.77536072799E+02  0.11456392709E+03  0.00000000000E+00 0.  1.
</event>
<event>
 7    1  0.5977291E-006  0.1075406E+03  0.7818608E-02  0.1271194E+00
          2   -1    0    0  502    0  0.00000000000E+00  0.00000000000E+00  0.23983930184E+03  0.23983930184E+03  0.00000000000E+00 0. -1.
          1   -1    0    0  501    0 -0.00000000000E+00 -0.00000000000E+00 -0.18844038925E+04  0.18844038925E+04  0.00000000000E+00 0. -1.
         25    2    1    2    0    0 -0.18035167683E+03 -0.62441368042E+02 -0.29151377513E+03  0.37017603445E+03  0.12499745443E+03 0.  0.
          2    1    1    2  501    0  0.75863146376E+02  0.67373002083E+02 -0.15381298805E+04  0.15414726296E+04  0.00000000000E+00 0. -1.
          1    1    1    2  502    0  0.10448853045E+03 -0.49316340404E+01  0.18507906501E+03  0.21259453030E+03  0.00000000000E+00 0. -1.
         22    1    3    3    0    0 -0.17082216957E+03 -0.56552952120E+02 -0.30408639020E+03  0.35333692520E+03  0.00000000000E+00 0. -1.
         22    1    3    3    0    0 -0.95295072613E+01 -0.58884159220E+01  0.12572615065E+02  0.16839109249E+02  0.00000000000E+00 0. -1.
</event>
<event>
 7    1  0.5977291E-006  0.3723391E+03  0.7818608E-02  0.1196584E+00
          2   -1    0    0  502    0  0.00000000000E+00  0.00000000000E+00  0.59703889036E+03  0.59703889036E+03  0.00000000000E+00 0. -1.
          1   -1    0    0  501    0 -0.00000000000E+00 -0.00000000000E+00 -0.14467587820E+04  0.14467587820E+04  0.00000000000E+00 0. -1.
         25    2    1    2    0    0  0.24898309495E+02 -0.40084174484E+03 -0.17041993196E+03  0.45382992796E+03  0.12499848031E+03 0.  0.
          2    1    1    2  501    0  0.47123251807E+02  0.41877305505E+02 -0.10599498513E+04  0.10618229593E+04  0.00000000000E+00 0. -1.
          1    1    1    2  502    0 -0.72021561301E+02  0.35896443933E+03  0.38064989165E+03  0.52814478509E+03  0.00000000000E+00 0. -1.
         22    1    3    3    0    0  0.21924563583E+00 -0.38257468921E+03 -0.13212833668E+03  0.40474848764E+03  0.00000000000E+00 0.  1.
         22    1    3    3    0    0  0.24679063859E+02 -0.18267055625E+02 -0.38291595285E+02  0.49081440317E+02  0.00000000000E+00 0.  1.
</event>
<event>
 7    1  0.5977291E-006  0.5862778E+02  0.7818608E-02  0.1499122E+00
          2   -1    0    0  502    0  0.00000000000E+00  0.00000000000E+00  0.18672671686E+04  0.18672671686E+04  0.00000000000E+00 0. -1.
          1   -1    0    0  501    0 -0.00000000000E+00 -0.00000000000E+00 -0.10723567326E+03  0.10723567326E+03  0.00000000000E+00 0. -1.
         25    2    1    2    0    0 -0.22131646347E+02  0.48817997237E+02  0.22487766951E+02  0.13785021420E+03  0.12499590101E+03 0.  0.
          2    1    1    2  501    0  0.27381571365E+02  0.96747200966E+01 -0.44774205625E+02  0.53367407176E+02  0.00000000000E+00 0. -1.
          1    1    1    2  502    0 -0.52499250184E+01 -0.58492717333E+02  0.17823179340E+04  0.17832852205E+04  0.00000000000E+00 0. -1.
         22    1    3    3    0    0 -0.35703489986E+02 -0.35646957734E+02  0.87726952920E+01  0.51209422722E+02  0.00000000000E+00 0. -1.
         22    1    3    3    0    0  0.13571843639E+02  0.84464954970E+02  0.13715071659E+02  0.86640791481E+02  0.00000000000E+00 0. -1.
</event>
<event>
 7    1  0.5977291E-006  0.5749488E+02  0.7818608E-02  0.1480665E+00
          2   -1    0    0  502    0  0.00000000000E+00  0.00000000000E+00  0.14297931253E+04  0.14297931253E+04  0.00000000000E+00 0. -1.
          1   -1    0    0  501    0 -0.00000000000E+00 -0.00000000000E+00 -0.48650768405E+02  0.48650768405E+02  0.00000000000E+00 0. -1.
         25    2    1    2    0    0  0.44379169781E+02 -0.65600727302E+02  0.10342249089E+03  0.18053753549E+03  0.12499849586E+03 0.  0.
          2    1    1    2  501    0 -0.35967402069E+02  0.32991388555E+02  0.50521683918E+02  0.70246183357E+02  0.00000000000E+00 0. -1.
          1    1    1    2  502    0 -0.84117677114E+01  0.32609338747E+02  0.12271981821E+04  0.12276601748E+04  0.00000000000E+00 0. -1.
         22    1    3    3    0    0 -0.30320339001E+02 -0.57225126811E+02  0.18979192963E+02  0.67485167713E+02  0.00000000000E+00 0. -1.
         22    1    3    3    0    0  0.74699508782E+02 -0.83756004906E+01  0.84443297928E+02  0.11305236778E+03  0.00000000000E+00 0. -1.
</event>
<event>
 7    1  0.5977291E-006  0.9519196E+02  0.7818608E-02  0.1331553E+00
          2   -1    0    0  502    0  0.00000000000E+00  0.00000000000E+00  0.12872550505E+04  0.12872550505E+04  0.00000000000E+00 0. -1.
          1   -1    0    0  501    0 -0.00000000000E+00 -0.00000000000E+00 -0.19913489140E+03  0.19913489140E+03  0.00000000000E+00 0. -1.
         25    2    1    2    0    0  0.19963638343E+02 -0.53143994291E+02  0.68188072314E+02  0.15328733598E+03  0.12499825271E+03 0.  0.
          2    1    1    2  501    0 -0.53175577496E+02 -0.38704266378E+02 -0.14754878253E+03  0.16154350963E+03  0.00000000000E+00 0. -1.
          1    1    1    2  502    0  0.33211939153E+02  0.91848260669E+02  0.11674808694E+04  0.11715590963E+04  0.00000000000E+00 0. -1.
         22    1    3    3    0    0  0.11611701325E+02  0.28620443771E+02  0.63914885089E+02  0.70986434939E+02  0.00000000000E+00 0. -1.
         22    1    3    3    0    0  0.83519370174E+01 -0.81764438061E+02  0.42731872251E+01  0.82300901043E+02  0.00000000000E+00 0. -1.
</event>
<event>
 7    1  0.5977291E-006  0.1943639E+03  0.7818608E-02  0.1319001E+00
          2   -1    0    0  502    0  0.00000000000E+00  0.00000000000E+00  0.12149121296E+04  0.12149121296E+04  0.00000000000E+00 0. -1.
          1   -1    0    0  501    0 -0.00000000000E+00 -0.00000000000E+00 -0.88043944008E+03  0.88043944008E+03  0.00000000000E+00 0. -1.
         25    2    1    2    0    0 -0.20106070154E+03 -0.35034296411E+02 -0.24110690945E+03  0.33972107618E+03  0.12500024074E+03 0.  0.
          2    1    1    2  501    0  0.19199222293E+03  0.19380691998E+00 -0.57411780398E+03  0.60536955991E+03  0.00000000000E+00 0. -1.
          1    1    1    2  502    0  0.90684786131E+01  0.34840489491E+02  0.11496974029E+04  0.11502609336E+04  0.00000000000E+00 0. -1.
         22    1    3    3    0    0 -0.12019595096E+03  0.41517398002E+02 -0.11454462196E+03  0.17114681237E+03  0.00000000000E+00 0. -1.
         22    1    3    3    0    0 -0.80864750588E+02 -0.76551694414E+02 -0.12656228749E+03  0.16857426381E+03  0.00000000000E+00 0. -1.
</event>
<event>
 7    1  0.5977291E-006  0.9714814E+02  0.7818608E-02  0.1300497E+00
          2   -1    0    0  502    0  0.00000000000E+00  0.00000000000E+00  0.15136370142E+04  0.15136370142E+04  0.00000000000E+00 0. -1.
          1   -1    0    0  501    0 -0.00000000000E+00 -0.00000000000E+00 -0.84163992935E+03  0.84163992935E+03  0.00000000000E+00 0. -1.
         25    2    1    2    0    0  0.34753835754E+02 -0.17074737224E+03  0.15665266861E+03  0.26556754942E+03  0.12499428186E+03 0.  0.
          2    1    1    2  501    0 -0.38566720957E+02  0.75973707775E+02 -0.78314208694E+03  0.78776324144E+03  0.00000000000E+00 0. -1.
          1    1    1    2  502    0  0.38128852027E+01  0.94773664467E+02  0.12984865032E+04  0.13019461527E+04  0.00000000000E+00 0. -1.
         22    1    3    3    0    0  0.24288699700E+02 -0.18708953871E+03  0.11857023714E+03  0.22282580093E+03  0.00000000000E+00 0.  1.
         22    1    3    3    0    0  0.10465136054E+02  0.16342166464E+02  0.38082431470E+02  0.42741748491E+02  0.00000000000E+00 0.  1.
</event>
<event>
 7    1  0.1102007E-005  0.8518444E+02  0.7818608E-02  0.1339934E+00
          2   -1    0    0  502    0  0.00000000000E+00  0.00000000000E+00  0.28775777233E+04  0.28775777233E+04  0.00000000000E+00 0. -1.
          1   -1    0    0  501    0 -0.00000000000E+00 -0.00000000000E+00 -0.12931422848E+04  0.12931422848E+04  0.00000000000E+00 0. -1.
         25    2    1    2    0    0  0.43964660886E+02  0.10631938361E+02 -0.23842949919E+03  0.27298715747E+03  0.12500972978E+03 0.  0.
          2    1    1    2  501    0 -0.77040780973E+02  0.49144400653E+02 -0.10350126584E+04  0.10390388140E+04  0.00000000000E+00 0. -1.
          1    1    1    2  502    0  0.33076120087E+02 -0.59776339014E+02  0.28578775961E+04  0.28586940365E+04  0.00000000000E+00 0. -1.
         22    1    3    3    0    0  0.33117011648E+02 -0.25592720863E+02 -0.12166481716E+02  0.43586088366E+02  0.00000000000E+00 0.  1.
         22    1    3    3    0    0  0.10847649238E+02  0.36224659225E+02 -0.22626301747E+03  0.22940106910E+03  0.00000000000E+00 0.  1.
</event>
<event>
 7    1  0.5977291E-006  0.2831111E+02  0.7818608E-02  0.1625186E+00
          2   -1    0    0  502    0  0.00000000000E+00  0.00000000000E+00  0.12184765795E+04  0.12184765795E+04  0.00000000000E+00 0. -1.
          1   -1    0    0  501    0 -0.00000000000E+00 -0.00000000000E+00 -0.33429051044E+03  0.33429051044E+03  0.00000000000E+00 0. -1.
         25    2    1    2    0    0 -0.12603699971E+02 -0.17434876646E+02 -0.23575778414E+03  0.26770967968E+03  0.12499564647E+03 0.  0.
          2    1    1    2  501    0  0.26008136351E+02 -0.75160991446E+01 -0.80165757824E+02  0.84613613741E+02  0.00000000000E+00 0. -1.
          1    1    1    2  502    0 -0.13404436380E+02  0.24950975791E+02  0.12001096111E+04  0.12004437966E+04  0.00000000000E+00 0. -1.
         22    1    3    3    0    0  0.55316044748E+02  0.25525016160E+01 -0.90091694009E+02  0.10574920047E+03  0.00000000000E+00 0. -1.
         22    1    3    3    0    0 -0.67919744720E+02 -0.19987378262E+02 -0.14566609013E+03  0.16196047921E+03  0.00000000000E+00 0. -1.
</event>
<event>
 7    1  0.5977291E-006  0.3929661E+02  0.7818608E-02  0.1572351E+00
          2   -1    0    0  502    0  0.00000000000E+00  0.00000000000E+00  0.20162105984E+04  0.20162105984E+04  0.00000000000E+00 0. -1.
          1   -1    0    0  501    0 -0.00000000000E+00 -0.00000000000E+00 -0.39105208043E+03  0.39105208043E+03  0.00000000000E+00 0. -1.
         25    2    1    2    0    0 -0.32590690822E+02 -0.20636307964E+02  0.61104104128E+03  0.62488707745E+03  0.12499878043E+03 0.  0.
          2    1    1    2  501    0 -0.67321087904E+01  0.25960137158E+02 -0.38337898437E+03  0.38431588006E+03  0.00000000000E+00 0. -1.
          1    1    1    2  502    0  0.39322799612E+02 -0.53238291936E+01  0.13974964611E+04  0.13980597214E+04  0.00000000000E+00 0. -1.
         22    1    3    3    0    0 -0.30883247473E+02  0.50434218688E+02  0.30714299652E+03  0.31278459952E+03  0.00000000000E+00 0. -1.
         22    1    3    3    0    0 -0.17074433481E+01 -0.71070526652E+02  0.30389804476E+03  0.31210247793E+03  0.00000000000E+00 0. -1.
</event>
<event>
 7    1  0.5977291E-006  0.8693448E+02  0.7818608E-02  0.1436559E+00
          2   -1    0    0  502    0  0.00000000000E+00  0.00000000000E+00  0.14887145464E+03  0.14887145464E+03  0.00000000000E+00 0. -1.
          1   -1    0    0  501    0 -0.00000000000E+00 -0.00000000000E+00 -0.57293380059E+03  0.57293380059E+03  0.00000000000E+00 0. -1.
         25    2    1    2    0    0  0.68722381387E+02  0.88582112514E+02 -0.96681101827E+02  0.19375725082E+03  0.12500032174E+03 0.  0.
          2    1    1    2  501    0 -0.61113281264E+02 -0.58834674731E+02 -0.42103148118E+03  0.42949256133E+03  0.00000000000E+00 0. -1.
          1    1    1    2  502    0 -0.76091001231E+01 -0.29747437783E+02  0.93650237056E+02  0.98555443077E+02  0.00000000000E+00 0. -1.
         22    1    3    3    0    0  0.37852468943E+02  0.85261485424E+02 -0.11350386081E+01  0.93293186323E+02  0.00000000000E+00 0. -1.
         22    1    3    3    0    0  0.30869912444E+02  0.33206270907E+01 -0.95546063219E+02  0.10046406450E+03  0.00000000000E+00 0. -1.
</event>
<event>
 7    1  0.5977291E-006  0.4324328E+02  0.7818608E-02  0.1489241E+00
          2   -1    0    0  502    0  0.00000000000E+00  0.00000000000E+00  0.18549505973E+04  0.18549505973E+04  0.00000000000E+00 0. -1.
          1   -1    0    0  501    0 -0.00000000000E+00 -0.00000000000E+00 -0.11473312591E+03  0.11473312591E+03  0.00000000000E+00 0. -1.
         25    2    1    2    0    0  0.11107527069E+02  0.22950193043E+02  0.62871998883E+02  0.14222216320E+03  0.12499666773E+03 0.  0.
          2    1    1    2  501    0  0.31316773044E+02 -0.31326357302E+02 -0.68231657285E+02  0.81348878245E+02  0.00000000000E+00 0. -1.
          1    1    1    2  502    0 -0.42424300114E+02  0.83761642593E+01  0.17455771298E+04  0.17461126818E+04  0.00000000000E+00 0. -1.
         22    1    3    3    0    0 -0.33401029327E+02  0.46968761246E+02 -0.46927847599E+01  0.57824869406E+02  0.00000000000E+00 0. -1.
         22    1    3    3    0    0  0.44508556396E+02 -0.24018568203E+02  0.67564783643E+02  0.84397293794E+02  0.00000000000E+00 0. -1.
</event>
<event>
 7    1  0.5977291E-006  0.7054573E+02  0.7818608E-02  0.1360218E+00
          2   -1    0    0  502    0  0.00000000000E+00  0.00000000000E+00  0.53778956882E+03  0.53778956882E+03  0.00000000000E+00 0. -1.
          1   -1    0    0  501    0 -0.00000000000E+00 -0.00000000000E+00 -0.10228560799E+04  0.10228560799E+04  0.00000000000E+00 0. -1.
         25    2    1    2    0    0 -0.70053153852E+01  0.65304538258E+02 -0.13056239873E+03  0.19231702018E+03  0.12500215650E+03 0.  0.
          2    1    1    2  501    0  0.66001550426E+02 -0.26624523068E+02 -0.85748059750E+03  0.86042898893E+03  0.00000000000E+00 0. -1.
          1    1    1    2  502    0 -0.58996235040E+02 -0.38680015190E+02  0.50297648514E+03  0.50789963963E+03  0.00000000000E+00 0. -1.
         22    1    3    3    0    0  0.10258380804E+02 -0.12750508323E+02 -0.10802766078E+03  0.10926017268E+03  0.00000000000E+00 0. -1.
         22    1    3    3    0    0 -0.17263696189E+02  0.78055046581E+02 -0.22534737946E+02  0.83056847503E+02  0.00000000000E+00 0. -1.
</event>
<event>
 7    1  0.5977291E-006  0.4483841E+02  0.7818608E-02  0.1481331E+00
          2   -1    0    0  502    0  0.00000000000E+00  0.00000000000E+00  0.45110738543E+03  0.45110738543E+03  0.00000000000E+00 0. -1.
          1   -1    0    0  501    0 -0.00000000000E+00 -0.00000000000E+00 -0.53061602211E+02  0.53061602211E+02  0.00000000000E+00 0. -1.
         25    2    1    2    0    0  0.14021548285E+02 -0.12638049114E+02  0.22573179390E+03  0.25871964383E+03  0.12499874890E+03 0.  0.
          2    1    1    2  501    0  0.31770718741E+02  0.31640240459E+02 -0.18347679959E+02  0.48447092229E+02  0.00000000000E+00 0. -1.
          1    1    1    2  502    0 -0.45792267026E+02 -0.19002191345E+02  0.19066166928E+03  0.19700225158E+03  0.00000000000E+00 0. -1.
         22    1    3    3    0    0  0.67207130073E+01  0.14864720834E+02  0.22944400466E+03  0.23002321445E+03  0.00000000000E+00 0.  1.
         22    1    3    3    0    0  0.73008352773E+01 -0.27502769948E+02 -0.37122107650E+01  0.28696429383E+02  0.00000000000E+00 0.  1.
</event>
<event>
 7    1  0.5977291E-006  0.4102306E+02  0.7818608E-02  0.1546450E+00
          2   -1    0    0  502    0  0.00000000000E+00  0.00000000000E+00  0.42821577477E+03  0.42821577477E+03  0.00000000000E+00 0. -1.
          1   -1    0    0  501    0 -0.00000000000E+00 -0.00000000000E+00 -0.16866738421E+03  0.16866738421E+03  0.00000000000E+00 0. -1.
         25    2    1    2    0    0 -0.12541035917E+02  0.56009328501E+01  0.13055819775E+03  0.18127081314E+03  0.12500006667E+03 0.  0.
          2    1    1    2  501    0  0.25123120596E+02 -0.33140790021E+02 -0.13942488373E+03  0.14549495302E+03  0.00000000000E+00 0. -1.
          1    1    1    2  502    0 -0.12582084678E+02  0.27539857171E+02  0.26841507655E+03  0.27011739282E+03  0.00000000000E+00 0. -1.
         22    1    3    3    0    0 -0.53796858686E+02  0.37045573453E+02  0.10446507113E+03  0.12320481972E+03  0.00000000000E+00 0. -1.
         22    1    3    3    0    0  0.41255822768E+02 -0.31444640602E+02  0.26093126619E+02  0.58065993418E+02  0.00000000000E+00 0. -1.
</event>
<event>
 7    1  0.5977291E-006  0.1122905E+03  0.7818608E-02  0.1285511E+00
          2   -1    0    0  502    0  0.00000000000E+00  0.00000000000E+00  0.44142158736E+03  0.44142158736E+03  0.00000000000E+00 0. -1.
          1   -1    0    0  501    0 -0.00000000000E+00 -0.00000000000E+00 -0.22626328940E+03  0.22626328940E+03  0.00000000000E+00 0. -1.
         25    2    1    2    0    0  0.36140163239E+02 -0.34539123557E+02  0.14015142780E+03  0.19434305913E+03  0.12501095737E+03 0.  0.
          2    1    1    2  501    0 -0.22476466833E+02  0.11819354864E+03 -0.17329847631E+03  0.21096745814E+03  0.00000000000E+00 0. -1.
          1    1    1    2  502    0 -0.13663696405E+02 -0.83654425087E+02  0.24830534647E+03  0.26237435949E+03  0.00000000000E+00 0. -1.
         22    1    3    3    0    0 -0.35315266811E+00  0.45909044835E+02  0.41068666035E+02  0.61598704892E+02  0.00000000000E+00 0. -1.
         22    1    3    3    0    0  0.36493315907E+02 -0.80448168392E+02  0.99082761768E+02  0.13274435424E+03  0.00000000000E+00 0. -1.
</event>
<event>
 7    1  0.5977291E-006  0.3431973E+03  0.7818608E-02  0.1188658E+00
          2   -1    0    0  502    0  0.00000000000E+00  0.00000000000E+00  0.82761053864E+03  0.82761053864E+03  0.00000000000E+00 0. -1.
          1   -1    0    0  501    0 -0.00000000000E+00 -0.00000000000E+00 -0.18848809267E+03  0.18848809267E+03  0.00000000000E+00 0. -1.
         25    2    1    2    0    0 -0.81006376490E+02  0.31606043091E+03  0.34871570729E+03  0.49364551742E+03  0.12500809309E+03 0.  0.
          2    1    1    2  501    0  0.20045048113E+02 -0.35910186728E+03  0.24237819935E+03  0.43370859636E+03  0.00000000000E+00 0. -1.
          1    1    1    2  502    0  0.60961328376E+02  0.43041436367E+02  0.48028539322E+02  0.88744517529E+02  0.00000000000E+00 0. -1.
         22    1    3    3    0    0  0.44082509184E+01  0.17902139290E+03  0.23804615681E+03  0.29788263555E+03  0.00000000000E+00 0.  1.
         22    1    3    3    0    0 -0.85414627408E+02  0.13703903801E+03  0.11066955049E+03  0.19576288187E+03  0.00000000000E+00 0.  1.
</event>
<event>
 7    1  0.5977291E-006  0.1146583E+03  0.7818608E-02  0.1301725E+00
          2   -1    0    0  502    0  0.00000000000E+00  0.00000000000E+00  0.11848635700E+04  0.11848635700E+04  0.00000000000E+00 0. -1.
          1   -1    0    0  501    0 -0.00000000000E+00 -0.00000000000E+00 -0.34563385649E+03  0.34563385649E+03  0.00000000000E+00 0. -1.
         25    2    1    2    0    0 -0.12812583102E+03  0.35601782963E+02  0.20648798434E+03  0.27558991266E+03  0.12501518612E+03 0.  0.
          2    1    1    2  501    0  0.76809535560E+02 -0.85216959554E+02 -0.29909407133E+03  0.32034184624E+03  0.00000000000E+00 0. -1.
          1    1    1    2  502    0  0.51316295457E+02  0.49615176591E+02  0.93183580051E+03  0.93456566759E+03  0.00000000000E+00 0. -1.
         22    1    3    3    0    0 -0.42600073902E+02 -0.28482738306E+02  0.14153991860E+03  0.15053099759E+03  0.00000000000E+00 0.  1.
         22    1    3    3    0    0 -0.85525757114E+02  0.64084521269E+02  0.64948065741E+02  0.12505891507E+03  0.00000000000E+00 0.  1.
</event>
<event>
 7    1  0.5977291E-006  0.1041540E+03  0.7818608E-02  0.1327162E+00
          2   -1    0    0  502    0  0.00000000000E+00  0.00000000000E+00  0.24627131699E+04  0.24627131699E+04  0.00000000000E+00 0. -1.
          1   -1    0    0  501    0 -0.00000000000E+00 -0.00000000000E+00 -0.78431692127E+02  0.78431692127E+02  0.00000000000E+00 0. -1.
         25    2    1    2    0    0 -0.23526155757E+02 -0.66668602064E+02  0.14880447604E+03  0.20679654005E+03  0.12499541744E+03 0.  0.
          2    1    1    2  501    0  0.51235480339E+02 -0.35759215854E+02 -0.27941771241E+02  0.68443688855E+02  0.00000000000E+00 0. -1.
          1    1    1    2  502    0 -0.27709324582E+02  0.10242781792E+03  0.22634187730E+04  0.22659046331E+04  0.00000000000E+00 0. -1.
         22    1    3    3    0    0 -0.64898854178E+01 -0.43316706595E+02  0.16699488235E+03  0.17264340826E+03  0.00000000000E+00 0. -1.
         22    1    3    3    0    0 -0.17036270339E+02 -0.23351895469E+02 -0.18190406316E+02  0.34153131789E+02  0.00000000000E+00 0. -1.
</event>
<event>
 7    1  0.5977291E-006  0.9527089E+02  0.7818608E-02  0.1434014E+00
          2   -1    0    0  502    0  0.00000000000E+00  0.00000000000E+00  0.15424376229E+04  0.15424376229E+04  0.00000000000E+00 0. -1.
          1   -1    0    0  501    0 -0.00000000000E+00 -0.00000000000E+00 -0.12027877760E+03  0.12027877760E+03  0.00000000000E+00 0. -1.
         25    2    1    2    0    0  0.85241480141E+02  0.76201045467E+02  0.77853862708E+03  0.79675616324E+03  0.12500112216E+03 0.  0.
          2    1    1    2  501    0 -0.81887828852E+02 -0.47838510543E+02 -0.90615653610E+02  0.13116911330E+03  0.00000000000E+00 0. -1.
          1    1    1    2  502    0 -0.33536512895E+01 -0.28362534924E+02  0.73423587184E+03  0.73479112396E+03  0.00000000000E+00 0. -1.
         22    1    3    3    0    0  0.81600516301E+02  0.91361332807E+02  0.76852447170E+03  0.77822580335E+03  0.00000000000E+00 0.  1.
         22    1    3    3    0    0  0.36409638404E+01 -0.15160287340E+02  0.10014155381E+02  0.18530359897E+02  0.00000000000E+00 0.  1.
</event>
<event>
 7    1  0.5977291E-006  0.9914777E+02  0.7818608E-02  0.1356769E+00
          2   -1    0    0  502    0  0.00000000000E+00  0.00000000000E+00  0.61303463447E+03  0.61303463447E+03  0.00000000000E+00 0. -1.
          1   -1    0    0  501    0 -0.00000000000E+00 -0.00000000000E+00 -0.20488373516E+04  0.20488373516E+04  0.00000000000E+00 0. -1.
         25    2    1    2    0    0 -0.11909811906E+03  0.89024629940E+02 -0.13719105130E+03  0.23781549408E+03  0.12500031187E+03 0.  0.
          2    1    1    2  501    0  0.38719426511E+02 -0.32923308779E+02 -0.18567151188E+04  0.18574106090E+04  0.00000000000E+00 0. -1.
          1    1    1    2  502    0  0.80378692544E+02 -0.56101321161E+02  0.55810345297E+03  0.56664588295E+03  0.00000000000E+00 0. -1.
         22    1    3    3    0    0 -0.10013616569E+03  0.77603406196E+02 -0.32471637086E+02  0.13078206126E+03  0.00000000000E+00 0. -1.
         22    1    3    3    0    0 -0.18961953364E+02  0.11421223744E+02 -0.10471941421E+03  0.10703343282E+03  0.00000000000E+00 0. -1.
</event>
<event>
 7    1  0.5977291E-006  0.1061332E+03  0.7818608E-02  0.1309327E+00
          2   -1    0    0  502    0  0.00000000000E+00  0.00000000000E+00  0.11241075901E+03  0.11241075901E+03  0.00000000000E+00 0. -1.
          1   -1    0    0  501    0 -0.00000000000E+00 -0.00000000000E+00 -0.39543077777E+03  0.39543077777E+03  0.00000000000E+00 0. -1.
         25    2    1    2    0    0 -0.41075966166E+02 -0.45788119750E+02 -0.10940838573E+03  0.17713994646E+03  0.12499831542E+03 0.  0.
          2    1    1    2  501    0  0.78929052620E+00 -0.71933716576E+02 -0.19189959181E+03  0.20494032277E+03  0.00000000000E+00 0. -1.
          1    1    1    2  502    0  0.40286675640E+02  0.11772183633E+03  0.18287958773E+02  0.12576126756E+03  0.00000000000E+00 0. -1.
         22    1    3    3    0    0 -0.16089192265E+02  0.21653039331E+02  0.16869797087E+02  0.31816760894E+02  0.00000000000E+00 0.  1.
         22    1    3    3    0    0 -0.24986773901E+02 -0.67441159082E+02 -0.12627818281E+03  0.14532318557E+03  0.00000000000E+00 0.  1.
</event>
<event>
 7    1  0.1167570E-005  0.5144122E+02  0.7818608E-02  0.1446319E+00
          2   -1    0    0  502    0  0.00000000000E+00  0.00000000000E+00  0.13740643493E+04  0.13740643493E+04  0.00000000000E+00 0. -1.
          1   -1    0    0  501    0 -0.00000000000E+00 -0.00000000000E+00 -0.79811428076E+03  0.79811428076E+03  0.00000000000E+00 0. -1.
         25    2    1    2    0    0  0.26327986406E+02  0.92138359927E+02 -0.20069639038E+03  0.25511907990E+03  0.12499625427E+03 0.  0.
          2    1    1    2  501    0 -0.25772534371E+02 -0.40788247559E+02 -0.56869515469E+03  0.57073819185E+03  0.00000000000E+00 0. -1.
          1    1    1    2  502    0 -0.55545203457E+00 -0.51350112368E+02  0.13453416136E+04  0.13463213583E+04  0.00000000000E+00 0. -1.
         22    1    3    3    0    0 -0.12923088868E+02  0.96950158132E+02 -0.19071674615E+03  0.21433435713E+03  0.00000000000E+00 0.  1.
         22    1    3    3    0    0  0.39251075274E+02 -0.48117982050E+01 -0.99796442301E+01  0.40784722766E+02  0.00000000000E+00 0.  1.
</event>
<event>
 7    1  0.5977291E-006  0.8241795E+02  0.7818608E-02  0.1385398E+00
          2   -1    0    0  502    0  0.00000000000E+00  0.00000000000E+00  0.29499456626E+03  0.29499456626E+03  0.00000000000E+00 0. -1.
          1   -1    0    0  501    0 -0.00000000000E+00 -0.00000000000E+00 -0.15275577671E+03  0.15275577671E+03  0.00000000000E+00 0. -1.
         25    2    1    2    0    0  0.57216439712E+02 -0.31972662904E+02 -0.63677265105E+02  0.15483951921E+03  0.12499804186E+03 0.  0.
          2    1    1    2  501    0 -0.10491718171E+03  0.39284297024E+02  0.38159669228E+02  0.11835130487E+03  0.00000000000E+00 0. -1.
          1    1    1    2  502    0  0.47700741995E+02 -0.73116341204E+01  0.16775638543E+03  0.17455951889E+03  0.00000000000E+00 0. -1.
         22    1    3    3    0    0  0.33046322609E+02 -0.37988685571E+02  0.29523367369E+02  0.58368046825E+02  0.00000000000E+00 0.  1.
         22    1    3    3    0    0  0.24170117102E+02  0.60160226669E+01 -0.93200632474E+02  0.96471472380E+02  0.00000000000E+00 0.  1.
</event>
<event>
 7    1  0.5977291E-006  0.8805481E+02  0.7818608E-02  0.1319593E+00
          2   -1    0    0  502    0  0.00000000000E+00  0.00000000000E+00  0.11025554196E+04  0.11025554196E+04  0.00000000000E+00 0. -1.
          1   -1    0    0  501    0 -0.00000000000E+00 -0.00000000000E+00 -0.16423041243E+03  0.16423041243E+03  0.00000000000E+00 0. -1.
         25    2    1    2    0    0  0.64943040732E+02  0.50631979040E+02  0.10372486057E+03  0.18211018838E+03  0.12499631262E+03 0.  0.
          2    1    1    2  501    0  0.21576307185E+02 -0.76044530942E+02 -0.11017988238E+03  0.13560204350E+03  0.00000000000E+00 0. -1.
          1    1    1    2  502    0 -0.86519347917E+02  0.25412551903E+02  0.94478002896E+03  0.94907360014E+03  0.00000000000E+00 0. -1.
         22    1    3    3    0    0  0.69464707697E+02  0.50807578970E+02  0.12974820777E+03  0.15569634907E+03  0.00000000000E+00 0.  1.
         22    1    3    3    0    0 -0.45216669650E+01 -0.17559993090E+00 -0.26023347196E+02  0.26413839303E+02  0.00000000000E+00 0.  1.
</event>
<event>
 7    1  0.9585458E-006  0.1006457E+03  0.7818608E-02  0.1433743E+00
          2   -1    0    0  502    0  0.00000000000E+00  0.00000000000E+00  0.23180390394E+04  0.23180390394E+04  0.00000000000E+00 0. -1.
          1   -1    0    0  501    0 -0.00000000000E+00 -0.00000000000E+00 -0.12496661550E+04  0.12496661550E+04  0.00000000000E+00 0. -1.
         25    2    1    2    0    0 -0.19799702240E+02 -0.12535835021E+03 -0.11025660326E+03  0.20949191658E+03  0.12499440137E+03 0.  0.
          2    1    1    2  501    0 -0.10027089689E+01  0.27071505191E+02 -0.10885109468E+04  0.10888479936E+04  0.00000000000E+00 0. -1.
          1    1    1    2  502    0  0.20802411209E+02  0.98286845016E+02  0.22671404344E+04  0.22693652843E+04  0.00000000000E+00 0. -1.
         22    1    3    3    0    0  0.15807980655E+02 -0.12562184566E+03 -0.11797390374E+03  0.17305658705E+03  0.00000000000E+00 0. -1.
         22    1    3    3    0    0 -0.35607682894E+02  0.26349545555E+00  0.77173004770E+01  0.36435329525E+02  0.00000000000E+00 0. -1.
</event>
<event>
 7    1  0.5977291E-006  0.7430107E+02  0.7818608E-02  0.1355241E+00
          2   -1    0    0  502    0  0.00000000000E+00  0.00000000000E+00  0.35676920087E+03  0.35676920087E+03  0.00000000000E+00 0. -1.
          1   -1    0    0  501    0 -0.00000000000E+00 -0.00000000000E+00 -0.87123271874E+03  0.87123271874E+03  0.00000000000E+00 0. -1.
         25    2    1    2    0    0 -0.13538382686E+03  0.89403387361E+01 -0.28225599078E+03  0.33719841672E+03  0.12500247068E+03 0.  0.
          2    1    1    2  501    0  0.67273300149E+02 -0.17937183169E+02 -0.55572616234E+03  0.56007053748E+03  0.00000000000E+00 0. -1.
          1    1    1    2  502    0  0.68110526714E+02  0.89968444325E+01  0.32351863524E+03  0.33073296541E+03  0.00000000000E+00 0. -1.
         22    1    3    3    0    0 -0.31231072607E+02 -0.33385575893E+02 -0.17833303456E+03  0.18409955945E+03  0.00000000000E+00 0. -1.
         22    1    3    3    0    0 -0.10415275426E+03  0.42325914630E+02 -0.10392295622E+03  0.15309885727E+03  0.00000000000E+00 0. -1.
</event>
<event>
 7    1  0.5977291E-006  0.4148033E+03  0.7818608E-02  0.1207480E+00
          2   -1    0    0  502    0  0.00000000000E+00  0.00000000000E+00  0.22723544936E+03  0.22723544936E+03  0.00000000000E+00 0. -1.
          1   -1    0    0  501    0 -0.00000000000E+00 -0.00000000000E+00 -0.18477175250E+04  0.18477175250E+04  0.00000000000E+00 0. -1.
         25    2    1    2    0    0 -0.16248692332E+03 -0.37012003763E+03 -0.60303628771E+03  0.73666166041E+03  0.12500718028E+03 0.  0.
          2    1    1    2  501    0  0.21245068834E+03  0.36436832033E+03 -0.11347812881E+04  0.12106312980E+04  0.00000000000E+00 0. -1.
          1    1    1    2  502    0 -0.49963765015E+02  0.57517172972E+01  0.11733550019E+03  0.12766001595E+03  0.00000000000E+00 0. -1.
         22    1    3    3    0    0 -0.64604088735E+02 -0.27356193456E+03 -0.45328480706E+03  0.53336379389E+03  0.00000000000E+00 0. -1.
         22    1    3    3    0    0 -0.97882834588E+02 -0.96558103068E+02 -0.14975148064E+03  0.20329786652E+03  0.00000000000E+00 0. -1.
</event>
<event>
 7    1  0.5977291E-006  0.5420090E+02  0.7818608E-02  0.1428113E+00
          2   -1    0    0  502    0  0.00000000000E+00  0.00000000000E+00  0.26586544187E+03  0.26586544187E+03  0.00000000000E+00 0. -1.
          1   -1    0    0  501    0 -0.00000000000E+00 -0.00000000000E+00 -0.42749116730E+03  0.42749116730E+03  0.00000000000E+00 0. -1.
         25    2    1    2    0    0 -0.24765980019E+02  0.13340421560E+02 -0.15726411833E+03  0.20285057664E+03  0.12500013165E+03 0.  0.
          2    1    1    2  501    0  0.20256148981E+01 -0.60653233198E+02 -0.24079015017E+03  0.24831998355E+03  0.00000000000E+00 0. -1.
          1    1    1    2  502    0  0.22740365121E+02  0.47312811639E+02  0.23642854306E+03  0.24218604899E+03  0.00000000000E+00 0. -1.
         22    1    3    3    0    0  0.27811866978E+02  0.52334399172E+02 -0.98119091637E+02  0.11462872862E+03  0.00000000000E+00 0.  1.
         22    1    3    3    0    0 -0.52577846996E+02 -0.38993977612E+02 -0.59145026692E+02  0.88221848015E+02  0.00000000000E+00 0.  1.
</event>
<event>
 7    1  0.5977291E-006  0.5539977E+02  0.7818608E-02  0.1483020E+00
          2   -1    0    0  502    0  0.00000000000E+00  0.00000000000E+00  0.13530138385E+04  0.13530138385E+04  0.00000000000E+00 0. -1.
          1   -1    0    0  501    0 -0.00000000000E+00 -0.00000000000E+00 -0.43252321409E+03  0.43252321409E+03  0.00000000000E+00 0. -1.
         25    2    1    2    0    0  0.63514627438E+01  0.88628236314E+02 -0.32780433933E+02  0.15682846268E+03  0.12500121803E+03 0.  0.
          2    1    1    2  501    0  0.30465241738E+01 -0.34240062196E+02 -0.33625216022E+03  0.33800470178E+03  0.00000000000E+00 0. -1.
          1    1    1    2  502    0 -0.93979869176E+01 -0.54388174118E+02  0.12895232185E+04  0.12907038881E+04  0.00000000000E+00 0. -1.
         22    1    3    3    0    0 -0.38875213082E+02  0.99213208420E+02 -0.27723888576E+02  0.11010520839E+03  0.00000000000E+00 0.  1.
         22    1    3    3    0    0  0.45226675826E+02 -0.10584972106E+02 -0.50565453566E+01  0.46723254293E+02  0.00000000000E+00 0.  1.
</event>
<event>
 7    1  0.5977291E-006  0.6988455E+02  0.7818608E-02  0.1365969E+00
          2   -1    0    0  502    0  0.00000000000E+00  0.00000000000E+00  0.87708706890E+03  0.87708706890E+03  0.00000000000E+00 0. -1.
          1   -1    0    0  501    0 -0.00000000000E+00 -0.00000000000E+00 -0.26968132699E+02  0.26968132699E+02  0.00000000000E+00 0. -1.
         25    2    1    2    0    0  0.16431005281E+02 -0.14407818196E+02  0.58851006843E+03  0.60203510024E+03  0.12499839245E+03 0.  0.
          2    1    1    2  501    0 -0.81264440103E+02 -0.14838079973E+01  0.11388005972E+03  0.13990989570E+03  0.00000000000E+00 0. -1.
          1    1    1    2  502    0  0.64833434821E+02  0.15891626194E+02  0.14772880805E+03  0.16211020567E+03  0.00000000000E+00 0. -1.
         22    1    3    3    0    0 -0.93440243975E+01 -0.65511126215E+02  0.24452877506E+03  0.25332457497E+03  0.00000000000E+00 0.  1.
         22    1    3    3    0    0  0.25775029679E+02  0.51103308019E+02  0.34398129337E+03  0.34871052527E+03  0.00000000000E+00 0.  1.
</event>
<event>
 7    1  0.5977291E-006  0.4508811E+03  0.7818608E-02  0.1123864E+00
          2   -1    0    0  502    0  0.00000000000E+00  0.00000000000E+00  0.18543378899E+04  0.18543378899E+04  0.00000000000E+00 0. -1.
          1   -1    0    0  501    0 -0.00000000000E+00 -0.00000000000E+00 -0.34019704832E+03  0.34019704832E+03  0.00000000000E+00 0. -1.
         25    2    1    2    0    0 -0.46515645097E+03 -0.19283387324E+03  0.37863651667E+03  0.64229816196E+03  0.12500356215E+03 0.  0.
          2    1    1    2  501    0  0.42348925297E+03  0.78776605440E+02  0.21136090892E+02  0.43127211281E+03  0.00000000000E+00 0. -1.
          1    1    1    2  502    0  0.41667197997E+02  0.11405726780E+03  0.11143682340E+04  0.11209646634E+04  0.00000000000E+00 0. -1.
         22    1    3    3    0    0 -0.26662555984E+03 -0.16894261253E+03  0.26609332920E+03  0.41283950311E+03  0.00000000000E+00 0. -1.
         22    1    3    3    0    0 -0.19853089114E+03 -0.23891260708E+02  0.11254318747E+03  0.22945865885E+03  0.00000000000E+00 0. -1.
</event>
<event>
 7    1  0.5977291E-006  0.9790810E+02  0.7818608E-02  0.1376072E+00
          2   -1    0    0  502    0  0.00000000000E+00  0.00000000000E+00  0.99533682927E+03  0.99533682927E+03  0.00000000000E+00 0. -1.
          1   -1    0    0  501    0 -0.00000000000E+00 -0.00000000000E+00 -0.41273859669E+03  0.41273859669E+03  0.00000000000E+00 0. -1.
         25    2    1    2    0    0  0.66281947604E+02  0.24982208986E+02 -0.17229628946E+03  0.22433956144E+03  0.12499928047E+03 0.  0.
          2    1    1    2  501    0  0.31910945125E+02 -0.30045114920E+02 -0.20965525980E+03  0.21418764043E+03  0.00000000000E+00 0. -1.
          1    1    1    2  502    0 -0.98192892729E+02  0.50629059345E+01  0.96454978184E+03  0.96954822410E+03  0.00000000000E+00 0. -1.
         22    1    3    3    0    0 -0.78298872353E+01  0.30519211995E+02  0.51803856849E+01  0.31930640939E+02  0.00000000000E+00 0. -1.
         22    1    3    3    0    0  0.74111834839E+02 -0.55370030095E+01 -0.17747667515E+03  0.19240892050E+03  0.00000000000E+00 0. -1.
</event>
<event>
 7    1  0.5977291E-006  0.1840229E+03  0.7818608E-02  0.1186297E+00
          2   -1    0    0  502    0  0.00000000000E+00  0.00000000000E+00  0.76834652353E+03  0.76834652353E+03  0.00000000000E+00 0. -1.
          1   -1    0    0  501    0 -0.00000000000E+00 -0.00000000000E+00 -0.12778455190E+04  0.12778455190E+04  0.00000000000E+00 0. -1.
         25    2    1    2    0    0  0.43410581534E+02 -0.40570937130E+02  0.29362068759E+03  0.32460538580E+03  0.12500027512E+03 0.  0.
          2    1    1    2  501    0 -0.18541973093E+03  0.24939428033E+02 -0.12440753938E+04  0.12580644011E+04  0.00000000000E+00 0. -1.
          1    1    1    2  502    0  0.14200914940E+03  0.15631509097E+02  0.44095571080E+03  0.46352225564E+03  0.00000000000E+00 0. -1.
         22    1    3    3    0    0  0.28334279299E+02 -0.12061725893E+02  0.16286825677E+01  0.30837788861E+02  0.00000000000E+00 0. -1.
         22    1    3    3    0    0  0.15076302234E+02 -0.28509211238E+02  0.29199200502E+03  0.29376759694E+03  0.00000000000E+00 0. -1.
</event>
<event>
 7    1  0.5977291E-006  0.4530597E+02  0.7818608E-02  0.1589338E+00
          2   -1    0    0  502    0  0.00000000000E+00  0.00000000000E+00  0.43317017423E+03  0.43317017423E+03  0.00000000000E+00 0. -1.
          1   -1    0    0  501    0 -0.00000000000E+00 -0.00000000000E+00 -0.20496499927E+04  0.20496499927E+04  0.00000000000E+00 0. -1.
         25    2    1    2    0    0 -0.28658278986E+02 -0.47087101413E+02  0.44866681738E+01  0.13668773484E+03  0.12499965836E+03 0.  0.
          2    1    1    2  501    0  0.78591294133E+01  0.44596584987E+02 -0.19829881941E+04  0.19835051800E+04  0.00000000000E+00 0. -1.
          1    1    1    2  502    0  0.20799149573E+02  0.24905164261E+01  0.36202170743E+03  0.36262725207E+03  0.00000000000E+00 0. -1.
         22    1    3    3    0    0 -0.14249424095E+02 -0.37699889431E+02  0.63505301981E+02  0.75214700224E+02  0.00000000000E+00 0. -1.
         22    1    3    3    0    0 -0.14408854891E+02 -0.93872119822E+01 -0.59018633807E+02  0.61473034613E+02  0.00000000000E+00 0. -1.
</event>
<event>
 7    1  0.5977291E-006  0.1004668E+03  0.7818608E-02  0.1336508E+00
          2   -1    0    0  502    0  0.00000000000E+00  0.00000000000E+00  0.13453539437E+04  0.13453539437E+04  0.00000000000E+00 0. -1.
          1   -1    0    0  501    0 -0.00000000000E+00 -0.00000000000E+00 -0.55737656790E+02  0.55737656790E+02  0.00000000000E+00 0. -1.
         25    2    1    2    0    0  0.14005364818E+02 -0.97327310901E+02  0.26420053320E+03  0.30837533331E+03  0.12499867503E+03 0.  0.
          2    1    1    2  501    0  0.45606997879E+02  0.94593838704E+02  0.51479537059E+02  0.11695356049E+03  0.00000000000E+00 0. -1.
          1    1    1    2  502    0 -0.59612362696E+02  0.27334721971E+01  0.97393621665E+03  0.97576270668E+03  0.00000000000E+00 0. -1.
         22    1    3    3    0    0 -0.49155526534E+02 -0.39792471154E+02  0.16906608017E+03  0.18050774502E+03  0.00000000000E+00 0. -1.
         22    1    3    3    0    0  0.63160891352E+02 -0.57534839747E+02  0.95134453028E+02  0.12786758829E+03  0.00000000000E+00 0. -1.
</event>
<event>
 7    1  0.5977291E-006  0.2873602E+02  0.7818608E-02  0.1646838E+00
          2   -1    0    0  502    0  0.00000000000E+00  0.00000000000E+00  0.77745229724E+03  0.77745229724E+03  0.00000000000E+00 0. -1.
          1   -1    0    0  501    0 -0.00000000000E+00 -0.00000000000E+00 -0.11748098822E+04  0.11748098822E+04  0.00000000000E+00 0. -1.
         25    2    1    2    0    0 -0.25511067086E+02 -0.14352115135E+02 -0.44527424023E+02  0.13588624210E+03  0.12500232617E+03 0.  0.
          2    1    1    2  501    0  0.63612401346E+01  0.28061932302E+02 -0.10842226306E+04  0.10846043749E+04  0.00000000000E+00 0. -1.
          1    1    1    2  502    0  0.19149826951E+02 -0.13709817168E+02  0.73139246963E+03  0.73177156244E+03  0.00000000000E+00 0. -1.
         22    1    3    3    0    0  0.41800638333E+02 -0.20305236094E+02 -0.49789538043E+02  0.68107224848E+02  0.00000000000E+00 0. -1.
         22    1    3    3    0    0 -0.67311705419E+02  0.59531209591E+01  0.52621140206E+01  0.67779017251E+02  0.00000000000E+00 0. -1.
</event>
<event>
 7    1  0.5977291E-006  0.8015740E+02  0.7818608E-02  0.1406926E+00
          2   -1    0    0  502    0  0.00000000000E+00  0.00000000000E+00  0.16836051493E+04  0.16836051493E+04  0.00000000000E+00 0. -1.
          1   -1    0    0  501    0 -0.00000000000E+00 -0.00000000000E+00 -0.23782737811E+03  0.23782737811E+03  0.00000000000E+00 0. -1.
         25    2    1    2    0    0 -0.41568499284E+02 -0.73040087503E+01  0.50099356937E+03  0.51807112133E+03  0.12498736548E+03 0.  0.
          2    1    1    2  501    0  0.80258932351E+02 -0.85212810489E+01 -0.22180011937E+03  0.23602839110E+03  0.00000000000E+00 0. -1.
          1    1    1    2  502    0 -0.38690433067E+02  0.15825289799E+02  0.11665843212E+04  0.11673330150E+04  0.00000000000E+00 0. -1.
         22    1    3    3    0    0 -0.15240632166E+02 -0.61756009898E+02  0.34396509721E+03  0.34979718370E+03  0.00000000000E+00 0. -1.
         22    1    3    3    0    0 -0.26327867119E+02  0.54452001148E+02  0.15702847216E+03  0.16827393763E+03  0.00000000000E+00 0. -1.
</event>
<event>
 7    1  0.5977291E-006  0.6124305E+02  0.7818608E-02  0.1517071E+00
          2   -1    0    0  502    0  0.00000000000E+00  0.00000000000E+00  0.22191773584E+04  0.22191773584E+04  0.00000000000E+00 0. -1.
          1   -1    0    0  501    0 -0.00000000000E+00 -0.00000000000E+00 -0.65482648172E+02  0.65482648172E+02  0.00000000000E+00 0. -1.
         25    2    1    2    0    0 -0.74781898867E+02 -0.31008883310E+02  0.40516358161E+03  0.43166705219E+03  0.12500013135E+03 0.  0.
          2    1    1    2  501    0  0.59299380815E+02  0.11881660367E+02 -0.34610686366E+02  0.69681346348E+02  0.00000000000E+00 0. -1.
          1    1    1    2  502    0  0.15482518053E+02  0.19127222943E+02  0.17831418149E+04  0.17833116080E+04  0.00000000000E+00 0. -1.
         22    1    3    3    0    0 -0.92734472672E+01 -0.61704741221E+02  0.98615405248E+02  0.11669820078E+03  0.00000000000E+00 0. -1.
         22    1    3    3    0    0 -0.65508451600E+02  0.30695857910E+02  0.30654817636E+03  0.31496885141E+03  0.00000000000E+00 0. -1.
</event>
<event>
 7    1  0.5977291E-006  0.1094472E+03  0.7818608E-02  0.1351395E+00
          2   -1    0    0  502    0  0.00000000000E+00  0.00000000000E+00  0.26765764236E+02  0.26765764236E+02  0.00000000000E+00 0. -1.
          1   -1    0    0  501    0 -0.00000000000E+00 -0.00000000000E+00 -0.10730704411E+04  0.10730704411E+04  0.00000000000E+00 0. -1.
         25    2    1    2    0    0 -0.55338193987E+02  0.99773080161E+02 -0.45483236210E+03  0.48529781916E+03  0.12499804971E+03 0.  0.
          2    1    1    2  501    0  0.47048019535E+02  0.10419546965E+02 -0.27832023553E+03  0.28246103555E+03  0.00000000000E+00 0. -1.
          1    1    1    2  502    0  0.82901744524E+01 -0.11019262713E+03 -0.31315207921E+03  0.33207735060E+03  0.00000000000E+00 0. -1.
         22    1    3    3    0    0 -0.74647498257E+02  0.93896591101E+02 -0.22854117299E+03  0.25810828458E+03  0.00000000000E+00 0.  1.
         22    1    3    3    0    0  0.19309304270E+02  0.58764890601E+01 -0.22629118911E+03  0.22718953458E+03  0.00000000000E+00 0.  1.
</event>
<event>
 7    1  0.5977291E-006  0.7431528E+02  0.7818608E-02  0.1396126E+00
          2   -1    0    0  502    0  0.00000000000E+00  0.00000000000E+00  0.18178982342E+04  0.18178982342E+04  0.00000000000E+00 0. -1.
          1   -1    0    0  501    0 -0.00000000000E+00 -0.00000000000E+00 -0.13290330387E+03  0.13290330387E+03  0.00000000000E+00 0. -1.
         25    2    1    2    0    0 -0.10863534455E+03 -0.48386693553E+02  0.31462758704E+03  0.35882085010E+03  0.12497589264E+03 0.  0.
          2    1    1    2  501    0  0.70739481315E+02  0.17160345867E+02 -0.98397451627E+02  0.12239530291E+03  0.00000000000E+00 0. -1.
          1    1    1    2  502    0  0.37895863231E+02  0.31226347686E+02  0.14687647949E+04  0.14695853851E+04  0.00000000000E+00 0. -1.
         22    1    3    3    0    0 -0.79809836643E+02  0.29883785894E+02  0.12106808430E+03  0.14805448902E+03  0.00000000000E+00 0. -1.
         22    1    3    3    0    0 -0.28825507903E+02 -0.78270479447E+02  0.19355950274E+03  0.21076636107E+03  0.00000000000E+00 0. -1.
</event>
<event>
 7    1  0.1239327E-005  0.7966848E+02  0.7818608E-02  0.1353441E+00
          2   -1    0    0  502    0  0.00000000000E+00  0.00000000000E+00  0.24861247706E+04  0.24861247706E+04  0.00000000000E+00 0. -1.
          1   -1    0    0  501    0 -0.00000000000E+00 -0.00000000000E+00 -0.19538278541E+04  0.19538278541E+04  0.00000000000E+00 0. -1.
         25    2    1    2    0    0 -0.32957312666E+02  0.16671727296E+02 -0.42719706280E+03  0.44663959403E+03  0.12500186214E+03 0.  0.
          2    1    1    2  501    0 -0.38220985914E+02 -0.52647489741E+02 -0.15155693580E+04  0.15169650889E+04  0.00000000000E+00 0. -1.
          1    1    1    2  502    0  0.71178298580E+02  0.35975762445E+02  0.24750633372E+04  0.24763479418E+04  0.00000000000E+00 0. -1.
         22    1    3    3    0    0  0.95595443149E+01 -0.48434173495E+02 -0.21634454092E+03  0.22190586841E+03  0.00000000000E+00 0.  1.
         22    1    3    3    0    0 -0.42516856981E+02  0.65105900791E+02 -0.21085252188E+03  0.22473372562E+03  0.00000000000E+00 0.  1.
</event>
<event>
 7    1  0.5977291E-006  0.8970518E+02  0.7818608E-02  0.1360067E+00
          2   -1    0    0  502    0  0.00000000000E+00  0.00000000000E+00  0.27025148815E+03  0.27025148815E+03  0.00000000000E+00 0. -1.
          1   -1    0    0  501    0 -0.00000000000E+00 -0.00000000000E+00 -0.71969154289E+03  0.71969154289E+03  0.00000000000E+00 0. -1.
         25    2    1    2    0    0 -0.38681284576E+02  0.10258469525E+03 -0.23639188892E+03  0.28900779734E+03  0.12499808118E+03 0.  0.
          2    1    1    2  501    0  0.52762260329E+02 -0.14183408541E+02 -0.44706026099E+03  0.45038639205E+03  0.00000000000E+00 0. -1.
          1    1    1    2  502    0 -0.14080975754E+02 -0.88401286707E+02  0.23401209516E+03  0.25054884165E+03  0.00000000000E+00 0. -1.
         22    1    3    3    0    0  0.18382592126E+02 -0.89421191853E+01 -0.10688791746E+03  0.10882512618E+03  0.00000000000E+00 0. -1.
         22    1    3    3    0    0 -0.57063876702E+02  0.11152681443E+03 -0.12950397146E+03  0.18018267116E+03  0.00000000000E+00 0. -1.
</event>
<event>
 7    1  0.5977291E-006  0.5882399E+02  0.7818608E-02  0.1413070E+00
          2   -1    0    0  502    0  0.00000000000E+00  0.00000000000E+00  0.15793481788E+03  0.15793481788E+03  0.00000000000E+00 0. -1.
          1   -1    0    0  501    0 -0.00000000000E+00 -0.00000000000E+00 -0.17098234692E+04  0.17098234692E+04  0.00000000000E+00 0. -1.
         25    2    1    2    0    0 -0.62330868035E+01  0.27342691892E+02 -0.30759004370E+03  0.33320151721E+03  0.12500056767E+03 0.  0.
          2    1    1    2  501    0 -0.46643064351E+02 -0.39675416928E+02 -0.13836484999E+04  0.13850028467E+04  0.00000000000E+00 0. -1.
          1    1    1    2  502    0  0.52876151155E+02  0.12332725036E+02  0.13934989225E+03  0.14955392318E+03  0.00000000000E+00 0. -1.
         22    1    3    3    0    0 -0.40572784784E+01  0.96511161851E+00  0.11903821791E+02  0.12613243925E+02  0.00000000000E+00 0. -1.
         22    1    3    3    0    0 -0.21758083251E+01  0.26377580273E+02 -0.31949386549E+03  0.32058827329E+03  0.00000000000E+00 0. -1.
</event>
<event>
 7    1  0.5977291E-006  0.7034002E+02  0.7818608E-02  0.1403947E+00
          2   -1    0    0  502    0  0.00000000000E+00  0.00000000000E+00  0.32375806574E+03  0.32375806574E+03  0.00000000000E+00 0. -1.
          1   -1    0    0  501    0 -0.00000000000E+00 -0.00000000000E+00 -0.51752656195E+03  0.51752656195E+03  0.00000000000E+00 0. -1.
         25    2    1    2    0    0 -0.19161034372E+02 -0.10360723195E+03 -0.12440701060E+02  0.16395462815E+03  0.12499898119E+03 0.  0.
          2    1    1    2  501    0  0.37375651379E+02  0.58372814776E+02 -0.42409083329E+03  0.42971776749E+03  0.00000000000E+00 0. -1.
          1    1    1    2  502    0 -0.18214617006E+02  0.45234417179E+02  0.24276303814E+03  0.24761223204E+03  0.00000000000E+00 0. -1.
         22    1    3    3    0    0 -0.49710763931E+02  0.52786293770E+01 -0.91216360960E+01  0.50815629720E+02  0.00000000000E+00 0. -1.
         22    1    3    3    0    0  0.30549729559E+02 -0.10888586133E+03 -0.33190649636E+01  0.11313899843E+03  0.00000000000E+00 0. -1.
</event>
<event>
 7    1  0.5977291E-006  0.7337900E+02  0.7818608E-02  0.1457623E+00
          2   -1    0    0  502    0  0.00000000000E+00  0.00000000000E+00  0.22614103826E+03  0.22614103826E+03  0.00000000000E+00 0. -1.
          1   -1    0    0  501    0 -0.00000000000E+00 -0.00000000000E+00 -0.97298547751E+03  0.97298547751E+03  0.00000000000E+00 0. -1.
         25    2    1    2    0    0 -0.37128648328E+02  0.66032553533E+02 -0.56040549146E+02  0.15654022440E+03  0.12500185621E+03 0.  0.
          2    1    1    2  501    0  0.68330879283E+01 -0.73184503940E+02 -0.86374461629E+03  0.86686644004E+03  0.00000000000E+00 0. -1.
          1    1    1    2  502    0  0.30295560400E+02  0.71519504070E+01  0.17294072618E+03  0.17571985132E+03  0.00000000000E+00 0. -1.
         22    1    3    3    0    0  0.14975671180E+02  0.38976515621E+01 -0.72213612476E+02  0.73853017825E+02  0.00000000000E+00 0.  1.
         22    1    3    3    0    0 -0.52104319508E+02  0.62134901971E+02  0.16173063331E+02  0.82687206579E+02  0.00000000000E+00 0.  1.
</event>
<event>
 7    1  0.5977291E-006  0.1213537E+03  0.7818608E-02  0.1382291E+00
          2   -1    0    0  502    0  0.00000000000E+00  0.00000000000E+00  0.17277454026E+03  0.17277454026E+03  0.00000000000E+00 0. -1.
          1   -1    0    0  501    0 -0.00000000000E+00 -0.00000000000E+00 -0.14968971002E+04  0.14968971002E+04  0.00000000000E+00 0. -1.
         25    2    1    2    0    0  0.92592588463E+02  0.55874549549E+01 -0.75629840722E+03  0.77215093501E+03  0.12500071433E+03 0.  0.
          2    1    1    2  501    0  0.26902026848E+02  0.20148332711E+02 -0.70956066202E+03  0.71035625389E+03  0.00000000000E+00 0. -1.
          1    1    1    2  502    0 -0.11949461531E+03 -0.25735787666E+02  0.14173650930E+03  0.18716445155E+03  0.00000000000E+00 0. -1.
         22    1    3    3    0    0 -0.16859863805E+02  0.36796478184E+02 -0.24661572755E+03  0.24991509136E+03  0.00000000000E+00 0. -1.
         22    1    3    3    0    0  0.10945245227E+03 -0.31209023229E+02 -0.50968267967E+03  0.52223584365E+03  0.00000000000E+00 0. -1.
</event>
<event>
 7    1  0.5977291E-006  0.6943179E+02  0.7818608E-02  0.1407261E+00
          2   -1    0    0  502    0  0.00000000000E+00  0.00000000000E+00  0.10746960956E+03  0.10746960956E+03  0.00000000000E+00 0. -1.
          1   -1    0    0  501    0 -0.00000000000E+00 -0.00000000000E+00 -0.11907720303E+04  0.11907720303E+04  0.00000000000E+00 0. -1.
         25    2    1    2    0    0 -0.11193182187E+02  0.50764113215E+02 -0.58818890555E+03  0.60356720407E+03  0.12499959483E+03 0.  0.
          2    1    1    2  501    0 -0.32370498423E+02 -0.71233084283E+02 -0.58633531130E+03  0.59153283826E+03  0.00000000000E+00 0. -1.
          1    1    1    2  502    0  0.43563680610E+02  0.20468971068E+02  0.91221796131E+02  0.10314159750E+03  0.00000000000E+00 0. -1.
         22    1    3    3    0    0 -0.21131807706E+02  0.14198632192E+01 -0.51086199076E+03  0.51130083407E+03  0.00000000000E+00 0. -1.
         22    1    3    3    0    0  0.99386255197E+01  0.49344249996E+02 -0.77326914782E+02  0.92266370009E+02  0.00000000000E+00 0. -1.
</event>
<event>
 7    1  0.5977291E-006  0.8136712E+02  0.7818608E-02  0.1396193E+00
          2   -1    0    0  502    0  0.00000000000E+00  0.00000000000E+00  0.14917058802E+03  0.14917058802E+03  0.00000000000E+00 0. -1.
          1   -1    0    0  501    0 -0.00000000000E+00 -0.00000000000E+00 -0.13446573175E+04  0.13446573175E+04  0.00000000000E+00 0. -1.
         25    2    1    2    0    0 -0.11794325580E+03  0.42828719337E+02 -0.97840607333E+03  0.99430801831E+03  0.12500032065E+03 0.  0.
          2    1    1    2  501    0  0.43148776322E+02 -0.12140212671E+02 -0.34516049406E+03  0.34805885755E+03  0.00000000000E+00 0. -1.
          1    1    1    2  502    0  0.74794479473E+02 -0.30688506666E+02  0.12807983796E+03  0.15146102961E+03  0.00000000000E+00 0. -1.
         22    1    3    3    0    0 -0.55055707629E+02 -0.43576766140E+02 -0.37853578407E+03  0.38499273410E+03  0.00000000000E+00 0.  1.
         22    1    3    3    0    0 -0.62887548166E+02  0.86405485476E+02 -0.59987028925E+03  0.60931528420E+03  0.00000000000E+00 0.  1.
</event>
<event>
 7    1  0.5977291E-006  0.9804100E+02  0.7818608E-02  0.1386037E+00
          2   -1    0    0  502    0  0.00000000000E+00  0.00000000000E+00  0.49364007635E+03  0.49364007635E+03  0.00000000000E+00 0. -1.
          1   -1    0    0  501    0 -0.00000000000E+00 -0.00000000000E+00 -0.14497118651E+04  0.14497118651E+04  0.00000000000E+00 0. -1.
         25    2    1    2    0    0 -0.42017602496E+01 -0.13518045228E+03 -0.32174262467E+02  0.18698013009E+03  0.12503989929E+03 0.  0.
          2    1    1    2  501    0 -0.73033065581E+01  0.39692578322E+02 -0.13342695621E+04  0.13348798086E+04  0.00000000000E+00 0. -1.
          1    1    1    2  502    0  0.11505066808E+02  0.95487873959E+02  0.41037203581E+03  0.42149200278E+03  0.00000000000E+00 0. -1.
         22    1    3    3    0    0  0.42580706257E+02 -0.43219954073E+01 -0.20686469860E+02  0.47536577758E+02  0.00000000000E+00 0. -1.
         22    1    3    3    0    0 -0.46782466507E+02 -0.13085845687E+03 -0.11487792607E+02  0.13944355233E+03  0.00000000000E+00 0. -1.
</event>
<event>
 7    1  0.5977291E-006  0.2043921E+03  0.7818608E-02  0.1319352E+00
          2   -1    0    0  502    0  0.00000000000E+00  0.00000000000E+00  0.11764709717E+04  0.11764709717E+04  0.00000000000E+00 0. -1.
          1   -1    0    0  501    0 -0.00000000000E+00 -0.00000000000E+00 -0.60996364285E+03  0.60996364285E+03  0.00000000000E+00 0. -1.
         25    2    1    2    0    0  0.66058032160E+02 -0.18228173575E+03  0.30281645915E+03  0.38067342714E+03  0.12499662155E+03 0.  0.
          2    1    1    2  501    0 -0.10003124159E+03  0.17903952746E+03 -0.55225240968E+03  0.58910451168E+03  0.00000000000E+00 0. -1.
          1    1    1    2  502    0  0.33973209428E+02  0.32422082852E+01  0.81594327935E+03  0.81665667571E+03  0.00000000000E+00 0. -1.
         22    1    3    3    0    0  0.22226419151E+01  0.17878311804E+02  0.42447547834E+02  0.46112563225E+02  0.00000000000E+00 0. -1.
         22    1    3    3    0    0  0.63835390245E+02 -0.20016004755E+03  0.26036891131E+03  0.33456086391E+03  0.00000000000E+00 0. -1.
</event>
<event>
 7    1  0.5977291E-006  0.9736485E+02  0.7818608E-02  0.1477006E+00
          2   -1    0    0  502    0  0.00000000000E+00  0.00000000000E+00  0.82079549474E+03  0.82079549474E+03  0.00000000000E+00 0. -1.
          1   -1    0    0  501    0 -0.00000000000E+00 -0.00000000000E+00 -0.42988067350E+02  0.42988067350E+02  0.00000000000E+00 0. -1.
         25    2    1    2    0    0  0.99532561614E+02 -0.56879158738E+02  0.26689124458E+03  0.31622539816E+03  0.12500238594E+03 0.  0.
          2    1    1    2  501    0 -0.18725130792E+02  0.81150404698E+01 -0.66444504979E+01  0.21462365373E+02  0.00000000000E+00 0. -1.
          1    1    1    2  502    0 -0.80807430822E+02  0.48764118268E+02  0.51756063331E+03  0.52609579855E+03  0.00000000000E+00 0. -1.
         22    1    3    3    0    0  0.34543853577E+02 -0.31559994010E+02  0.23485941006E+03  0.23947495388E+03  0.00000000000E+00 0. -1.
         22    1    3    3    0    0  0.64988708036E+02 -0.25319164728E+02  0.32031834518E+02  0.76750444281E+02  0.00000000000E+00 0. -1.
</event>
<event>
 7    1  0.5977291E-006  0.8576702E+02  0.7818608E-02  0.1438364E+00
          2   -1    0    0  502    0  0.00000000000E+00  0.00000000000E+00  0.57101118674E+03  0.57101118674E+03  0.00000000000E+00 0. -1.
          1   -1    0    0  501    0 -0.00000000000E+00 -0.00000000000E+00 -0.10373247459E+03  0.10373247459E+03  0.00000000000E+00 0. -1.
         25    2    1    2    0    0  0.95661955612E+02  0.42792965510E+02  0.24148499911E+03  0.29141325490E+03  0.12499693071E+03 0.  0.
          2    1    1    2  501    0 -0.83071477611E+02 -0.14788358268E+02 -0.55092616419E+02  0.10077084061E+03  0.00000000000E+00 0. -1.
          1    1    1    2  502    0 -0.12590478001E+02 -0.28004607242E+02  0.28088632946E+03  0.28255956583E+03  0.00000000000E+00 0. -1.
         22    1    3    3    0    0  0.99971091530E+02 -0.17950066080E+02  0.16331547619E+03  0.19232360432E+03  0.00000000000E+00 0. -1.
         22    1    3    3    0    0 -0.43091359180E+01  0.60743031590E+02  0.78169522918E+02  0.99089650581E+02  0.00000000000E+00 0. -1.
</event>
<event>
 7    1  0.5977291E-006  0.4257609E+02  0.7818608E-02  0.1508494E+00
          2   -1    0    0  502    0  0.00000000000E+00  0.00000000000E+00  0.16311033342E+04  0.16311033342E+04  0.00000000000E+00 0. -1.
          1   -1    0    0  501    0 -0.00000000000E+00 -0.00000000000E+00 -0.66861165528E+03  0.66861165528E+03  0.00000000000E+00 0. -1.
         25    2    1    2    0    0 -0.29756912970E+02 -0.29284940827E+02  0.21694428579E+03  0.25383617157E+03  0.12499958892E+03 0.  0.
          2    1    1    2  501    0  0.35084769966E+02 -0.13262307329E+02 -0.64929502027E+03  0.65037746980E+03  0.00000000000E+00 0. -1.
          1    1    1    2  502    0 -0.53278569962E+01  0.42547248156E+02  0.13948424134E+04  0.13955013481E+04  0.00000000000E+00 0. -1.
         22    1    3    3    0    0 -0.26649189662E+02  0.21099348109E+02  0.19642636425E+03  0.19934562541E+03  0.00000000000E+00 0.  1.
         22    1    3    3    0    0 -0.31077233072E+01 -0.50384288936E+02  0.20517921544E+02  0.54490546155E+02  0.00000000000E+00 0.  1.
</event>
<event>
 7    1  0.5977291E-006  0.8517553E+02  0.7818608E-02  0.1371692E+00
          2   -1    0    0  502    0  0.00000000000E+00  0.00000000000E+00  0.65996150722E+03  0.65996150722E+03  0.00000000000E+00 0. -1.
          1   -1    0    0  501    0 -0.00000000000E+00 -0.00000000000E+00 -0.69126240942E+03  0.69126240942E+03  0.00000000000E+00 0. -1.
         25    2    1    2    0    0 -0.88487065062E+02 -0.51755379256E+02 -0.27991676772E+03  0.32324435571E+03  0.12499974673E+03 0.  0.
          2    1    1    2  501    0  0.47070089918E+02 -0.22637502759E+02 -0.38507146956E+03  0.38859758950E+03  0.00000000000E+00 0. -1.
          1    1    1    2  502    0  0.41416975144E+02  0.74392882015E+02  0.63368733509E+03  0.63938197142E+03  0.00000000000E+00 0. -1.
         22    1    3    3    0    0 -0.35299888893E+02 -0.69046814690E+02 -0.65048719638E+02  0.10121699808E+03  0.00000000000E+00 0. -1.
         22    1    3    3    0    0 -0.53187176169E+02  0.17291435434E+02 -0.21486804808E+03  0.22202735763E+03  0.00000000000E+00 0. -1.
</event>
<event>
 7    1  0.5977291E-006  0.1004889E+03  0.7818608E-02  0.1299180E+00
          2   -1    0    0  502    0  0.00000000000E+00  0.00000000000E+00  0.72003350899E+02  0.72003350899E+02  0.00000000000E+00 0. -1.
          1   -1    0    0  501    0 -0.00000000000E+00 -0.00000000000E+00 -0.17899267514E+04  0.17899267514E+04  0.00000000000E+00 0. -1.
         25    2    1    2    0    0 -0.64164238356E+02  0.23148504947E+02 -0.12016087221E+03  0.18632364286E+03  0.12499984765E+03 0.  0.
          2    1    1    2  501    0  0.55662325501E+02  0.83664314520E+02 -0.15581208647E+04  0.15613579478E+04  0.00000000000E+00 0. -1.
          1    1    1    2  502    0  0.85019128557E+01 -0.10681281947E+03 -0.39641663549E+02  0.11424851165E+03  0.00000000000E+00 0. -1.
         22    1    3    3    0    0 -0.42790840270E+02 -0.41017233959E+01 -0.13997276909E+03  0.14642491671E+03  0.00000000000E+00 0.  1.
         22    1    3    3    0    0 -0.21373398086E+02  0.27250228343E+02  0.19811896878E+02  0.39898726150E+02  0.00000000000E+00 0.  1.
</event>
<event>
 7    1  0.5977291E-006  0.6460332E+02  0.7818608E-02  0.1391104E+00
          2   -1    0    0  502    0  0.00000000000E+00  0.00000000000E+00  0.94543813771E+03  0.94543813771E+03  0.00000000000E+00 0. -1.
          1   -1    0    0  501    0 -0.00000000000E+00 -0.00000000000E+00 -0.23961553020E+03  0.23961553020E+03  0.00000000000E+00 0. -1.
         25    2    1    2    0    0  0.46178423689E+02 -0.58100440236E+02  0.15931272781E+03  0.21566597537E+03  0.12499263865E+03 0.  0.
          2    1    1    2  501    0  0.12339610480E+02  0.63842106045E+02 -0.20526447164E+03  0.21531740247E+03  0.00000000000E+00 0. -1.
          1    1    1    2  502    0 -0.58518034170E+02 -0.57416658087E+01  0.75177435133E+03  0.75407029007E+03  0.00000000000E+00 0. -1.
         22    1    3    3    0    0 -0.11222969404E+02 -0.64655422959E+01  0.13369198615E+03  0.13431792672E+03  0.00000000000E+00 0. -1.
         22    1    3    3    0    0  0.57401393093E+02 -0.51634897940E+02  0.25620741667E+02  0.81348048642E+02  0.00000000000E+00 0. -1.
</event>
<event>
 7    1  0.5977291E-006  0.1509045E+03  0.7818608E-02  0.1295176E+00
          2   -1    0    0  502    0  0.00000000000E+00  0.00000000000E+00  0.31495692417E+04  0.31495692417E+04  0.00000000000E+00 0. -1.
          1   -1    0    0  501    0 -0.00000000000E+00 -0.00000000000E+00 -0.42021135253E+03  0.42021135253E+03  0.00000000000E+00 0. -1.
         25    2    1    2    0    0 -0.81366756573E+02 -0.13819089528E+03  0.88222444596E+02  0.22164322511E+03  0.12500098756E+03 0.  0.
          2    1    1    2  501    0  0.56616594664E+02 -0.10697213121E+02 -0.34923714921E+03  0.35395826809E+03  0.00000000000E+00 0. -1.
          1    1    1    2  502    0  0.24750161909E+02  0.14888810840E+03  0.29903725938E+04  0.29941791011E+04  0.00000000000E+00 0. -1.
         22    1    3    3    0    0 -0.57164074049E+02 -0.20299115645E+02  0.80836987392E+02  0.10106633459E+03  0.00000000000E+00 0. -1.
         22    1    3    3    0    0 -0.24202682525E+02 -0.11789177964E+03  0.73854572041E+01  0.12057689051E+03  0.00000000000E+00 0. -1.
</event>
<event>
 7    1  0.5977291E-006  0.1100656E+03  0.7818608E-02  0.1324523E+00
          2   -1    0    0  502    0  0.00000000000E+00  0.00000000000E+00  0.29231011852E+04  0.29231011852E+04  0.00000000000E+00 0. -1.
          1   -1    0    0  501    0 -0.00000000000E+00 -0.00000000000E+00 -0.19541290067E+03  0.19541290067E+03  0.00000000000E+00 0. -1.
         25    2    1    2    0    0  0.14029129633E+03 -0.94088888184E+02  0.23724511888E+03  0.31693123416E+03  0.12500317617E+03 0.  0.
          2    1    1    2  501    0 -0.50988839544E+02  0.32604617818E+02 -0.14852797104E+03  0.16038541406E+03  0.00000000000E+00 0. -1.
          1    1    1    2  502    0 -0.89302456787E+02  0.61484270366E+02  0.26389711367E+04  0.26411974377E+04  0.00000000000E+00 0. -1.
         22    1    3    3    0    0  0.67088644841E+02 -0.33878552561E+02  0.20247073688E+03  0.21597000228E+03  0.00000000000E+00 0.  1.
         22    1    3    3    0    0  0.73202651490E+02 -0.60210335623E+02  0.34774381997E+02  0.10096123189E+03  0.00000000000E+00 0.  1.
</event>
<event>
 7    1  0.5977291E-006  0.1228073E+03  0.7818608E-02  0.1343229E+00
          2   -1    0    0  502    0  0.00000000000E+00  0.00000000000E+00  0.95439009838E+02  0.95439009838E+02  0.00000000000E+00 0. -1.
          1   -1    0    0  501    0 -0.00000000000E+00 -0.00000000000E+00 -0.18335263822E+04  0.18335263822E+04  0.00000000000E+00 0. -1.
         25    2    1    2    0    0  0.15839788222E+03 -0.91495133603E+01 -0.25287775444E+03  0.32364432008E+03  0.12499953817E+03 0.  0.
          2    1    1    2  501    0 -0.11697185061E+03  0.29278924893E+02 -0.15337061635E+04  0.15384389052E+04  0.00000000000E+00 0. -1.
          1    1    1    2  502    0 -0.41426031615E+02 -0.20129411533E+02  0.48496545509E+02  0.66882166759E+02  0.00000000000E+00 0. -1.
         22    1    3    3    0    0  0.15096777068E+03  0.16455374586E+02 -0.13630466795E+03  0.20406128893E+03  0.00000000000E+00 0.  1.
         22    1    3    3    0    0  0.74301115427E+01 -0.25604887947E+02 -0.11657308649E+03  0.11958303115E+03  0.00000000000E+00 0.  1.
</event>
<event>
 7    1  0.5977291E-006  0.1296024E+03  0.7818608E-02  0.1325540E+00
          2   -1    0    0  502    0  0.00000000000E+00  0.00000000000E+00  0.35291301325E+04  0.35291301325E+04  0.00000000000E+00 0. -1.
          1   -1    0    0  501    0 -0.00000000000E+00 -0.00000000000E+00 -0.29008020123E+04  0.29008020123E+04  0.00000000000E+00 0. -1.
         25    2    1    2    0    0  0.16934605678E+03 -0.10352935076E+01  0.48638934698E+02  0.21601367881E+03  0.12496801465E+03 0.  0.
          2    1    1    2  501    0 -0.43311253247E+02 -0.26810088687E+02 -0.28156580367E+04  0.28161187520E+04  0.00000000000E+00 0. -1.
          1    1    1    2  502    0 -0.12603480353E+03  0.27845382194E+02  0.33953472222E+04  0.33977997140E+04  0.00000000000E+00 0. -1.
         22    1    3    3    0    0  0.72296587027E+02  0.32209603086E+02 -0.32157869544E+02  0.85430577666E+02  0.00000000000E+00 0.  1.
         22    1    3    3    0    0  0.97049469753E+02 -0.33244896594E+02  0.80796804242E+02  0.13058310114E+03  0.00000000000E+00 0.  1.
</event>
<event>
 7    1  0.5977291E-006  0.4409993E+02  0.7818608E-02  0.1519872E+00
          2   -1    0    0  502    0  0.00000000000E+00  0.00000000000E+00  0.31118891577E+04  0.31118891577E+04  0.00000000000E+00 0. -1.
          1   -1    0    0  501    0 -0.00000000000E+00 -0.00000000000E+00 -0.14789740520E+02  0.14789740520E+02  0.00000000000E+00 0. -1.
         25    2    1    2    0    0  0.13056068725E+02 -0.31401842634E+01  0.68508045893E+03  0.69652042974E+03  0.12500060857E+03 0.  0.
          2    1    1    2  501    0  0.22638652467E+02 -0.24745327535E+02  0.22901824730E+02  0.40611985870E+02  0.00000000000E+00 0. -1.
          1    1    1    2  502    0 -0.35694721192E+02  0.27885511799E+02  0.23891171335E+04  0.23895464826E+04  0.00000000000E+00 0. -1.
         22    1    3    3    0    0  0.60838201161E+02  0.29700264113E+02  0.36031268330E+03  0.36661781484E+03  0.00000000000E+00 0. -1.
         22    1    3    3    0    0 -0.47782132436E+02 -0.32840448377E+02  0.32476777563E+03  0.32990261490E+03  0.00000000000E+00 0. -1.
</event>
<event>
 7    1  0.5977291E-006  0.1656906E+03  0.7818608E-02  0.1341201E+00
          2   -1    0    0  502    0  0.00000000000E+00  0.00000000000E+00  0.24388531251E+03  0.24388531251E+03  0.00000000000E+00 0. -1.
          1   -1    0    0  501    0 -0.00000000000E+00 -0.00000000000E+00 -0.37925940874E+03  0.37925940874E+03  0.00000000000E+00 0. -1.
         25    2    1    2    0    0  0.11893248234E+03  0.74227431771E+02 -0.91187311215E+01  0.18805043442E+03  0.12500067057E+03 0.  0.
          2    1    1    2  501    0 -0.14096373296E+03 -0.10108790588E+03 -0.25127724630E+03  0.30533554204E+03  0.00000000000E+00 0. -1.
          1    1    1    2  502    0  0.22031250618E+02  0.26860474114E+02  0.12502188119E+03  0.12975874480E+03  0.00000000000E+00 0. -1.
         22    1    3    3    0    0 -0.91345977608E+01  0.54589012459E+02 -0.17949498729E+02  0.58185785740E+02  0.00000000000E+00 0.  1.
         22    1    3    3    0    0  0.12806708010E+03  0.19638419312E+02  0.88307676078E+01  0.12986464868E+03  0.00000000000E+00 0.  1.
</event>
<event>
 7    1  0.5977291E-006  0.1676000E+03  0.7818608E-02  0.1201362E+00
          2   -1    0    0  502    0  0.00000000000E+00  0.00000000000E+00  0.10739494884E+04  0.10739494884E+04  0.00000000000E+00 0. -1.
          1   -1    0    0  501    0 -0.00000000000E+00 -0.00000000000E+00 -0.26326496078E+03  0.26326496078E+03  0.00000000000E+00 0. -1.
         25    2    1    2    0    0 -0.52452483305E+01 -0.41506324226E+02  0.42256561796E+01  0.13183999592E+03  0.12495455484E+03 0.  0.
          2    1    1    2  501    0  0.26259733512E+02  0.20778370135E+03 -0.13495924806E+03  0.24915384562E+03  0.00000000000E+00 0. -1.
          1    1    1    2  502    0 -0.21014485181E+02 -0.16627737712E+03  0.94141811951E+03  0.95622060763E+03  0.00000000000E+00 0. -1.
         22    1    3    3    0    0 -0.55752595597E+02  0.11473950224E+02 -0.84754038292E+01  0.57548552715E+02  0.00000000000E+00 0.  1.
         22    1    3    3    0    0  0.50507347266E+02 -0.52980274450E+02  0.12701060009E+02  0.74291443209E+02  0.00000000000E+00 0.  1.
</event>
<event>
 7    1  0.6662289E-006  0.4842335E+02  0.7818608E-02  0.1475716E+00
          2   -1    0    0  502    0  0.00000000000E+00  0.00000000000E+00  0.89410012649E+03  0.89410012649E+03  0.00000000000E+00 0. -1.
          1   -1    0    0  501    0 -0.00000000000E+00 -0.00000000000E+00 -0.84893998659E+03  0.84893998659E+03  0.00000000000E+00 0. -1.
         25    2    1    2    0    0 -0.16593446910E+02  0.17305396339E+02 -0.22902865656E+03  0.26201721809E+03  0.12499631125E+03 0.  0.
          2    1    1    2  501    0 -0.30807251350E+02 -0.27674038686E+02 -0.60203453266E+03  0.60345713822E+03  0.00000000000E+00 0. -1.
          1    1    1    2  502    0  0.47400698260E+02  0.10368642347E+02  0.87622332913E+03  0.87756575677E+03  0.00000000000E+00 0. -1.
         22    1    3    3    0    0 -0.37768272176E+02 -0.38400978799E+02 -0.50608569807E+02  0.73907407570E+02  0.00000000000E+00 0. -1.
         22    1    3    3    0    0  0.21174825266E+02  0.55706375138E+02 -0.17842008675E+03  0.18810981052E+03  0.00000000000E+00 0. -1.
</event>
<event>
 7    1  0.5977291E-006  0.9485195E+02  0.7818608E-02  0.1311782E+00
          2   -1    0    0  502    0  0.00000000000E+00  0.00000000000E+00  0.55492317402E+03  0.55492317402E+03  0.00000000000E+00 0. -1.
          1   -1    0    0  501    0 -0.00000000000E+00 -0.00000000000E+00 -0.17785762933E+03  0.17785762933E+03  0.00000000000E+00 0. -1.
         25    2    1    2    0    0 -0.41920315237E+02  0.48821764294E+02 -0.43222153629E+01  0.14065670298E+03  0.12499899620E+03 0.  0.
          2    1    1    2  501    0  0.62570808383E+02  0.47770738073E+02 -0.84729681319E+02  0.11565581859E+03  0.00000000000E+00 0. -1.
          1    1    1    2  502    0 -0.20650493146E+02 -0.96592502368E+02  0.46611744138E+03  0.47646828178E+03  0.00000000000E+00 0. -1.
         22    1    3    3    0    0  0.43606251029E+02  0.29327550371E+02 -0.62071657839E+01  0.52916341962E+02  0.00000000000E+00 0. -1.
         22    1    3    3    0    0 -0.85526566266E+02  0.19494213923E+02  0.18849504211E+01  0.87740361020E+02  0.00000000000E+00 0. -1.
</event>
<event>
 7    1  0.5977291E-006  0.1521973E+03  0.7818608E-02  0.1213090E+00
          2   -1    0    0  502    0  0.00000000000E+00  0.00000000000E+00  0.41099750417E+03  0.41099750417E+03  0.00000000000E+00 0. -1.
          1   -1    0    0  501    0 -0.00000000000E+00 -0.00000000000E+00 -0.10422778645E+04  0.10422778645E+04  0.00000000000E+00 0. -1.
         25    2    1    2    0    0 -0.75826522853E+01 -0.13175559577E+03 -0.95829432665E+02  0.20549150390E+03  0.12500577738E+03 0.  0.
          2    1    1    2  501    0 -0.11932629596E+03  0.10802999564E+03 -0.87230692632E+03  0.88703360622E+03  0.00000000000E+00 0. -1.
          1    1    1    2  502    0  0.12690894824E+03  0.23725600129E+02  0.33685599863E+03  0.36075025857E+03  0.00000000000E+00 0. -1.
         22    1    3    3    0    0 -0.25268174228E+02 -0.21041570112E+02 -0.87023449376E+02  0.93028538862E+02  0.00000000000E+00 0. -1.
         22    1    3    3    0    0  0.17685521943E+02 -0.11071402566E+03 -0.88059832892E+01  0.11246296504E+03  0.00000000000E+00 0. -1.
</event>
<event>
 7    1  0.5977291E-006  0.3698949E+02  0.7818608E-02  0.1574305E+00
          2   -1    0    0  502    0  0.00000000000E+00  0.00000000000E+00  0.34263217473E+04  0.34263217473E+04  0.00000000000E+00 0. -1.
          1   -1    0    0  501    0 -0.00000000000E+00 -0.00000000000E+00 -0.14341299895E+02  0.14341299895E+02  0.00000000000E+00 0. -1.
         25    2    1    2    0    0 -0.60558017672E+02 -0.16095322340E+02  0.21952023871E+04  0.21996509671E+04  0.12499809443E+03 0.  0.
          2    1    1    2  501    0  0.36660331018E+02  0.12241430210E+01  0.16191169153E+02  0.40095290933E+02  0.00000000000E+00 0. -1.
          1    1    1    2  502    0  0.23897686654E+02  0.14871179319E+02  0.12005868912E+04  0.12009167892E+04  0.00000000000E+00 0. -1.
         22    1    3    3    0    0 -0.45415429882E+02 -0.70186755550E+02  0.13429789738E+04  0.13455784132E+04  0.00000000000E+00 0.  1.
         22    1    3    3    0    0 -0.15142587790E+02  0.54091433210E+02  0.85222341332E+03  0.85407255390E+03  0.00000000000E+00 0.  1.
</event>
<event>
 7    1  0.5977291E-006  0.1105410E+03  0.7818608E-02  0.1332766E+00
          2   -1    0    0  502    0  0.00000000000E+00  0.00000000000E+00  0.35551618293E+03  0.35551618293E+03  0.00000000000E+00 0. -1.
          1   -1    0    0  501    0 -0.00000000000E+00 -0.00000000000E+00 -0.33233413766E+04  0.33233413766E+04  0.00000000000E+00 0. -1.
         25    2    1    2    0    0  0.11440469271E+03 -0.11498699681E+03 -0.65253264738E+03  0.68391187186E+03  0.12500459759E+03 0.  0.
          2    1    1    2  501    0 -0.49448348562E+02  0.26365553467E+02 -0.26459328809E+04  0.26465262311E+04  0.00000000000E+00 0. -1.
          1    1    1    2  502    0 -0.64956344152E+02  0.88621443339E+02  0.33064033461E+03  0.34841945660E+03  0.00000000000E+00 0. -1.
         22    1    3    3    0    0 -0.12824960001E+02  0.41311741600E+00 -0.19135032787E+03  0.19178007780E+03  0.00000000000E+00 0. -1.
         22    1    3    3    0    0  0.12722965272E+03 -0.11540011422E+03 -0.46118231952E+03  0.49213179406E+03  0.00000000000E+00 0. -1.
</event>
<event>
 7    1  0.5977291E-006  0.9195503E+02  0.7818608E-02  0.1305095E+00
          2   -1    0    0  502    0  0.00000000000E+00  0.00000000000E+00  0.18936476657E+04  0.18936476657E+04  0.00000000000E+00 0. -1.
          1   -1    0    0  501    0 -0.00000000000E+00 -0.00000000000E+00 -0.27974840067E+03  0.27974840067E+03  0.00000000000E+00 0. -1.
         25    2    1    2    0    0 -0.23109017947E+02  0.12065248177E+03 -0.55706011760E+02  0.18389992021E+03  0.12499989136E+03 0.  0.
          2    1    1    2  501    0  0.74160861162E+02 -0.44123895221E+02 -0.14705671898E+03  0.17050639300E+03  0.00000000000E+00 0. -1.
          1    1    1    2  502    0 -0.51051843215E+02 -0.76528586546E+02  0.18166619958E+04  0.18189897532E+04  0.00000000000E+00 0. -1.
         22    1    3    3    0    0 -0.84253804231E+01  0.31447591541E+02  0.40446091559E+02  0.51921328676E+02  0.00000000000E+00 0.  1.
         22    1    3    3    0    0 -0.14683637524E+02  0.89204890226E+02 -0.96152103319E+02  0.13197859154E+03  0.00000000000E+00 0.  1.
</event>
<event>
 7    1  0.5977291E-006  0.1922127E+03  0.7818608E-02  0.1263169E+00
          2   -1    0    0  502    0  0.00000000000E+00  0.00000000000E+00  0.10290218180E+04  0.10290218180E+04  0.00000000000E+00 0. -1.
          1   -1    0    0  501    0 -0.00000000000E+00 -0.00000000000E+00 -0.29402448595E+03  0.29402448595E+03  0.00000000000E+00 0. -1.
         25    2    1    2    0    0 -0.89375856705E+02  0.20097877868E+03  0.40978700795E+03  0.48159229063E+03  0.12500091707E+03 0.  0.
          2    1    1    2  501    0 -0.23125305534E+02 -0.56844091939E+02 -0.23983517198E+03  0.24756199277E+03  0.00000000000E+00 0. -1.
          1    1    1    2  502    0  0.11250116224E+03 -0.14413468674E+03  0.56504549607E+03  0.59389202054E+03  0.00000000000E+00 0. -1.
         22    1    3    3    0    0 -0.11607556441E+03  0.12288973580E+03  0.25059585202E+03  0.30228083775E+03  0.00000000000E+00 0. -1.
         22    1    3    3    0    0  0.26699707707E+02  0.78089042883E+02  0.15919115593E+03  0.17931145288E+03  0.00000000000E+00 0. -1.
</event>
<event>
 7    1  0.5977291E-006  0.8011848E+02  0.7818608E-02  0.1493609E+00
          2   -1    0    0  502    0  0.00000000000E+00  0.00000000000E+00  0.14634257658E+03  0.14634257658E+03  0.00000000000E+00 0. -1.
          1   -1    0    0  501    0 -0.00000000000E+00 -0.00000000000E+00 -0.14442996250E+04  0.14442996250E+04  0.00000000000E+00 0. -1.
         25    2    1    2    0    0 -0.60034320218E+02 -0.53138361726E+02 -0.47475512581E+03  0.49743853378E+03  0.12499944125E+03 0.  0.
          2    1    1    2  501    0  0.16757123409E+02 -0.14370914380E+02 -0.94615457618E+03  0.94641207008E+03  0.00000000000E+00 0. -1.
          1    1    1    2  502    0  0.43277196809E+02  0.67509276106E+02  0.12295265360E+03  0.14679159769E+03  0.00000000000E+00 0. -1.
         22    1    3    3    0    0 -0.31743435373E+02  0.94654218406E+01 -0.37415849050E+03  0.37562190553E+03  0.00000000000E+00 0. -1.
         22    1    3    3    0    0 -0.28290884846E+02 -0.62603783567E+02 -0.10059663531E+03  0.12181662825E+03  0.00000000000E+00 0. -1.
</event>
<event>
 7    1  0.5977291E-006  0.2882833E+02  0.7818608E-02  0.1670109E+00
          2   -1    0    0  502    0  0.00000000000E+00  0.00000000000E+00  0.15012210085E+04  0.15012210085E+04  0.00000000000E+00 0. -1.
          1   -1    0    0  501    0 -0.00000000000E+00 -0.00000000000E+00 -0.11949226194E+03  0.11949226194E+03  0.00000000000E+00 0. -1.
         25    2    1    2    0    0  0.32239895217E+01  0.29659506235E+02  0.62976996460E+02  0.14311376900E+03  0.12500147350E+03 0.  0.
          2    1    1    2  501    0 -0.21268621785E+02 -0.19693782166E+02 -0.76700547381E+02  0.81994958974E+02  0.00000000000E+00 0. -1.
          1    1    1    2  502    0  0.18044632264E+02 -0.99657240689E+01  0.13954522974E+04  0.13956045424E+04  0.00000000000E+00 0. -1.
         22    1    3    3    0    0  0.47942639567E+02 -0.24981260704E+02  0.44782762163E+02  0.70200112977E+02  0.00000000000E+00 0. -1.
         22    1    3    3    0    0 -0.44718650046E+02  0.54640766939E+02  0.18194234298E+02  0.72913656027E+02  0.00000000000E+00 0. -1.
</event>
<event>
 7    1  0.5977291E-006  0.6535480E+02  0.7818608E-02  0.1409501E+00
          2   -1    0    0  502    0  0.00000000000E+00  0.00000000000E+00  0.39254748431E+03  0.39254748431E+03  0.00000000000E+00 0. -1.
          1   -1    0    0  501    0 -0.00000000000E+00 -0.00000000000E+00 -0.33983866803E+03  0.33983866803E+03  0.00000000000E+00 0. -1.
         25    2    1    2    0    0 -0.15442764743E+02 -0.60424483927E+02  0.20698217429E+03  0.24971442485E+03  0.12500430498E+03 0.  0.
          2    1    1    2  501    0 -0.44952463216E+02  0.22451436572E+02 -0.30859440154E+03  0.31265843283E+03  0.00000000000E+00 0. -1.
          1    1    1    2  502    0  0.60395227959E+02  0.37973047355E+02  0.15432104354E+03  0.17001329467E+03  0.00000000000E+00 0. -1.
         22    1    3    3    0    0 -0.22167535064E+02 -0.76281472854E+02  0.21609151675E+03  0.23022989884E+03  0.00000000000E+00 0.  1.
         22    1    3    3    0    0  0.67247703215E+01  0.15856988927E+02 -0.91093424565E+01  0.19484526007E+02  0.00000000000E+00 0.  1.
</event>
<event>
 7    1  0.5977291E-006  0.8724022E+02  0.7818608E-02  0.1391123E+00
          2   -1    0    0  502    0  0.00000000000E+00  0.00000000000E+00  0.35807725910E+04  0.35807725910E+04  0.00000000000E+00 0. -1.
          1   -1    0    0  501    0 -0.00000000000E+00 -0.00000000000E+00 -0.77136031257E+02  0.77136031257E+02  0.00000000000E+00 0. -1.
         25    2    1    2    0    0 -0.26699083106E+02 -0.11624949600E+03  0.58869381868E+03  0.61352355298E+03  0.12499580613E+03 0.  0.
          2    1    1    2  501    0  0.41418698771E+02  0.75277894139E+02 -0.35974009781E+02  0.93147191765E+02  0.00000000000E+00 0. -1.
          1    1    1    2  502    0 -0.14719615664E+02  0.40971601865E+02  0.29509167509E+04  0.29512378776E+04  0.00000000000E+00 0. -1.
         22    1    3    3    0    0  0.43819146040E+02 -0.99900320517E+01  0.16976892497E+03  0.17561721494E+03  0.00000000000E+00 0. -1.
         22    1    3    3    0    0 -0.70518229146E+02 -0.10625946395E+03  0.41892489371E+03  0.43790633804E+03  0.00000000000E+00 0. -1.
</event>
<event>
 7    1  0.5977291E-006  0.1001177E+03  0.7818608E-02  0.1329383E+00
          2   -1    0    0  502    0  0.00000000000E+00  0.00000000000E+00  0.18790998684E+04  0.18790998684E+04  0.00000000000E+00 0. -1.
          1   -1    0    0  501    0 -0.00000000000E+00 -0.00000000000E+00 -0.12157481982E+04  0.12157481982E+04  0.00000000000E+00 0. -1.
         25    2    1    2    0    0 -0.13476273830E+03  0.68573781592E+02 -0.23790406753E+02  0.19762552970E+03  0.12500602937E+03 0.  0.
          2    1    1    2  501    0  0.97537774797E+02 -0.16835265895E+02 -0.11022552368E+04  0.11066904042E+04  0.00000000000E+00 0. -1.
          1    1    1    2  502    0  0.37224963502E+02 -0.51738515697E+02  0.17893973137E+04  0.17905321327E+04  0.00000000000E+00 0. -1.
         22    1    3    3    0    0  0.22900841291E+02  0.28381944325E+01  0.68704250035E+01  0.24077097400E+02  0.00000000000E+00 0. -1.
         22    1    3    3    0    0 -0.15766357959E+03  0.65735587159E+02 -0.30660831756E+02  0.17354843230E+03  0.00000000000E+00 0. -1.
</event>
<event>
 7    1  0.5977291E-006  0.1607542E+03  0.7818608E-02  0.1286542E+00
          2   -1    0    0  502    0  0.00000000000E+00  0.00000000000E+00  0.11494562377E+04  0.11494562377E+04  0.00000000000E+00 0. -1.
          1   -1    0    0  501    0 -0.00000000000E+00 -0.00000000000E+00 -0.19255527388E+04  0.19255527388E+04  0.00000000000E+00 0. -1.
         25    2    1    2    0    0 -0.18519738359E+02 -0.16871888366E+03  0.10614877252E+03  0.23601177345E+03  0.12499981155E+03 0.  0.
          2    1    1    2  501    0 -0.38730630046E+02  0.15604492782E+03 -0.18562645906E+04  0.18632145103E+04  0.00000000000E+00 0. -1.
          1    1    1    2  502    0  0.57250368406E+02  0.12673955845E+02  0.97401931691E+03  0.97578269279E+03  0.00000000000E+00 0. -1.
         22    1    3    3    0    0  0.40076109369E+02 -0.11296527683E+02  0.31432603273E+02  0.52170054901E+02  0.00000000000E+00 0.  1.
         22    1    3    3    0    0 -0.58595847728E+02 -0.15742235598E+03  0.74716169243E+02  0.18384171855E+03  0.00000000000E+00 0.  1.
</event>
<event>
 7    1  0.5977291E-006  0.5673710E+02  0.7818608E-02  0.1440489E+00
          2   -1    0    0  502    0  0.00000000000E+00  0.00000000000E+00  0.51637578550E+03  0.51637578550E+03  0.00000000000E+00 0. -1.
          1   -1    0    0  501    0 -0.00000000000E+00 -0.00000000000E+00 -0.19705069246E+03  0.19705069246E+03  0.00000000000E+00 0. -1.
         25    2    1    2    0    0 -0.28087852405E+02 -0.74598927314E+02  0.70772363418E+02  0.16427716911E+03  0.12499733380E+03 0.  0.
          2    1    1    2  501    0  0.45920990104E+02  0.32540425280E+02 -0.14365675316E+03  0.15428829942E+03  0.00000000000E+00 0. -1.
          1    1    1    2  502    0 -0.17833137699E+02  0.42058502034E+02  0.39220948278E+03  0.39486100944E+03  0.00000000000E+00 0. -1.
         22    1    3    3    0    0 -0.15487585350E+02  0.23320123538E+02 -0.16510027718E+02  0.32500376568E+02  0.00000000000E+00 0. -1.
         22    1    3    3    0    0 -0.12600267055E+02 -0.97919050851E+02  0.87282391137E+02  0.13177679254E+03  0.00000000000E+00 0. -1.
</event>
<event>
 7    1  0.5977291E-006  0.6671453E+02  0.7818608E-02  0.1389791E+00
          2   -1    0    0  502    0  0.00000000000E+00  0.00000000000E+00  0.49345862654E+02  0.49345862654E+02  0.00000000000E+00 0. -1.
          1   -1    0    0  501    0 -0.00000000000E+00 -0.00000000000E+00 -0.28911087766E+04  0.28911087766E+04  0.00000000000E+00 0. -1.
         25    2    1    2    0    0 -0.31992196105E+02 -0.45073959238E+02 -0.51793275458E+03  0.53566303916E+03  0.12500156336E+03 0.  0.
          2    1    1    2  501    0 -0.36582471849E+02  0.44416305500E+02 -0.23346555960E+04  0.23353646048E+04  0.00000000000E+00 0. -1.
          1    1    1    2  502    0  0.68574667954E+02  0.65765373753E+00  0.10825436654E+02  0.69426995270E+02  0.00000000000E+00 0. -1.
         22    1    3    3    0    0  0.16927016484E+02  0.36932325889E+02 -0.13323343293E+03  0.13928987125E+03  0.00000000000E+00 0.  1.
         22    1    3    3    0    0 -0.48919212589E+02 -0.82006285127E+02 -0.38469932165E+03  0.39637316791E+03  0.00000000000E+00 0.  1.
</event>
<event>
 7    1  0.5977291E-006  0.6342357E+02  0.7818608E-02  0.1433347E+00
          2   -1    0    0  502    0  0.00000000000E+00  0.00000000000E+00  0.27682294359E+04  0.27682294359E+04  0.00000000000E+00 0. -1.
          1   -1    0    0  501    0 -0.00000000000E+00 -0.00000000000E+00 -0.61748884027E+03  0.61748884027E+03  0.00000000000E+00 0. -1.
         25    2    1    2    0    0 -0.77093614410E+02 -0.35188419316E+02  0.13598350931E+03  0.20322057311E+03  0.12500174517E+03 0.  0.
          2    1    1    2  501    0  0.14036086439E+02  0.40768970255E+02 -0.58268810088E+03  0.58428121959E+03  0.00000000000E+00 0. -1.
          1    1    1    2  502    0  0.63057527971E+02 -0.55805509385E+01  0.25974451872E+04  0.25982164835E+04  0.00000000000E+00 0. -1.
         22    1    3    3    0    0 -0.11035009614E+03 -0.40074291668E+02  0.10500712335E+03  0.15751059813E+03  0.00000000000E+00 0.  1.
         22    1    3    3    0    0  0.33256481727E+02  0.48858723515E+01  0.30976385959E+02  0.45709974979E+02  0.00000000000E+00 0.  1.
</event>
<event>
 7    1  0.5977291E-006  0.7613443E+02  0.7818608E-02  0.1413353E+00
          2   -1    0    0  502    0  0.00000000000E+00  0.00000000000E+00  0.53157264562E+03  0.53157264562E+03  0.00000000000E+00 0. -1.
          1   -1    0    0  501    0 -0.00000000000E+00 -0.00000000000E+00 -0.11369573497E+04  0.11369573497E+04  0.00000000000E+00 0. -1.
         25    2    1    2    0    0  0.10573598565E+03 -0.29241356971E+01  0.17415163663E+03  0.23904604410E+03  0.12500227770E+03 0.  0.
          2    1    1    2  501    0 -0.36631672005E+02 -0.20254327788E+02 -0.11000200954E+04  0.11008162096E+04  0.00000000000E+00 0. -1.
          1    1    1    2  502    0 -0.69104313644E+02  0.23178463485E+02  0.32048375468E+03  0.32866774157E+03  0.00000000000E+00 0. -1.
         22    1    3    3    0    0  0.12480995511E+03 -0.30736282692E+02  0.12393241072E+03  0.17855387533E+03  0.00000000000E+00 0. -1.
         22    1    3    3    0    0 -0.19073969466E+02  0.27812146994E+02  0.50219225908E+02  0.60492168770E+02  0.00000000000E+00 0. -1.
</event>
<event>
 7    1  0.5977291E-006  0.6532887E+02  0.7818608E-02  0.1443752E+00
          2   -1    0    0  502    0  0.00000000000E+00  0.00000000000E+00  0.48180902490E+02  0.48180902490E+02  0.00000000000E+00 0. -1.
          1   -1    0    0  501    0 -0.00000000000E+00 -0.00000000000E+00 -0.16359110615E+04  0.16359110615E+04  0.00000000000E+00 0. -1.
         25    2    1    2    0    0 -0.96171229080E+02  0.11977583897E+02 -0.14277537670E+03  0.21307810813E+03  0.12500041662E+03 0.  0.
          2    1    1    2  501    0  0.59711821056E+02 -0.25020308865E+02 -0.14267633897E+04  0.14282315245E+04  0.00000000000E+00 0. -1.
          1    1    1    2  502    0  0.36459408024E+02  0.13042724968E+02 -0.18191392569E+02  0.42782331302E+02  0.00000000000E+00 0. -1.
         22    1    3    3    0    0 -0.35404498663E+02 -0.48235327591E+02 -0.10213030046E+03  0.11836690258E+03  0.00000000000E+00 0.  1.
         22    1    3    3    0    0 -0.60766730416E+02  0.60212911489E+02 -0.40645076241E+02  0.94711205557E+02  0.00000000000E+00 0.  1.
</event>
<event>
 7    1  0.5977291E-006  0.3677186E+03  0.7818608E-02  0.1249714E+00
          2   -1    0    0  502    0  0.00000000000E+00  0.00000000000E+00  0.51132819079E+03  0.51132819079E+03  0.00000000000E+00 0. -1.
          1   -1    0    0  501    0 -0.00000000000E+00 -0.00000000000E+00 -0.17726247583E+04  0.17726247583E+04  0.00000000000E+00 0. -1.
         25    2    1    2    0    0 -0.91933271232E+02 -0.35486101656E+03 -0.51161601372E+03  0.64168045668E+03  0.12499918222E+03 0.  0.
          2    1    1    2  501    0  0.56557610334E+02  0.36440877315E+03 -0.11667270523E+04  0.12236194391E+04  0.00000000000E+00 0. -1.
          1    1    1    2  502    0  0.35375660898E+02 -0.95477565944E+01  0.41704649855E+03  0.41865305324E+03  0.00000000000E+00 0. -1.
         22    1    3    3    0    0 -0.24586371092E+02 -0.29437385181E+03 -0.41361494901E+03  0.50826939738E+03  0.00000000000E+00 0.  1.
         22    1    3    3    0    0 -0.67346900141E+02 -0.60487164750E+02 -0.98001064715E+02  0.13341105930E+03  0.00000000000E+00 0.  1.
</event>
<event>
 7    1  0.5977291E-006  0.1439759E+03  0.7818608E-02  0.1362034E+00
          2   -1    0    0  502    0  0.00000000000E+00  0.00000000000E+00  0.22074517524E+04  0.22074517524E+04  0.00000000000E+00 0. -1.
          1   -1    0    0  501    0 -0.00000000000E+00 -0.00000000000E+00 -0.12617312697E+04  0.12617312697E+04  0.00000000000E+00 0. -1.
         25    2    1    2    0    0  0.16985712175E+03 -0.18213738970E+02  0.18348015285E+03  0.28012930649E+03  0.12499711905E+03 0.  0.
          2    1    1    2  501    0 -0.13971177335E+03  0.32788149775E+02 -0.12090209144E+04  0.12175081166E+04  0.00000000000E+00 0. -1.
          1    1    1    2  502    0 -0.30145348398E+02 -0.14574410805E+02  0.19712612443E+04  0.19715455990E+04  0.00000000000E+00 0. -1.
         22    1    3    3    0    0  0.18478144397E+03 -0.28258600962E+02  0.18377459484E+03  0.26213704864E+03  0.00000000000E+00 0.  1.
         22    1    3    3    0    0 -0.14924322221E+02  0.10044861992E+02 -0.29444199717E+00  0.17992257843E+02  0.00000000000E+00 0.  1.
</event>
<event>
 7    1  0.5977291E-006  0.3412583E+03  0.7818608E-02  0.1115360E+00
          2   -1    0    0  502    0  0.00000000000E+00  0.00000000000E+00  0.73679373738E+03  0.73679373738E+03  0.00000000000E+00 0. -1.
          1   -1    0    0  501    0 -0.00000000000E+00 -0.00000000000E+00 -0.17153029019E+04  0.17153029019E+04  0.00000000000E+00 0. -1.
         25    2    1    2    0    0 -0.28293731717E+03  0.12182873862E+03 -0.66151006912E+03  0.74034889541E+03  0.12500059352E+03 0.  0.
          2    1    1    2  501    0  0.80999111349E+02  0.15900975440E+03 -0.96277107228E+03  0.97916959494E+03  0.00000000000E+00 0. -1.
          1    1    1    2  502    0  0.20193820583E+03 -0.28083849302E+03  0.64577197689E+03  0.73257814892E+03  0.00000000000E+00 0. -1.
         22    1    3    3    0    0 -0.92405018054E+02  0.33213641982E+02 -0.35781938187E+03  0.37104789909E+03  0.00000000000E+00 0.  1.
         22    1    3    3    0    0 -0.19053229912E+03  0.88615096636E+02 -0.30369068725E+03  0.36930099632E+03  0.00000000000E+00 0.  1.
</event>
<event>
 7    1  0.5977291E-006  0.1288473E+03  0.7818608E-02  0.1247587E+00
          2   -1    0    0  502    0  0.00000000000E+00  0.00000000000E+00  0.26165385788E+04  0.26165385788E+04  0.00000000000E+00 0. -1.
          1   -1    0    0  501    0 -0.00000000000E+00 -0.00000000000E+00 -0.61032791939E+02  0.61032791939E+02  0.00000000000E+00 0. -1.
         25    2    1    2    0    0  0.71799823472E+02  0.50460190794E+01  0.34017223689E+03  0.36949177442E+03  0.12500537450E+03 0.  0.
          2    1    1    2  501    0  0.15550621473E+02  0.10568351562E+03  0.20563513044E+02  0.10878274390E+03  0.00000000000E+00 0. -1.
          1    1    1    2  502    0 -0.87350444945E+02 -0.11072953470E+03  0.21947700369E+04  0.21992968524E+04  0.00000000000E+00 0. -1.
         22    1    3    3    0    0  0.10845198670E-01  0.37492891349E+02  0.26083105944E+02  0.45673246382E+02  0.00000000000E+00 0.  1.
         22    1    3    3    0    0  0.71788978274E+02 -0.32446872270E+02  0.31408913095E+03  0.32381852804E+03  0.00000000000E+00 0.  1.
</event>
<event>
 7    1  0.5977291E-006  0.3377610E+02  0.7818608E-02  0.1603560E+00
          2   -1    0    0  502    0  0.00000000000E+00  0.00000000000E+00  0.15925289697E+04  0.15925289697E+04  0.00000000000E+00 0. -1.
          1   -1    0    0  501    0 -0.00000000000E+00 -0.00000000000E+00 -0.13613641402E+04  0.13613641402E+04  0.00000000000E+00 0. -1.
         25    2    1    2    0    0  0.45470665386E+01  0.29745932559E+02  0.28388123835E+02  0.13166783412E+03  0.12500014659E+03 0.  0.
          2    1    1    2  501    0 -0.27978770079E+02 -0.18985875338E+02 -0.13093961345E+04  0.13098326275E+04  0.00000000000E+00 0. -1.
          1    1    1    2  502    0  0.23431703540E+02 -0.10760057222E+02  0.15121728402E+04  0.15123926482E+04  0.00000000000E+00 0. -1.
         22    1    3    3    0    0  0.44580393197E+02 -0.20435444665E+02 -0.18243717653E+02  0.52324488436E+02  0.00000000000E+00 0.  1.
         22    1    3    3    0    0 -0.40033326658E+02  0.50181377225E+02  0.46631841488E+02  0.79343345682E+02  0.00000000000E+00 0.  1.
</event>
<event>
 7    1  0.5977291E-006  0.1505800E+03  0.7818608E-02  0.1350906E+00
          2   -1    0    0  502    0  0.00000000000E+00  0.00000000000E+00  0.18254831511E+04  0.18254831511E+04  0.00000000000E+00 0. -1.
          1   -1    0    0  501    0 -0.00000000000E+00 -0.00000000000E+00 -0.16586714756E+03  0.16586714756E+03  0.00000000000E+00 0. -1.
         25    2    1    2    0    0  0.14332485097E+03 -0.29398647170E+01  0.23351624519E+03  0.30117351719E+03  0.12499997992E+03 0.  0.
          2    1    1    2  501    0 -0.14895907773E+03 -0.31777107286E+02 -0.87842309278E+02  0.17582622866E+03  0.00000000000E+00 0. -1.
          1    1    1    2  502    0  0.56342267670E+01  0.34716972003E+02  0.15139420676E+04  0.15143505528E+04  0.00000000000E+00 0. -1.
         22    1    3    3    0    0  0.12733617873E+03 -0.51000804817E+02  0.19034726972E+03  0.23462239364E+03  0.00000000000E+00 0.  1.
         22    1    3    3    0    0  0.15988672240E+02  0.48060940100E+02  0.43168975461E+02  0.66551123549E+02  0.00000000000E+00 0.  1.
</event>
<event>
 7    1  0.5977291E-006  0.1765198E+03  0.7818608E-02  0.1309335E+00
          2   -1    0    0  502    0  0.00000000000E+00  0.00000000000E+00  0.51658337194E+03  0.51658337194E+03  0.00000000000E+00 0. -1.
          1   -1    0    0  501    0 -0.00000000000E+00 -0.00000000000E+00 -0.25272121685E+03  0.25272121685E+03  0.00000000000E+00 0. -1.
         25    2    1    2    0    0  0.12309795730E+03 -0.12615231339E+03  0.13010176628E+03  0.25223330597E+03  0.12501063070E+03 0.  0.
          2    1    1    2  501    0 -0.89454573361E+02  0.15333108767E+03 -0.14854655160E+03  0.23147056213E+03  0.00000000000E+00 0. -1.
          1    1    1    2  502    0 -0.33643383940E+02 -0.27178774285E+02  0.28230694041E+03  0.28560072069E+03  0.00000000000E+00 0. -1.
         22    1    3    3    0    0  0.12263566298E+03 -0.41106742287E+02  0.93743015565E+02  0.15974048661E+03  0.00000000000E+00 0. -1.
         22    1    3    3    0    0  0.46229432401E+00 -0.85045571098E+02  0.36358750715E+02  0.92492819359E+02  0.00000000000E+00 0. -1.
</event>
<event>
 7    1  0.5977291E-006  0.2534736E+03  0.7818608E-02  0.1133287E+00
          2   -1    0    0  502    0  0.00000000000E+00  0.00000000000E+00  0.84133132322E+03  0.84133132322E+03  0.00000000000E+00 0. -1.
          1   -1    0    0  501    0 -0.00000000000E+00 -0.00000000000E+00 -0.18924045454E+04  0.18924045454E+04  0.00000000000E+00 0. -1.
         25    2    1    2    0    0 -0.22256301343E+03  0.33412632537E+03  0.47330364148E+02  0.42312927955E+03  0.12499411022E+03 0.  0.
          2    1    1    2  501    0  0.16114553369E+03 -0.10500775410E+03 -0.16755821580E+04  0.16865853313E+04  0.00000000000E+00 0. -1.
          1    1    1    2  502    0  0.61417479736E+02 -0.22911857126E+03  0.57717857170E+03  0.62402125777E+03  0.00000000000E+00 0. -1.
         22    1    3    3    0    0 -0.88337214286E+02  0.58191164224E+02 -0.23160113233E+02  0.10828696074E+03  0.00000000000E+00 0. -1.
         22    1    3    3    0    0 -0.13422579914E+03  0.27593516114E+03  0.70490477381E+02  0.31484231881E+03  0.00000000000E+00 0. -1.
</event>
<event>
 7    1  0.5977291E-006  0.8143458E+02  0.7818608E-02  0.1350666E+00
          2   -1    0    0  502    0  0.00000000000E+00  0.00000000000E+00  0.11110385123E+04  0.11110385123E+04  0.00000000000E+00 0. -1.
          1   -1    0    0  501    0 -0.00000000000E+00 -0.00000000000E+00 -0.51607668453E+03  0.51607668453E+03  0.00000000000E+00 0. -1.
         25    2    1    2    0    0  0.10253683061E+03 -0.43344414971E+02 -0.33977934074E+03  0.37877074693E+03  0.12499895357E+03 0.  0.
          2    1    1    2  501    0 -0.39959207662E+02  0.61534375431E+02 -0.14718436576E+03  0.16445806505E+03  0.00000000000E+00 0. -1.
          1    1    1    2  502    0 -0.62577622948E+02 -0.18189960460E+02  0.10819255343E+04  0.10838863849E+04  0.00000000000E+00 0. -1.
         22    1    3    3    0    0  0.14024105759E+02  0.14314614655E+00 -0.23298490700E+03  0.23340664713E+03  0.00000000000E+00 0. -1.
         22    1    3    3    0    0  0.88512724851E+02 -0.43487561117E+02 -0.10679443373E+03  0.14536409979E+03  0.00000000000E+00 0. -1.
</event>
<event>
 7    1  0.5977291E-006  0.8564441E+02  0.7818608E-02  0.1406108E+00
          2   -1    0    0  502    0  0.00000000000E+00  0.00000000000E+00  0.26308097687E+03  0.26308097687E+03  0.00000000000E+00 0. -1.
          1   -1    0    0  501    0 -0.00000000000E+00 -0.00000000000E+00 -0.50404549860E+03  0.50404549860E+03  0.00000000000E+00 0. -1.
         25    2    1    2    0    0  0.86040687945E+02  0.35729166874E+01 -0.79750302153E+02  0.17146464002E+03  0.12499698543E+03 0.  0.
          2    1    1    2  501    0 -0.75811503033E+02 -0.41596485367E+02 -0.37164816816E+03  0.38157569692E+03  0.00000000000E+00 0. -1.
          1    1    1    2  502    0 -0.10229184912E+02  0.38023568679E+02  0.21043394858E+03  0.21408613853E+03  0.00000000000E+00 0. -1.
         22    1    3    3    0    0  0.60970458340E+02 -0.52255066205E+02 -0.13769123964E+02  0.81471329368E+02  0.00000000000E+00 0. -1.
         22    1    3    3    0    0  0.25070229605E+02  0.55827982892E+02 -0.65981178189E+02  0.89993310648E+02  0.00000000000E+00 0. -1.
</event>
<event>
 7    1  0.5977291E-006  0.2380366E+03  0.7818608E-02  0.1257598E+00
          2   -1    0    0  502    0  0.00000000000E+00  0.00000000000E+00  0.67249332458E+03  0.67249332458E+03  0.00000000000E+00 0. -1.
          1   -1    0    0  501    0 -0.00000000000E+00 -0.00000000000E+00 -0.38642480305E+03  0.38642480305E+03  0.00000000000E+00 0. -1.
         25    2    1    2    0    0  0.12286214199E+00  0.27403734432E+03  0.15111801976E+03  0.33698467498E+03  0.12500213639E+03 0.  0.
          2    1    1    2  501    0  0.20093161612E+02 -0.48330793381E+02 -0.26074322642E+03  0.26594478911E+03  0.00000000000E+00 0. -1.
          1    1    1    2  502    0 -0.20216023754E+02 -0.22570655093E+03  0.39569372819E+03  0.45598866354E+03  0.00000000000E+00 0. -1.
         22    1    3    3    0    0 -0.24215943669E+02  0.15312406938E+03  0.14690308162E+03  0.21357412751E+03  0.00000000000E+00 0.  1.
         22    1    3    3    0    0  0.24338805811E+02  0.12091327494E+03  0.42149381354E+01  0.12341054748E+03  0.00000000000E+00 0.  1.
</event>
<event>
 7    1  0.5977291E-006  0.1394616E+03  0.7818608E-02  0.1430244E+00
          2   -1    0    0  502    0  0.00000000000E+00  0.00000000000E+00  0.21169896269E+03  0.21169896269E+03  0.00000000000E+00 0. -1.
          1   -1    0    0  501    0 -0.00000000000E+00 -0.00000000000E+00 -0.54502941632E+03  0.54502941632E+03  0.00000000000E+00 0. -1.
         25    2    1    2    0    0  0.82265838368E+02 -0.13002922516E+03 -0.37514692483E+02  0.20176167049E+03  0.12500060788E+03 0.  0.
          2    1    1    2  501    0 -0.41074628446E+01  0.19649496154E+02 -0.38976946654E+03  0.39028606303E+03  0.00000000000E+00 0. -1.
          1    1    1    2  502    0 -0.78158375523E+02  0.11037972901E+03  0.93953705396E+02  0.16468064549E+03  0.00000000000E+00 0. -1.
         22    1    3    3    0    0  0.81133297369E+02 -0.15123451680E+03 -0.17384636068E+02  0.17250135242E+03  0.00000000000E+00 0. -1.
         22    1    3    3    0    0  0.11325409991E+01  0.21205291640E+02 -0.20130056415E+02  0.29260318076E+02  0.00000000000E+00 0. -1.
</event>
<event>
 7    1  0.5977291E-006  0.8839033E+02  0.7818608E-02  0.1397518E+00
          2   -1    0    0  502    0  0.00000000000E+00  0.00000000000E+00  0.71692735134E+03  0.71692735134E+03  0.00000000000E+00 0. -1.
          1   -1    0    0  501    0 -0.00000000000E+00 -0.00000000000E+00 -0.10815831974E+03  0.10815831974E+03  0.00000000000E+00 0. -1.
         25    2    1    2    0    0  0.35916767607E+02 -0.58846889919E+02  0.29882556091E+02  0.14584591816E+03  0.12500037615E+03 0.  0.
          2    1    1    2  501    0  0.39561138618E+02  0.10099814441E+02 -0.38040079665E+02  0.55804458615E+02  0.00000000000E+00 0. -1.
          1    1    1    2  502    0 -0.75477906224E+02  0.48747075478E+02  0.61692655517E+03  0.62343529430E+03  0.00000000000E+00 0. -1.
         22    1    3    3    0    0  0.39224682659E+02  0.30640452677E+02 -0.43813621430E+01  0.49966082538E+02  0.00000000000E+00 0. -1.
         22    1    3    3    0    0 -0.33079150526E+01 -0.89487342595E+02  0.34263918234E+02  0.95879835625E+02  0.00000000000E+00 0. -1.
</event>
<event>
 7    1  0.5977291E-006  0.5300143E+02  0.7818608E-02  0.1566051E+00
          2   -1    0    0  502    0  0.00000000000E+00  0.00000000000E+00  0.56557373302E+03  0.56557373302E+03  0.00000000000E+00 0. -1.
          1   -1    0    0  501    0 -0.00000000000E+00 -0.00000000000E+00 -0.81672387767E+02  0.81672387767E+02  0.00000000000E+00 0. -1.
         25    2    1    2    0    0 -0.27587563679E+02  0.29909716958E+02  0.18697020574E+03  0.22855798187E+03  0.12500091362E+03 0.  0.
          2    1    1    2  501    0  0.47682167041E+02 -0.25005798748E+02 -0.48604078752E+02  0.72534374582E+02  0.00000000000E+00 0. -1.
          1    1    1    2  502    0 -0.20094603362E+02 -0.49039182105E+01  0.34553521827E+03  0.34615376433E+03  0.00000000000E+00 0. -1.
         22    1    3    3    0    0 -0.21043846523E+02  0.63964301585E+02  0.18132425546E+03  0.19342378595E+03  0.00000000000E+00 0.  1.
         22    1    3    3    0    0 -0.65437171559E+01 -0.34054584626E+02  0.56459502730E+01  0.35134195918E+02  0.00000000000E+00 0.  1.
</event>
<event>
 7    1  0.5977291E-006  0.8410147E+02  0.7818608E-02  0.1349041E+00
          2   -1    0    0  502    0  0.00000000000E+00  0.00000000000E+00  0.15541027475E+04  0.15541027475E+04  0.00000000000E+00 0. -1.
          1   -1    0    0  501    0 -0.00000000000E+00 -0.00000000000E+00 -0.16855416177E+03  0.16855416177E+03  0.00000000000E+00 0. -1.
         25    2    1    2    0    0  0.46798946894E+02 -0.43402611465E+02  0.50376398100E+03  0.52294926866E+03  0.12499544363E+03 0.  0.
          2    1    1    2  501    0  0.18113716004E+01  0.85005069772E+02 -0.14652633339E+03  0.16940811471E+03  0.00000000000E+00 0. -1.
          1    1    1    2  502    0 -0.48610318494E+02 -0.41602458306E+02  0.10283109382E+04  0.10302995259E+04  0.00000000000E+00 0. -1.
         22    1    3    3    0    0 -0.19183663276E+02  0.16832852202E+02  0.24325371556E+02  0.35257361660E+02  0.00000000000E+00 0.  1.
         22    1    3    3    0    0  0.65982610170E+02 -0.60235463667E+02  0.47943860945E+03  0.48769190700E+03  0.00000000000E+00 0.  1.
</event>
<event>
 7    1  0.5977291E-006  0.5962269E+02  0.7818608E-02  0.1515771E+00
          2   -1    0    0  502    0  0.00000000000E+00  0.00000000000E+00  0.77380185824E+03  0.77380185824E+03  0.00000000000E+00 0. -1.
          1   -1    0    0  501    0 -0.00000000000E+00 -0.00000000000E+00 -0.28264417069E+02  0.28264417069E+02  0.00000000000E+00 0. -1.
         25    2    1    2    0    0  0.38769581570E+02 -0.37920224591E+02  0.62999097782E+03  0.64455657209E+03  0.12499407431E+03 0.  0.
          2    1    1    2  501    0 -0.85945453125E+01 -0.24006537596E+02  0.31637032745E+01  0.25694144759E+02  0.00000000000E+00 0. -1.
          1    1    1    2  502    0 -0.30175036257E+02  0.61926762187E+02  0.11238276008E+03  0.13181555846E+03  0.00000000000E+00 0. -1.
         22    1    3    3    0    0  0.82035875439E+01 -0.35757340462E+02  0.41994560122E+02  0.55762257176E+02  0.00000000000E+00 0. -1.
         22    1    3    3    0    0  0.30565994026E+02 -0.21628841286E+01  0.58799641769E+03  0.58879431492E+03  0.00000000000E+00 0. -1.
</event>
<event>
 7    1  0.5977291E-006  0.4463246E+02  0.7818608E-02  0.1596368E+00
          2   -1    0    0  502    0  0.00000000000E+00  0.00000000000E+00  0.34377664361E+03  0.34377664361E+03  0.00000000000E+00 0. -1.
          1   -1    0    0  501    0 -0.00000000000E+00 -0.00000000000E+00 -0.28948973192E+03  0.28948973192E+03  0.00000000000E+00 0. -1.
         25    2    1    2    0    0  0.40842478431E+02  0.97371292861E+00 -0.15039230328E+03  0.19977971837E+03  0.12500013930E+03 0.  0.
          2    1    1    2  501    0 -0.56192502338E+00 -0.20367568903E+02 -0.11191342634E+03  0.11375310377E+03  0.00000000000E+00 0. -1.
          1    1    1    2  502    0 -0.40280553407E+02  0.19393855974E+02  0.31659264130E+03  0.31973355339E+03  0.00000000000E+00 0. -1.
         22    1    3    3    0    0 -0.31406976011E+02  0.38828388618E+02 -0.57478712944E+02  0.76143577185E+02  0.00000000000E+00 0. -1.
         22    1    3    3    0    0  0.72249454442E+02 -0.37854675689E+02 -0.92913590336E+02  0.12363614119E+03  0.00000000000E+00 0. -1.
</event>
<event>
 7    1  0.5977291E-006  0.8368463E+02  0.7818608E-02  0.1466834E+00
          2   -1    0    0  502    0  0.00000000000E+00  0.00000000000E+00  0.13265432896E+04  0.13265432896E+04  0.00000000000E+00 0. -1.
          1   -1    0    0  501    0 -0.00000000000E+00 -0.00000000000E+00 -0.18463470431E+03  0.18463470431E+03  0.00000000000E+00 0. -1.
         25    2    1    2    0    0  0.93382657181E+01  0.62634345184E+02  0.21350666172E+03  0.25537807849E+03  0.12499041552E+03 0.  0.
          2    1    1    2  501    0  0.36641182669E+01 -0.84609547282E+02 -0.15258480120E+03  0.17451166956E+03  0.00000000000E+00 0. -1.
          1    1    1    2  502    0 -0.13002383985E+02  0.21975202098E+02  0.10809867248E+04  0.10812882459E+04  0.00000000000E+00 0. -1.
         22    1    3    3    0    0 -0.88445092770E+01  0.85654313636E+02  0.20854927007E+03  0.22562731403E+03  0.00000000000E+00 0. -1.
         22    1    3    3    0    0  0.18182774995E+02 -0.23019968452E+02  0.49573916502E+01  0.29750764462E+02  0.00000000000E+00 0. -1.
</event>
<event>
 7    1  0.5977291E-006  0.5181780E+02  0.7818608E-02  0.1479998E+00
          2   -1    0    0  502    0  0.00000000000E+00  0.00000000000E+00  0.30862045886E+03  0.30862045886E+03  0.00000000000E+00 0. -1.
          1   -1    0    0  501    0 -0.00000000000E+00 -0.00000000000E+00 -0.11655709429E+04  0.11655709429E+04  0.00000000000E+00 0. -1.
         25    2    1    2    0    0 -0.41544837060E+02  0.41500607780E+01 -0.35357652645E+02  0.13646732425E+03  0.12501988040E+03 0.  0.
          2    1    1    2  501    0  0.84170604120E+01  0.36586899025E+02 -0.10766571061E+04  0.10773114555E+04  0.00000000000E+00 0. -1.
          1    1    1    2  502    0  0.33127776648E+02 -0.40736959803E+02  0.25506427469E+03  0.26041262201E+03  0.00000000000E+00 0. -1.
         22    1    3    3    0    0 -0.57551232047E+01  0.41554315022E+02 -0.64588273488E+02  0.77016411317E+02  0.00000000000E+00 0.  1.
         22    1    3    3    0    0 -0.35789713856E+02 -0.37404254244E+02  0.29230620843E+02  0.59450912931E+02  0.00000000000E+00 0.  1.
</event>
<event>
 7    1  0.5977291E-006  0.4857933E+02  0.7818608E-02  0.1508532E+00
          2   -1    0    0  502    0  0.00000000000E+00  0.00000000000E+00  0.40918827240E+03  0.40918827240E+03  0.00000000000E+00 0. -1.
          1   -1    0    0  501    0 -0.00000000000E+00 -0.00000000000E+00 -0.87356514101E+02  0.87356514101E+02  0.00000000000E+00 0. -1.
         25    2    1    2    0    0 -0.30024990748E+02  0.68882349065E+02  0.27947662958E+03  0.31524303653E+03  0.12499883005E+03 0.  0.
          2    1    1    2  501    0  0.15031163422E+02 -0.29225427392E+02 -0.61165661286E+02  0.69435578780E+02  0.00000000000E+00 0. -1.
          1    1    1    2  502    0  0.14993827326E+02 -0.39656921673E+02  0.10352079001E+03  0.11186617120E+03  0.00000000000E+00 0. -1.
         22    1    3    3    0    0 -0.33553902918E+02  0.98289725120E+02  0.25951480945E+03  0.27952579628E+03  0.00000000000E+00 0.  1.
         22    1    3    3    0    0  0.35289121698E+01 -0.29407376055E+02  0.19961820133E+02  0.35717240243E+02  0.00000000000E+00 0.  1.
</event>
<event>
 7    1  0.5977291E-006  0.7316878E+02  0.7818608E-02  0.1356335E+00
          2   -1    0    0  502    0  0.00000000000E+00  0.00000000000E+00  0.17192841533E+03  0.17192841533E+03  0.00000000000E+00 0. -1.
          1   -1    0    0  501    0 -0.00000000000E+00 -0.00000000000E+00 -0.28387579563E+03  0.28387579563E+03  0.00000000000E+00 0. -1.
         25    2    1    2    0    0  0.23247816017E+02  0.10809086345E+02 -0.54244030619E+02  0.13866174414E+03  0.12500946817E+03 0.  0.
          2    1    1    2  501    0 -0.65521984588E+02  0.48911644784E+02 -0.16681086966E+03  0.18577229529E+03  0.00000000000E+00 0. -1.
          1    1    1    2  502    0  0.42274168570E+02 -0.59720731128E+02  0.10910751997E+03  0.13137017154E+03  0.00000000000E+00 0. -1.
         22    1    3    3    0    0  0.47641133095E+02 -0.25661457015E+02 -0.73063137607E+02  0.90919799909E+02  0.00000000000E+00 0. -1.
         22    1    3    3    0    0 -0.24393317077E+02  0.36470543360E+02  0.18819106988E+02  0.47741944229E+02  0.00000000000E+00 0. -1.
</event>
<event>
 7    1  0.5977291E-006  0.8114897E+02  0.7818608E-02  0.1468078E+00
          2   -1    0    0  502    0  0.00000000000E+00  0.00000000000E+00  0.50404082718E+03  0.50404082718E+03  0.00000000000E+00 0. -1.
          1   -1    0    0  501    0 -0.00000000000E+00 -0.00000000000E+00 -0.20065374235E+03  0.20065374235E+03  0.00000000000E+00 0. -1.
         25    2    1    2    0    0 -0.27188740610E+02  0.58514313656E+02  0.34368447365E+03  0.37135862724E+03  0.12500024033E+03 0.  0.
          2    1    1    2  501    0  0.53047009440E+02 -0.62037518013E+02 -0.17660327671E+03  0.19455425001E+03  0.00000000000E+00 0. -1.
          1    1    1    2  502    0 -0.25858268830E+02  0.35232043574E+01  0.13630588789E+03  0.13878169227E+03  0.00000000000E+00 0. -1.
         22    1    3    3    0    0  0.50224778685E+02  0.20214027983E+02  0.12387876067E+03  0.13519276114E+03  0.00000000000E+00 0.  1.
         22    1    3    3    0    0 -0.77413519294E+02  0.38300285673E+02  0.21980571298E+03  0.23616586610E+03  0.00000000000E+00 0.  1.
</event>
<event>
 7    1  0.5977291E-006  0.1214542E+03  0.7818608E-02  0.1408311E+00
          2   -1    0    0  502    0  0.00000000000E+00  0.00000000000E+00  0.27285125949E+04  0.27285125949E+04  0.00000000000E+00 0. -1.
          1   -1    0    0  501    0 -0.00000000000E+00 -0.00000000000E+00 -0.20939376317E+02  0.20939376317E+02  0.00000000000E+00 0. -1.
         25    2    1    2    0    0  0.89250929253E+02  0.83095593363E+02  0.92786751227E+03  0.94415789802E+03  0.12500164022E+03 0.  0.
          2    1    1    2  501    0 -0.20708862393E+02  0.17774350695E+02  0.67027060985E+01  0.28101793417E+02  0.00000000000E+00 0. -1.
          1    1    1    2  502    0 -0.68542066861E+02 -0.10086994406E+03  0.17730030002E+04  0.17771922798E+04  0.00000000000E+00 0. -1.
         22    1    3    3    0    0  0.27260245392E+02  0.99634852561E+02  0.43311354848E+03  0.44526123871E+03  0.00000000000E+00 0. -1.
         22    1    3    3    0    0  0.61990683862E+02 -0.16539259198E+02  0.49475396379E+03  0.49889665931E+03  0.00000000000E+00 0. -1.
</event>
<event>
 7    1  0.5977291E-006  0.5998880E+02  0.7818608E-02  0.1464062E+00
          2   -1    0    0  502    0  0.00000000000E+00  0.00000000000E+00  0.26056036528E+03  0.26056036528E+03  0.00000000000E+00 0. -1.
          1   -1    0    0  501    0 -0.00000000000E+00 -0.00000000000E+00 -0.56576607956E+03  0.56576607956E+03  0.00000000000E+00 0. -1.
         25    2    1    2    0    0  0.54537248080E+02  0.78016829952E+02 -0.18835863042E+03  0.24528349172E+03  0.12499632185E+03 0.  0.
          2    1    1    2  501    0 -0.16653116161E+02 -0.32298027652E+02 -0.34417545719E+03  0.34608847741E+03  0.00000000000E+00 0. -1.
          1    1    1    2  502    0 -0.37884131918E+02 -0.45718802300E+02  0.22732837332E+03  0.23495447570E+03  0.00000000000E+00 0. -1.
         22    1    3    3    0    0 -0.12985440954E+02 -0.26884730476E+02 -0.20820910531E+02  0.36399460503E+02  0.00000000000E+00 0. -1.
         22    1    3    3    0    0  0.67522689034E+02  0.10490156043E+03 -0.16753771989E+03  0.20888403122E+03  0.00000000000E+00 0. -1.
</event>
<event>
 7    1  0.5977291E-006  0.1551256E+03  0.7818608E-02  0.1301893E+00
          2   -1    0    0  502    0  0.00000000000E+00  0.00000000000E+00  0.51341760819E+03  0.51341760819E+03  0.00000000000E+00 0. -1.
          1   -1    0    0  501    0 -0.00000000000E+00 -0.00000000000E+00 -0.10537108008E+04  0.10537108008E+04  0.00000000000E+00 0. -1.
         25    2    1    2    0    0 -0.45973357485E+02 -0.94235917681E+02 -0.31597111930E+03  0.35560976492E+03  0.12500639543E+03 0.  0.
          2    1    1    2  501    0 -0.14598931583E+02 -0.50614180176E+02 -0.70442686143E+03  0.70639374795E+03  0.00000000000E+00 0. -1.
          1    1    1    2  502    0  0.60572289068E+02  0.14485009786E+03  0.48010478814E+03  0.50512489609E+03  0.00000000000E+00 0. -1.
         22    1    3    3    0    0 -0.13012117798E+02 -0.88762815130E+01 -0.22844107201E+03  0.22898346439E+03  0.00000000000E+00 0.  1.
         22    1    3    3    0    0 -0.32961239688E+02 -0.85359636168E+02 -0.87530047287E+02  0.12662630053E+03  0.00000000000E+00 0.  1.
</event>
<event>
 7    1  0.5977291E-006  0.6177520E+02  0.7818608E-02  0.1392425E+00
          2   -1    0    0  502    0  0.00000000000E+00  0.00000000000E+00  0.55145943284E+03  0.55145943284E+03  0.00000000000E+00 0. -1.
          1   -1    0    0  501    0 -0.00000000000E+00 -0.00000000000E+00 -0.64805712280E+02  0.64805712280E+02  0.00000000000E+00 0. -1.
         25    2    1    2    0    0 -0.23334927592E+02 -0.74840964332E+02  0.12082770915E+03  0.19072410978E+03  0.12502264581E+03 0.  0.
          2    1    1    2  501    0 -0.34133671608E+02  0.50366715419E+02  0.69148246514E+01  0.61235025594E+02  0.00000000000E+00 0. -1.
          1    1    1    2  502    0  0.57468599201E+02  0.24474248913E+02  0.35891118676E+03  0.36430600974E+03  0.00000000000E+00 0. -1.
         22    1    3    3    0    0 -0.44719851051E+02 -0.93837463824E+02  0.52084823635E+02  0.11626763758E+03  0.00000000000E+00 0. -1.
         22    1    3    3    0    0  0.21384923459E+02  0.18996499492E+02  0.68742885512E+02  0.74456472202E+02  0.00000000000E+00 0. -1.
</event>
<event>
 7    1  0.5977291E-006  0.5413537E+02  0.7818608E-02  0.1429368E+00
          2   -1    0    0  502    0  0.00000000000E+00  0.00000000000E+00  0.58706301215E+03  0.58706301215E+03  0.00000000000E+00 0. -1.
          1   -1    0    0  501    0 -0.00000000000E+00 -0.00000000000E+00 -0.44323999544E+03  0.44323999544E+03  0.00000000000E+00 0. -1.
         25    2    1    2    0    0 -0.11457482531E+02  0.36986674852E+02 -0.53517045058E+02  0.14138719567E+03  0.12500790761E+03 0.  0.
          2    1    1    2  501    0  0.55305745327E+02 -0.89248976939E+01 -0.34225790092E+03  0.34681241328E+03  0.00000000000E+00 0. -1.
          1    1    1    2  502    0 -0.43848262796E+02 -0.28061777158E+02  0.53959796268E+03  0.54210339864E+03  0.00000000000E+00 0. -1.
         22    1    3    3    0    0  0.19255249563E+02 -0.37645635104E+02 -0.42469034573E+02  0.59929770362E+02  0.00000000000E+00 0.  1.
         22    1    3    3    0    0 -0.30712732094E+02  0.74632309956E+02 -0.11048010486E+02  0.81457425308E+02  0.00000000000E+00 0.  1.
</event>
<event>
 7    1  0.5977291E-006  0.1179534E+03  0.7818608E-02  0.1300656E+00
          2   -1    0    0  502    0  0.00000000000E+00  0.00000000000E+00  0.56552490904E+03  0.56552490904E+03  0.00000000000E+00 0. -1.
          1   -1    0    0  501    0 -0.00000000000E+00 -0.00000000000E+00 -0.42309364014E+03  0.42309364014E+03  0.00000000000E+00 0. -1.
         25    2    1    2    0    0  0.29661020421E+02 -0.16288614652E+03 -0.44396667439E+02  0.21214829327E+03  0.12499664554E+03 0.  0.
          2    1    1    2  501    0 -0.50238061767E+02  0.48847765228E+02 -0.28352374614E+03  0.29205424435E+03  0.00000000000E+00 0. -1.
          1    1    1    2  502    0  0.20577041345E+02  0.11403838129E+03  0.47035168248E+03  0.48441601156E+03  0.00000000000E+00 0. -1.
         22    1    3    3    0    0  0.24513997960E+02 -0.89454002921E+02 -0.86938759957E+02  0.12712711244E+03  0.00000000000E+00 0.  1.
         22    1    3    3    0    0  0.51470224612E+01 -0.73432143598E+02  0.42542092518E+02  0.85021180828E+02  0.00000000000E+00 0.  1.
</event>
<event>
 7    1  0.5977291E-006  0.5621853E+02  0.7818608E-02  0.1549010E+00
          2   -1    0    0  502    0  0.00000000000E+00  0.00000000000E+00  0.33537912740E+03  0.33537912740E+03  0.00000000000E+00 0. -1.
          1   -1    0    0  501    0 -0.00000000000E+00 -0.00000000000E+00 -0.34304799199E+03  0.34304799199E+03  0.00000000000E+00 0. -1.
         25    2    1    2    0    0  0.48464233818E+02  0.40790182555E+02 -0.12247043578E+03  0.18611106971E+03  0.12500280667E+03 0.  0.
          2    1    1    2  501    0 -0.20288250231E+02  0.77906562941E+01 -0.18551999816E+03  0.18678858943E+03  0.00000000000E+00 0. -1.
          1    1    1    2  502    0 -0.28175983588E+02 -0.48580838849E+02  0.30032156935E+03  0.30552746026E+03  0.00000000000E+00 0. -1.
         22    1    3    3    0    0  0.20776707433E+01  0.39705779586E+02  0.13855678754E+02  0.42105171677E+02  0.00000000000E+00 0.  1.
         22    1    3    3    0    0  0.46386563075E+02  0.10844029694E+01 -0.13632611453E+03  0.14400589803E+03  0.00000000000E+00 0.  1.
</event>
<event>
 7    1  0.5977291E-006  0.1226793E+03  0.7818608E-02  0.1338547E+00
          2   -1    0    0  502    0  0.00000000000E+00  0.00000000000E+00  0.37864288237E+03  0.37864288237E+03  0.00000000000E+00 0. -1.
          1   -1    0    0  501    0 -0.00000000000E+00 -0.00000000000E+00 -0.42279084560E+03  0.42279084560E+03  0.00000000000E+00 0. -1.
         25    2    1    2    0    0 -0.38771226318E+02 -0.87239469521E+02  0.28624642376E+02  0.15986449172E+03  0.12499340994E+03 0.  0.
          2    1    1    2  501    0 -0.46935603780E+02 -0.10106409772E+02 -0.34061205674E+03  0.34397916161E+03  0.00000000000E+00 0. -1.
          1    1    1    2  502    0  0.85706830098E+02  0.97345879292E+02  0.26783945114E+03  0.29759007465E+03  0.00000000000E+00 0. -1.
         22    1    3    3    0    0  0.44819571948E+02 -0.44731395975E+02  0.77876466425E+01  0.63799210463E+02  0.00000000000E+00 0.  1.
         22    1    3    3    0    0 -0.83590798266E+02 -0.42508073546E+02  0.20836995734E+02  0.96065281255E+02  0.00000000000E+00 0.  1.
</event>
<event>
 7    1  0.5977291E-006  0.8055285E+02  0.7818608E-02  0.1383458E+00
          2   -1    0    0  502    0  0.00000000000E+00  0.00000000000E+00  0.32623440305E+03  0.32623440305E+03  0.00000000000E+00 0. -1.
          1   -1    0    0  501    0 -0.00000000000E+00 -0.00000000000E+00 -0.27458367764E+04  0.27458367764E+04  0.00000000000E+00 0. -1.
         25    2    1    2    0    0  0.50043000678E+02 -0.41323519007E+02  0.24062287425E+03  0.27881355794E+03  0.12500278932E+03 0.  0.
          2    1    1    2  501    0 -0.16771961981E+02  0.78857368685E+02 -0.27166022188E+04  0.27177982630E+04  0.00000000000E+00 0. -1.
          1    1    1    2  502    0 -0.33271038697E+02 -0.37533849678E+02  0.56376971256E+02  0.75459358436E+02  0.00000000000E+00 0. -1.
         22    1    3    3    0    0 -0.24946220247E+02 -0.58708858425E+02  0.10440542464E+03  0.12235005785E+03  0.00000000000E+00 0.  1.
         22    1    3    3    0    0  0.74989220925E+02  0.17385339418E+02  0.13621744961E+03  0.15646350009E+03  0.00000000000E+00 0.  1.
</event>
<event>
 7    1  0.5977291E-006  0.7819892E+02  0.7818608E-02  0.1444159E+00
          2   -1    0    0  502    0  0.00000000000E+00  0.00000000000E+00  0.33331834395E+04  0.33331834395E+04  0.00000000000E+00 0. -1.
          1   -1    0    0  501    0 -0.00000000000E+00 -0.00000000000E+00 -0.18282395645E+04  0.18282395645E+04  0.00000000000E+00 0. -1.
         25    2    1    2    0    0  0.81660897868E+01 -0.65985202368E+02  0.46235508083E+03  0.48354756929E+03  0.12500119616E+03 0.  0.
          2    1    1    2  501    0 -0.30723984636E+02 -0.98082213208E+01 -0.18169535945E+04  0.18172398106E+04  0.00000000000E+00 0. -1.
          1    1    1    2  502    0  0.22557894849E+02  0.75793423688E+02  0.28595423886E+04  0.28606356242E+04  0.00000000000E+00 0. -1.
         22    1    3    3    0    0 -0.78466984256E+01 -0.99008897105E+02  0.26921336408E+03  0.28694976525E+03  0.00000000000E+00 0.  1.
         22    1    3    3    0    0  0.16012788212E+02  0.33023694737E+02  0.19314171675E+03  0.19659780403E+03  0.00000000000E+00 0.  1.
</event>
<event>
 7    1  0.5977291E-006  0.3490274E+02  0.7818608E-02  0.1589150E+00
          2   -1    0    0  502    0  0.00000000000E+00  0.00000000000E+00  0.16934892584E+04  0.16934892584E+04  0.00000000000E+00 0. -1.
          1   -1    0    0  501    0 -0.00000000000E+00 -0.00000000000E+00 -0.55917296717E+03  0.55917296717E+03  0.00000000000E+00 0. -1.
         25    2    1    2    0    0  0.12774731362E+00  0.17695569855E+02 -0.22506652046E+03  0.25805805312E+03  0.12500348250E+03 0.  0.
          2    1    1    2  501    0 -0.26354964801E+02 -0.24990015683E+02 -0.31646148585E+03  0.31853878426E+03  0.00000000000E+00 0. -1.
          1    1    1    2  502    0  0.26227217487E+02  0.72944458289E+01  0.16758442975E+04  0.16760653882E+04  0.00000000000E+00 0. -1.
         22    1    3    3    0    0  0.47624955601E+02  0.21149375341E+02 -0.36627752943E+02  0.63694778114E+02  0.00000000000E+00 0.  1.
         22    1    3    3    0    0 -0.47497208288E+02 -0.34538054868E+01 -0.18843876752E+03  0.19436327501E+03  0.00000000000E+00 0.  1.
</event>
<event>
 7    1  0.5977291E-006  0.1359843E+03  0.7818608E-02  0.1414643E+00
          2   -1    0    0  502    0  0.00000000000E+00  0.00000000000E+00  0.11364616511E+04  0.11364616511E+04  0.00000000000E+00 0. -1.
          1   -1    0    0  501    0 -0.00000000000E+00 -0.00000000000E+00 -0.64741305811E+03  0.64741305811E+03  0.00000000000E+00 0. -1.
         25    2    1    2    0    0 -0.83676816226E+01 -0.15701987202E+03 -0.65830088528E+02  0.21138556082E+03  0.12499998584E+03 0.  0.
          2    1    1    2  501    0  0.82403340293E+01  0.21689549555E+02 -0.50423293091E+03  0.50476646905E+03  0.00000000000E+00 0. -1.
          1    1    1    2  502    0  0.12734759327E+00  0.13533032247E+03  0.10591116124E+04  0.10677226793E+04  0.00000000000E+00 0. -1.
         22    1    3    3    0    0  0.16712443554E+02 -0.63297258134E+02 -0.90102948902E+02  0.11137499745E+03  0.00000000000E+00 0. -1.
         22    1    3    3    0    0 -0.25080125177E+02 -0.93722613890E+02  0.24272860374E+02  0.10001056336E+03  0.00000000000E+00 0. -1.
</event>
<event>
 7    1  0.5977291E-006  0.6138317E+02  0.7818608E-02  0.1432324E+00
          2   -1    0    0  502    0  0.00000000000E+00  0.00000000000E+00  0.29155308085E+04  0.29155308085E+04  0.00000000000E+00 0. -1.
          1   -1    0    0  501    0 -0.00000000000E+00 -0.00000000000E+00 -0.11645432278E+03  0.11645432278E+03  0.00000000000E+00 0. -1.
         25    2    1    2    0    0  0.10372027610E+03 -0.62084711214E+01 -0.24993354884E+02  0.16445673754E+03  0.12499963978E+03 0.  0.
          2    1    1    2  501    0 -0.42889443859E+02  0.13272336476E+02  0.21535782358E+01  0.44947716397E+02  0.00000000000E+00 0. -1.
          1    1    1    2  502    0 -0.60830832240E+02 -0.70638653545E+01  0.28219162624E+04  0.28225806774E+04  0.00000000000E+00 0. -1.
         22    1    3    3    0    0 -0.65392106935E+01  0.41782812635E+02 -0.70075169618E+01  0.42868053398E+02  0.00000000000E+00 0.  1.
         22    1    3    3    0    0  0.11025948679E+03 -0.47991283756E+02 -0.17985837922E+02  0.12158868414E+03  0.00000000000E+00 0.  1.
</event>
<event>
 7    1  0.5977291E-006  0.1202821E+03  0.7818608E-02  0.1245489E+00
          2   -1    0    0  502    0  0.00000000000E+00  0.00000000000E+00  0.14374735526E+04  0.14374735526E+04  0.00000000000E+00 0. -1.
          1   -1    0    0  501    0 -0.00000000000E+00 -0.00000000000E+00 -0.35061953732E+02  0.35061953732E+02  0.00000000000E+00 0. -1.
         25    2    1    2    0    0 -0.39166469487E+00 -0.64139274353E+02  0.28486829922E+03  0.31762998024E+03  0.12499942613E+03 0.  0.
          2    1    1    2  501    0 -0.11840171646E+03 -0.21185386201E+02  0.28082978858E+03  0.30550475807E+03  0.00000000000E+00 0. -1.
          1    1    1    2  502    0  0.11879338116E+03  0.85324660553E+02  0.83671351104E+03  0.84940076799E+03  0.00000000000E+00 0. -1.
         22    1    3    3    0    0  0.22967761889E+02 -0.58197753942E+02  0.28670936336E+03  0.29345656525E+03  0.00000000000E+00 0.  1.
         22    1    3    3    0    0 -0.23359426584E+02 -0.59415204109E+01 -0.18410641431E+01  0.24173414990E+02  0.00000000000E+00 0.  1.
</event>
<event>
 7    1  0.5977291E-006  0.8813742E+02  0.7818608E-02  0.1469227E+00
          2   -1    0    0  502    0  0.00000000000E+00  0.00000000000E+00  0.26769912681E+04  0.26769912681E+04  0.00000000000E+00 0. -1.
          1   -1    0    0  501    0 -0.00000000000E+00 -0.00000000000E+00 -0.43078485587E+02  0.43078485587E+02  0.00000000000E+00 0. -1.
         25    2    1    2    0    0 -0.89152828477E+02 -0.46586769733E+02  0.56541024104E+03  0.58773426367E+03  0.12499708030E+03 0.  0.
          2    1    1    2  501    0  0.50276893092E+01  0.23294200843E+02 -0.26428882250E+02  0.35586279233E+02  0.00000000000E+00 0. -1.
          1    1    1    2  502    0  0.84125139168E+02  0.23292568889E+02  0.20949314237E+04  0.20967492108E+04  0.00000000000E+00 0. -1.
         22    1    3    3    0    0 -0.62482845337E+02 -0.70471045092E+02  0.52650763899E+03  0.53486499986E+03  0.00000000000E+00 0. -1.
         22    1    3    3    0    0 -0.26669983141E+02  0.23884275359E+02  0.38902602044E+02  0.52869263812E+02  0.00000000000E+00 0. -1.
</event>
<event>
 7    1  0.5977291E-006  0.9349430E+02  0.7818608E-02  0.1408779E+00
          2   -1    0    0  502    0  0.00000000000E+00  0.00000000000E+00  0.75409363649E+03  0.75409363649E+03  0.00000000000E+00 0. -1.
          1   -1    0    0  501    0 -0.00000000000E+00 -0.00000000000E+00 -0.20912796000E+04  0.20912796000E+04  0.00000000000E+00 0. -1.
         25    2    1    2    0    0 -0.42254277874E+02  0.69124754760E+02 -0.10374358100E+03  0.18155811220E+03  0.12504783800E+03 0.  0.
          2    1    1    2  501    0  0.75212670078E+02 -0.56418741119E+02 -0.19470575283E+04  0.19493263038E+04  0.00000000000E+00 0. -1.
          1    1    1    2  502    0 -0.32958392204E+02 -0.12706013641E+02  0.71361514576E+03  0.71448882053E+03  0.00000000000E+00 0. -1.
         22    1    3    3    0    0 -0.81821787617E+02  0.66706451085E+02 -0.92483231512E+02  0.14034850785E+03  0.00000000000E+00 0. -1.
         22    1    3    3    0    0  0.39567509743E+02  0.24183036747E+01 -0.11260349483E+02  0.41209604347E+02  0.00000000000E+00 0. -1.
</event>
<event>
 7    1  0.5977291E-006  0.4020074E+02  0.7818608E-02  0.1511980E+00
          2   -1    0    0  502    0  0.00000000000E+00  0.00000000000E+00  0.13671713858E+04  0.13671713858E+04  0.00000000000E+00 0. -1.
          1   -1    0    0  501    0 -0.00000000000E+00 -0.00000000000E+00 -0.75917071246E+03  0.75917071246E+03  0.00000000000E+00 0. -1.
         25    2    1    2    0    0 -0.42484297016E+02  0.20200445865E+02  0.15948103180E+03  0.20802199743E+03  0.12500391356E+03 0.  0.
          2    1    1    2  501    0  0.33716856056E+02  0.19192637816E+02 -0.73404374114E+03  0.73506829454E+03  0.00000000000E+00 0. -1.
          1    1    1    2  502    0  0.87674409602E+01 -0.39393083680E+02  0.11825633826E+04  0.11832518062E+04  0.00000000000E+00 0. -1.
         22    1    3    3    0    0 -0.58518454207E+02 -0.35369521262E+02  0.51768236311E+02  0.85763411825E+02  0.00000000000E+00 0. -1.
         22    1    3    3    0    0  0.16034157191E+02  0.55569967127E+02  0.10771279549E+03  0.12225858561E+03  0.00000000000E+00 0. -1.
</event>
<event>
 7    1  0.5977291E-006  0.6769718E+02  0.7818608E-02  0.1399426E+00
          2   -1    0    0  502    0  0.00000000000E+00  0.00000000000E+00  0.36901728503E+03  0.36901728503E+03  0.00000000000E+00 0. -1.
          1   -1    0    0  501    0 -0.00000000000E+00 -0.00000000000E+00 -0.12173558026E+03  0.12173558026E+03  0.00000000000E+00 0. -1.
         25    2    1    2    0    0 -0.70730469634E+00  0.14440567447E+02  0.16738980552E+03  0.20941151751E+03  0.12499922562E+03 0.  0.
          2    1    1    2  501    0  0.67645855632E+02  0.26355185491E+01 -0.81403500773E+02  0.10587463190E+03  0.00000000000E+00 0. -1.
          1    1    1    2  502    0 -0.66938550935E+02 -0.17076085996E+02  0.16129540001E+03  0.17546671587E+03  0.00000000000E+00 0. -1.
         22    1    3    3    0    0  0.32249292883E+02  0.84069059136E+01 -0.50848805714E+01  0.33712741937E+02  0.00000000000E+00 0. -1.
         22    1    3    3    0    0 -0.32956597579E+02  0.60336615331E+01  0.17247468610E+03  0.17569877558E+03  0.00000000000E+00 0. -1.
</event>
<event>
 7    1  0.5977291E-006  0.5138141E+02  0.7818608E-02  0.1453906E+00
          2   -1    0    0  502    0  0.00000000000E+00  0.00000000000E+00  0.50238560418E+02  0.50238560418E+02  0.00000000000E+00 0. -1.
          1   -1    0    0  501    0 -0.00000000000E+00 -0.00000000000E+00 -0.45302531646E+03  0.45302531646E+03  0.00000000000E+00 0. -1.
         25    2    1    2    0    0  0.23316045119E+02  0.41801583504E+02 -0.11751488198E+03  0.17811851300E+03  0.12500178735E+03 0.  0.
          2    1    1    2  501    0 -0.44323258935E+02  0.11046886991E+02 -0.25811077328E+03  0.26212164405E+03  0.00000000000E+00 0. -1.
          1    1    1    2  502    0  0.21007213816E+02 -0.52848470495E+02 -0.27161100773E+02  0.63023719830E+02  0.00000000000E+00 0. -1.
         22    1    3    3    0    0 -0.46640293646E+02  0.43566434336E+02 -0.58511002967E+02  0.86584575187E+02  0.00000000000E+00 0. -1.
         22    1    3    3    0    0  0.69956338765E+02 -0.17648508327E+01 -0.59003879015E+02  0.91533937808E+02  0.00000000000E+00 0. -1.
</event>
<event>
 7    1  0.5977291E-006  0.1928452E+03  0.7818608E-02  0.1288416E+00
          2   -1    0    0  502    0  0.00000000000E+00  0.00000000000E+00  0.98683401779E+03  0.98683401779E+03  0.00000000000E+00 0. -1.
          1   -1    0    0  501    0 -0.00000000000E+00 -0.00000000000E+00 -0.50045643423E+03  0.50045643423E+03  0.00000000000E+00 0. -1.
         25    2    1    2    0    0 -0.11878753908E+03  0.13064982044E+03  0.56602636460E+03  0.60596251969E+03  0.12499949929E+03 0.  0.
          2    1    1    2  501    0 -0.46690811888E+02  0.11242260126E+02 -0.44947871218E+03  0.45203709254E+03  0.00000000000E+00 0. -1.
          1    1    1    2  502    0  0.16547835097E+03 -0.14189208057E+03  0.36982993114E+03  0.42929083980E+03  0.00000000000E+00 0. -1.
         22    1    3    3    0    0 -0.57860033180E+02 -0.11080929472E+02  0.20640709687E+03  0.21464962165E+03  0.00000000000E+00 0.  1.
         22    1    3    3    0    0 -0.60927505904E+02  0.14173074991E+03  0.35961926773E+03  0.39131289804E+03  0.00000000000E+00 0.  1.
</event>
<event>
 7    1  0.5977291E-006  0.4407718E+02  0.7818608E-02  0.1576389E+00
          2   -1    0    0  502    0  0.00000000000E+00  0.00000000000E+00  0.22299502634E+02  0.22299502634E+02  0.00000000000E+00 0. -1.
          1   -1    0    0  501    0 -0.00000000000E+00 -0.00000000000E+00 -0.87871466454E+03  0.87871466454E+03  0.00000000000E+00 0. -1.
         25    2    1    2    0    0  0.38130573776E+02 -0.21582121792E+01 -0.43784933326E+03  0.45694197223E+03  0.12500131527E+03 0.  0.
          2    1    1    2  501    0 -0.40298952357E+02 -0.21057717442E+02 -0.41828954803E+03  0.42075358467E+03  0.00000000000E+00 0. -1.
          1    1    1    2  502    0  0.21683785814E+01  0.23215929621E+02 -0.27628062146E+00  0.23318610268E+02  0.00000000000E+00 0. -1.
         22    1    3    3    0    0  0.13449065991E+02  0.44510176457E+02 -0.35932326665E+03  0.36231925582E+03  0.00000000000E+00 0. -1.
         22    1    3    3    0    0  0.24681507785E+02 -0.46668388636E+02 -0.78526066608E+02  0.94622716413E+02  0.00000000000E+00 0. -1.
</event>
<event>
 7    1  0.5977291E-006  0.1428801E+03  0.7818608E-02  0.1370554E+00
          2   -1    0    0  502    0  0.00000000000E+00  0.00000000000E+00  0.20654256620E+04  0.20654256620E+04  0.00000000000E+00 0. -1.
          1   -1    0    0  501    0 -0.00000000000E+00 -0.00000000000E+00 -0.15723436629E+03  0.15723436629E+03  0.00000000000E+00 0. -1.
         25    2    1    2    0    0  0.97236182262E+02  0.10317907151E+03  0.31672967822E+03  0.36884008926E+03  0.12499810575E+03 0.  0.
          2    1    1    2  501    0 -0.11877041942E+03 -0.80284585721E+02 -0.91820742479E+02  0.17024416578E+03  0.00000000000E+00 0. -1.
          1    1    1    2  502    0  0.21534237161E+02 -0.22894485790E+02  0.16832823600E+04  0.16835757733E+04  0.00000000000E+00 0. -1.
         22    1    3    3    0    0  0.57622473709E+02  0.12604820937E+03  0.19873088036E+03  0.24228591245E+03  0.00000000000E+00 0. -1.
         22    1    3    3    0    0  0.39613708553E+02 -0.22869137862E+02  0.11799879786E+03  0.12655417681E+03  0.00000000000E+00 0. -1.
</event>
<event>
 7    1  0.5977291E-006  0.9356765E+02  0.7818608E-02  0.1303098E+00
          2   -1    0    0  502    0  0.00000000000E+00  0.00000000000E+00  0.11832041500E+03  0.11832041500E+03  0.00000000000E+00 0. -1.
          1   -1    0    0  501    0 -0.00000000000E+00 -0.00000000000E+00 -0.14748583282E+04  0.14748583282E+04  0.00000000000E+00 0. -1.
         25    2    1    2    0    0  0.94712836108E+02 -0.10197998898E+02 -0.66307413325E+02  0.17057388388E+03  0.12499702515E+03 0.  0.
          2    1    1    2  501    0 -0.22595858121E+02  0.83364765691E+02 -0.13142625132E+04  0.13170976466E+04  0.00000000000E+00 0. -1.
          1    1    1    2  502    0 -0.72116977987E+02 -0.73166766792E+02  0.24032013335E+02  0.10550721275E+03  0.00000000000E+00 0. -1.
         22    1    3    3    0    0  0.79857006788E+02  0.49527787661E+02 -0.27883034739E+02  0.98018400874E+02  0.00000000000E+00 0. -1.
         22    1    3    3    0    0  0.14855829320E+02 -0.59725786559E+02 -0.38424378587E+02  0.72555483009E+02  0.00000000000E+00 0. -1.
</event>
<event>
 7    1  0.5977291E-006  0.1033771E+03  0.7818608E-02  0.1411137E+00
          2   -1    0    0  502    0  0.00000000000E+00  0.00000000000E+00  0.45342906440E+03  0.45342906440E+03  0.00000000000E+00 0. -1.
          1   -1    0    0  501    0 -0.00000000000E+00 -0.00000000000E+00 -0.98304988915E+03  0.98304988915E+03  0.00000000000E+00 0. -1.
         25    2    1    2    0    0 -0.40139254363E+02 -0.74091504394E+02  0.18318895995E+03  0.23724169888E+03  0.12499887149E+03 0.  0.
          2    1    1    2  501    0 -0.26154528100E+02 -0.17309359684E+02 -0.94264393079E+03  0.94316554938E+03  0.00000000000E+00 0. -1.
          1    1    1    2  502    0  0.66293782463E+02  0.91400864078E+02  0.22983414608E+03  0.25607170529E+03  0.00000000000E+00 0. -1.
         22    1    3    3    0    0 -0.50775636249E+02 -0.71857954792E+02  0.19927090453E+03  0.21783164209E+03  0.00000000000E+00 0.  1.
         22    1    3    3    0    0  0.10636381886E+02 -0.22335496018E+01 -0.16081944573E+02  0.19410056792E+02  0.00000000000E+00 0.  1.
</event>
<event>
 7    1  0.5977291E-006  0.6117818E+02  0.7818608E-02  0.1537317E+00
          2   -1    0    0  502    0  0.00000000000E+00  0.00000000000E+00  0.24323682485E+04  0.24323682485E+04  0.00000000000E+00 0. -1.
          1   -1    0    0  501    0 -0.00000000000E+00 -0.00000000000E+00 -0.19219375014E+03  0.19219375014E+03  0.00000000000E+00 0. -1.
         25    2    1    2    0    0 -0.25413677979E+02  0.60471957243E+02  0.13865519043E+04  0.13937189635E+04  0.12499461330E+03 0.  0.
          2    1    1    2  501    0  0.38783234183E+01 -0.61052272951E+02 -0.18353489558E+03  0.19346182910E+03  0.00000000000E+00 0. -1.
          1    1    1    2  502    0  0.21535354561E+02  0.58031570788E+00  0.10371574896E+04  0.10373812060E+04  0.00000000000E+00 0. -1.
         22    1    3    3    0    0  0.28879923198E+01  0.22039532679E+02  0.35901926108E+02  0.42225937510E+02  0.00000000000E+00 0.  1.
         22    1    3    3    0    0 -0.28301670299E+02  0.38432424564E+02  0.13506499782E+04  0.13514930260E+04  0.00000000000E+00 0.  1.
</event>
<event>
 7    1  0.5977291E-006  0.9425243E+02  0.7818608E-02  0.1340226E+00
          2   -1    0    0  502    0  0.00000000000E+00  0.00000000000E+00  0.34228234325E+03  0.34228234325E+03  0.00000000000E+00 0. -1.
          1   -1    0    0  501    0 -0.00000000000E+00 -0.00000000000E+00 -0.11703975196E+04  0.11703975196E+04  0.00000000000E+00 0. -1.
         25    2    1    2    0    0  0.77095848761E+01  0.48351493101E+02 -0.15062286421E+03  0.20176694244E+03  0.12500138901E+03 0.  0.
          2    1    1    2  501    0 -0.61940444825E+02 -0.77542843244E+02 -0.98870051048E+03  0.99366906496E+03  0.00000000000E+00 0. -1.
          1    1    1    2  502    0  0.54230859949E+02  0.29191350143E+02  0.31120819835E+03  0.31724385544E+03  0.00000000000E+00 0. -1.
         22    1    3    3    0    0  0.28272284390E+02  0.84895506947E+02 -0.12071435343E+03  0.15026151965E+03  0.00000000000E+00 0. -1.
         22    1    3    3    0    0 -0.20562699514E+02 -0.36544013846E+02 -0.29908510781E+02  0.51505422787E+02  0.00000000000E+00 0. -1.
</event>
<event>
 7    1  0.5977291E-006  0.1171016E+03  0.7818608E-02  0.1303951E+00
          2   -1    0    0  502    0  0.00000000000E+00  0.00000000000E+00  0.82112931385E+03  0.82112931385E+03  0.00000000000E+00 0. -1.
          1   -1    0    0  501    0 -0.00000000000E+00 -0.00000000000E+00 -0.10145926242E+04  0.10145926242E+04  0.00000000000E+00 0. -1.
         25    2    1    2    0    0 -0.80280108391E+02  0.91079034787E+02  0.58082639489E+03  0.60640298480E+03  0.12499997040E+03 0.  0.
          2    1    1    2  501    0 -0.37550788993E+02 -0.57262924675E+02 -0.98401479458E+03  0.98639455607E+03  0.00000000000E+00 0. -1.
          1    1    1    2  502    0  0.11783089738E+03 -0.33816110112E+02  0.20972508930E+03  0.24292439721E+03  0.00000000000E+00 0. -1.
         22    1    3    3    0    0 -0.10519800711E+03  0.94268000755E+02  0.40800097103E+03  0.43176135657E+03  0.00000000000E+00 0.  1.
         22    1    3    3    0    0  0.24917898719E+02 -0.31889659683E+01  0.17282542385E+03  0.17464162823E+03  0.00000000000E+00 0.  1.
</event>
<event>
 7    1  0.5977291E-006  0.6638360E+02  0.7818608E-02  0.1473500E+00
          2   -1    0    0  502    0  0.00000000000E+00  0.00000000000E+00  0.28493101613E+03  0.28493101613E+03  0.00000000000E+00 0. -1.
          1   -1    0    0  501    0 -0.00000000000E+00 -0.00000000000E+00 -0.77245974605E+03  0.77245974605E+03  0.00000000000E+00 0. -1.
         25    2    1    2    0    0 -0.31669265335E+02  0.56845432892E+02  0.10042440319E+03  0.17304384278E+03  0.12499906064E+03 0.  0.
          2    1    1    2  501    0  0.28654081577E+02  0.10986243391E+02 -0.72803257883E+03  0.72867907186E+03  0.00000000000E+00 0. -1.
          1    1    1    2  502    0  0.30151837582E+01 -0.67831676283E+02  0.14007944573E+03  0.15566784754E+03  0.00000000000E+00 0. -1.
         22    1    3    3    0    0  0.14886622179E+02 -0.29940945385E+02  0.55504197635E+02  0.64798053100E+02  0.00000000000E+00 0. -1.
         22    1    3    3    0    0 -0.46555887515E+02  0.86786378277E+02  0.44920205551E+02  0.10824578968E+03  0.00000000000E+00 0. -1.
</event>
<event>
 7    1  0.5977291E-006  0.7427676E+02  0.7818608E-02  0.1438174E+00
          2   -1    0    0  502    0  0.00000000000E+00  0.00000000000E+00  0.20540869673E+03  0.20540869673E+03  0.00000000000E+00 0. -1.
          1   -1    0    0  501    0 -0.00000000000E+00 -0.00000000000E+00 -0.22886619080E+03  0.22886619080E+03  0.00000000000E+00 0. -1.
         25    2    1    2    0    0  0.51829279980E+02 -0.65431237569E+01 -0.10547948191E+03  0.17169727060E+03  0.12499977958E+03 0.  0.
          2    1    1    2  501    0  0.20739104144E+02  0.28818284143E+02 -0.77869250664E+02  0.85581681104E+02  0.00000000000E+00 0. -1.
          1    1    1    2  502    0 -0.72568384124E+02 -0.22275160386E+02  0.15989123851E+03  0.17699593582E+03  0.00000000000E+00 0. -1.
         22    1    3    3    0    0 -0.23397756962E+02  0.37245264052E+02 -0.57216378720E+02  0.72169098089E+02  0.00000000000E+00 0. -1.
         22    1    3    3    0    0  0.75227036941E+02 -0.43788387809E+02 -0.48263103195E+02  0.99528172513E+02  0.00000000000E+00 0. -1.
</event>
<event>
 7    1  0.5977291E-006  0.3887191E+03  0.7818608E-02  0.1213394E+00
          2   -1    0    0  502    0  0.00000000000E+00  0.00000000000E+00  0.13446592281E+04  0.13446592281E+04  0.00000000000E+00 0. -1.
          1   -1    0    0  501    0 -0.00000000000E+00 -0.00000000000E+00 -0.34649558670E+03  0.34649558670E+03  0.00000000000E+00 0. -1.
         25    2    1    2    0    0  0.22011222031E+02  0.35791497863E+03  0.33571675600E+03  0.50687314432E+03  0.12500807314E+03 0.  0.
          2    1    1    2  501    0  0.24659737387E+02  0.43940354826E+02 -0.21353164869E+03  0.21939604012E+03  0.00000000000E+00 0. -1.
          1    1    1    2  502    0 -0.46670959418E+02 -0.40185533345E+03  0.87597853405E+03  0.96488563032E+03  0.00000000000E+00 0. -1.
         22    1    3    3    0    0  0.44457714064E+02  0.12442820725E+03  0.60686955947E+02  0.14540211044E+03  0.00000000000E+00 0. -1.
         22    1    3    3    0    0 -0.22446492033E+02  0.23348677137E+03  0.27502980006E+03  0.36147103388E+03  0.00000000000E+00 0. -1.
</event>
<event>
 7    1  0.5977291E-006  0.7458634E+02  0.7818608E-02  0.1386193E+00
          2   -1    0    0  502    0  0.00000000000E+00  0.00000000000E+00  0.10213940500E+04  0.10213940500E+04  0.00000000000E+00 0. -1.
          1   -1    0    0  501    0 -0.00000000000E+00 -0.00000000000E+00 -0.12295818235E+03  0.12295818235E+03  0.00000000000E+00 0. -1.
         25    2    1    2    0    0  0.91433152237E+02 -0.21103452823E+02  0.32949313562E+03  0.36468576397E+03  0.12499841188E+03 0.  0.
          2    1    1    2  501    0 -0.22471072931E+02  0.47981807805E+02 -0.96516992670E+02  0.11010328275E+03  0.00000000000E+00 0. -1.
          1    1    1    2  502    0 -0.68962079306E+02 -0.26878354982E+02  0.66545972465E+03  0.66956318558E+03  0.00000000000E+00 0. -1.
         22    1    3    3    0    0  0.40192798802E+02 -0.21218197825E+02  0.30413806258E+03  0.30751525833E+03  0.00000000000E+00 0.  1.
         22    1    3    3    0    0  0.51240353435E+02  0.11474500106E+00  0.25355073039E+02  0.57170505642E+02  0.00000000000E+00 0.  1.
</event>
<event>
 7    1  0.5977291E-006  0.1528721E+03  0.7818608E-02  0.1245229E+00
          2   -1    0    0  502    0  0.00000000000E+00  0.00000000000E+00  0.37619200652E+03  0.37619200652E+03  0.00000000000E+00 0. -1.
          1   -1    0    0  501    0 -0.00000000000E+00 -0.00000000000E+00 -0.36103468413E+03  0.36103468413E+03  0.00000000000E+00 0. -1.
         25    2    1    2    0    0  0.10309309520E+03 -0.33289029363E+02 -0.99903679493E+02  0.19323992975E+03  0.12499831806E+03 0.  0.
          2    1    1    2  501    0 -0.19509671854E+03  0.39196140819E+02 -0.15907563205E+03  0.25476287750E+03  0.00000000000E+00 0. -1.
          1    1    1    2  502    0  0.92003623337E+02 -0.59071114565E+01  0.27413663393E+03  0.28922388341E+03  0.00000000000E+00 0. -1.
         22    1    3    3    0    0  0.13034887461E+03 -0.16643233236E+02 -0.67447629748E+02  0.14770581940E+03  0.00000000000E+00 0.  1.
         22    1    3    3    0    0 -0.27255779413E+02 -0.16645796127E+02 -0.32456049745E+02  0.45534110348E+02  0.00000000000E+00 0.  1.
</event>
<event>
 7    1  0.5977291E-006  0.9132020E+02  0.7818608E-02  0.1336489E+00
          2   -1    0    0  502    0  0.00000000000E+00  0.00000000000E+00  0.23643277417E+04  0.23643277417E+04  0.00000000000E+00 0. -1.
          1   -1    0    0  501    0 -0.00000000000E+00 -0.00000000000E+00 -0.80245242792E+02  0.80245242792E+02  0.00000000000E+00 0. -1.
         25    2    1    2    0    0 -0.14045858412E+03 -0.58953913204E+02  0.17764267602E+04  0.17873219093E+04  0.12499358064E+03 0.  0.
          2    1    1    2  501    0  0.88393287103E+02  0.18943791984E+02 -0.44810008944E+02  0.10089686497E+03  0.00000000000E+00 0. -1.
          1    1    1    2  502    0  0.52065297019E+02  0.40010121219E+02  0.55246574763E+03  0.55635421025E+03  0.00000000000E+00 0. -1.
         22    1    3    3    0    0 -0.10991912781E+03 -0.91839532928E+00  0.67035188054E+03  0.67930457223E+03  0.00000000000E+00 0.  1.
         22    1    3    3    0    0 -0.30539456314E+02 -0.58035517874E+02  0.11060748797E+04  0.11080173370E+04  0.00000000000E+00 0.  1.
</event>
<event>
 7    1  0.5977291E-006  0.8562088E+02  0.7818608E-02  0.1338765E+00
          2   -1    0    0  502    0  0.00000000000E+00  0.00000000000E+00  0.12022045238E+04  0.12022045238E+04  0.00000000000E+00 0. -1.
          1   -1    0    0  501    0 -0.00000000000E+00 -0.00000000000E+00 -0.15695333336E+03  0.15695333336E+03  0.00000000000E+00 0. -1.
         25    2    1    2    0    0 -0.10722214085E+02  0.12934580808E+03  0.73282048269E+03  0.75464972736E+03  0.12500018881E+03 0.  0.
          2    1    1    2  501    0 -0.34614968438E+02 -0.77780763558E+02 -0.13075862269E+03  0.15603160137E+03  0.00000000000E+00 0. -1.
          1    1    1    2  502    0  0.45337182522E+02 -0.51565044520E+02  0.44318933046E+03  0.44847652845E+03  0.00000000000E+00 0. -1.
         22    1    3    3    0    0  0.38380016404E+02  0.39435702170E+01  0.90808932471E+02  0.98665290866E+02  0.00000000000E+00 0. -1.
         22    1    3    3    0    0 -0.49102230489E+02  0.12540223786E+03  0.64201155022E+03  0.65598443649E+03  0.00000000000E+00 0. -1.
</event>
<event>
 7    1  0.5977291E-006  0.1544315E+03  0.7818608E-02  0.1330795E+00
          2   -1    0    0  502    0  0.00000000000E+00  0.00000000000E+00  0.13344092842E+04  0.13344092842E+04  0.00000000000E+00 0. -1.
          1   -1    0    0  501    0 -0.00000000000E+00 -0.00000000000E+00 -0.24229491246E+04  0.24229491246E+04  0.00000000000E+00 0. -1.
         25    2    1    2    0    0  0.45308663105E+02  0.14628898284E+03  0.27947223990E+03  0.34231970512E+03  0.12499882473E+03 0.  0.
          2    1    1    2  501    0 -0.53100805639E+01 -0.15439343025E+03 -0.23886223440E+04  0.23936127988E+04  0.00000000000E+00 0. -1.
          1    1    1    2  502    0 -0.39998582542E+02  0.81044474116E+01  0.10206102638E+04  0.10214259049E+04  0.00000000000E+00 0. -1.
         22    1    3    3    0    0  0.45660252528E+01  0.14816155227E+03  0.17029065528E+03  0.22576891158E+03  0.00000000000E+00 0. -1.
         22    1    3    3    0    0  0.40742637853E+02 -0.18725694317E+01  0.10918158462E+03  0.11655079354E+03  0.00000000000E+00 0. -1.
</event>
<event>
 7    1  0.5977291E-006  0.2390224E+03  0.7818608E-02  0.1289225E+00
          2   -1    0    0  502    0  0.00000000000E+00  0.00000000000E+00  0.20941862832E+03  0.20941862832E+03  0.00000000000E+00 0. -1.
          1   -1    0    0  501    0 -0.00000000000E+00 -0.00000000000E+00 -0.27885562555E+04  0.27885562555E+04  0.00000000000E+00 0. -1.
         25    2    1    2    0    0 -0.20338584129E+03  0.88331686895E+01 -0.34177022150E+02  0.24132251819E+03  0.12499865454E+03 0.  0.
          2    1    1    2  501    0  0.24090679091E+03 -0.41315793822E+00 -0.26416420586E+04  0.26526041955E+04  0.00000000000E+00 0. -1.
          1    1    1    2  502    0 -0.37520949624E+02 -0.84200107513E+01  0.96681453535E+02  0.10404817009E+03  0.00000000000E+00 0. -1.
         22    1    3    3    0    0 -0.20934701710E+03  0.25729419739E+02 -0.50721644459E+02  0.21693515581E+03  0.00000000000E+00 0. -1.
         22    1    3    3    0    0  0.59611758114E+01 -0.16896251049E+02  0.16544622310E+02  0.24387362382E+02  0.00000000000E+00 0. -1.
</event>
<event>
 7    1  0.5977291E-006  0.8300574E+02  0.7818608E-02  0.1491778E+00
          2   -1    0    0  502    0  0.00000000000E+00  0.00000000000E+00  0.44662661084E+02  0.44662661084E+02  0.00000000000E+00 0. -1.
          1   -1    0    0  501    0 -0.00000000000E+00 -0.00000000000E+00 -0.11135695185E+04  0.11135695185E+04  0.00000000000E+00 0. -1.
         25    2    1    2    0    0  0.10152252798E+03  0.18647638959E+02 -0.78360149662E+03  0.80019276760E+03  0.12499040639E+03 0.  0.
          2    1    1    2  501    0 -0.20639722375E+02 -0.63012051185E+01 -0.27468721446E+03  0.27553360795E+03  0.00000000000E+00 0. -1.
          1    1    1    2  502    0 -0.80882805610E+02 -0.12346433841E+02 -0.10618146376E+02  0.82505804064E+02  0.00000000000E+00 0. -1.
         22    1    3    3    0    0  0.12780006574E+02 -0.55650128171E+01 -0.30873977374E+01  0.14276903042E+02  0.00000000000E+00 0.  1.
         22    1    3    3    0    0  0.88742521411E+02  0.24212651776E+02 -0.78051409888E+03  0.78591586456E+03  0.00000000000E+00 0.  1.
</event>
<event>
 7    1  0.5977291E-006  0.4086159E+02  0.7818608E-02  0.1555865E+00
          2   -1    0    0  502    0  0.00000000000E+00  0.00000000000E+00  0.85527551022E+03  0.85527551022E+03  0.00000000000E+00 0. -1.
          1   -1    0    0  501    0 -0.00000000000E+00 -0.00000000000E+00 -0.13256609877E+04  0.13256609877E+04  0.00000000000E+00 0. -1.
         25    2    1    2    0    0 -0.44606281602E+02 -0.13784386165E+02 -0.79227045472E+03  0.80342840358E+03  0.12499998638E+03 0.  0.
          2    1    1    2  501    0  0.23928994323E+02  0.33566974867E+02 -0.52676512449E+03  0.52837565704E+03  0.00000000000E+00 0. -1.
          1    1    1    2  502    0  0.20677287279E+02 -0.19782588702E+02  0.84865010170E+03  0.84913243734E+03  0.00000000000E+00 0. -1.
         22    1    3    3    0    0 -0.37740478676E+02 -0.63371313543E+02 -0.31406215152E+03  0.32260703980E+03  0.00000000000E+00 0. -1.
         22    1    3    3    0    0 -0.68658029262E+01  0.49586927378E+02 -0.47820830320E+03  0.48082136378E+03  0.00000000000E+00 0. -1.
</event>
<event>
 7    1  0.5977291E-006  0.1256845E+03  0.7818608E-02  0.1375760E+00
          2   -1    0    0  502    0  0.00000000000E+00  0.00000000000E+00  0.12130112748E+04  0.12130112748E+04  0.00000000000E+00 0. -1.
          1   -1    0    0  501    0 -0.00000000000E+00 -0.00000000000E+00 -0.41885203142E+03  0.41885203142E+03  0.00000000000E+00 0. -1.
         25    2    1    2    0    0  0.88010077655E+02  0.10731399841E+03  0.56857933752E+02  0.19524317345E+03  0.12500001649E+03 0.  0.
          2    1    1    2  501    0 -0.33781317393E+02  0.55275562301E+01 -0.34520510119E+03  0.34689810200E+03  0.00000000000E+00 0. -1.
          1    1    1    2  502    0 -0.54228760262E+02 -0.11284155464E+03  0.10825064108E+04  0.10897220308E+04  0.00000000000E+00 0. -1.
         22    1    3    3    0    0  0.42863456928E+02 -0.22001129112E+02  0.26359038532E+02  0.54919254678E+02  0.00000000000E+00 0. -1.
         22    1    3    3    0    0  0.45146620727E+02  0.12931512752E+03  0.30498895220E+02  0.14032391877E+03  0.00000000000E+00 0. -1.
</event>
<event>
 7    1  0.5977291E-006  0.1761814E+03  0.7818608E-02  0.1267103E+00
          2   -1    0    0  502    0  0.00000000000E+00  0.00000000000E+00  0.13482498495E+04  0.13482498495E+04  0.00000000000E+00 0. -1.
          1   -1    0    0  501    0 -0.00000000000E+00 -0.00000000000E+00 -0.10323027571E+04  0.10323027571E+04  0.00000000000E+00 0. -1.
         25    2    1    2    0    0 -0.20077710024E+03 -0.69093376044E+02  0.51774525333E+02  0.25179162523E+03  0.12503232571E+03 0.  0.
          2    1    1    2  501    0  0.17432149843E+03  0.10340753430E+02 -0.92323567134E+03  0.93960577947E+03  0.00000000000E+00 0. -1.
          1    1    1    2  502    0  0.26455601804E+02  0.58752622614E+02  0.11874082384E+04  0.11891552019E+04  0.00000000000E+00 0. -1.
         22    1    3    3    0    0 -0.20113959092E+03 -0.78982466946E+02  0.73231479736E+02  0.22816269359E+03  0.00000000000E+00 0. -1.
         22    1    3    3    0    0  0.36249068719E+00  0.98890909025E+01 -0.21456954403E+02  0.23628931644E+02  0.00000000000E+00 0. -1.
</event>
<event>
 7    1  0.5977291E-006  0.1622525E+03  0.7818608E-02  0.1364369E+00
          2   -1    0    0  502    0  0.00000000000E+00  0.00000000000E+00  0.48393267940E+03  0.48393267940E+03  0.00000000000E+00 0. -1.
          1   -1    0    0  501    0 -0.00000000000E+00 -0.00000000000E+00 -0.20147319089E+03  0.20147319089E+03  0.00000000000E+00 0. -1.
         25    2    1    2    0    0 -0.25361081767E+02  0.14618178746E+03  0.33254090783E+03  0.38499370297E+03  0.12499758592E+03 0.  0.
          2    1    1    2  501    0  0.53099251448E+02 -0.15510292821E+03 -0.13390003120E+03  0.21167349196E+03  0.00000000000E+00 0. -1.
          1    1    1    2  502    0 -0.27738169681E+02  0.89211407437E+01  0.83818611879E+02  0.88738675371E+02  0.00000000000E+00 0. -1.
         22    1    3    3    0    0  0.11179844532E+02  0.11964795944E+03  0.31394225041E+03  0.33615526132E+03  0.00000000000E+00 0. -1.
         22    1    3    3    0    0 -0.36540926299E+02  0.26533828026E+02  0.18598657427E+02  0.48838441648E+02  0.00000000000E+00 0. -1.
</event>
<event>
 7    1  0.5977291E-006  0.7785694E+02  0.7818608E-02  0.1363064E+00
          2   -1    0    0  502    0  0.00000000000E+00  0.00000000000E+00  0.76630541466E+03  0.76630541466E+03  0.00000000000E+00 0. -1.
          1   -1    0    0  501    0 -0.00000000000E+00 -0.00000000000E+00 -0.13759474921E+03  0.13759474921E+03  0.00000000000E+00 0. -1.
         25    2    1    2    0    0  0.47039548142E+02  0.93767391659E+02  0.11866600265E+03  0.20177151126E+03  0.12500031897E+03 0.  0.
          2    1    1    2  501    0  0.11722198709E+02 -0.76004747979E+02 -0.78791623486E+02  0.11010109713E+03  0.00000000000E+00 0. -1.
          1    1    1    2  502    0 -0.58761746851E+02 -0.17762643680E+02  0.58883628629E+03  0.59202755548E+03  0.00000000000E+00 0. -1.
         22    1    3    3    0    0  0.33746840287E+02 -0.25676770258E+02  0.38764966922E+02  0.57453184600E+02  0.00000000000E+00 0. -1.
         22    1    3    3    0    0  0.13292707855E+02  0.11944416192E+03  0.79901035730E+02  0.14431832666E+03  0.00000000000E+00 0. -1.
</event>
<event>
 7    1  0.5977291E-006  0.1607383E+03  0.7818608E-02  0.1273186E+00
          2   -1    0    0  502    0  0.00000000000E+00  0.00000000000E+00  0.31206096849E+03  0.31206096849E+03  0.00000000000E+00 0. -1.
          1   -1    0    0  501    0 -0.00000000000E+00 -0.00000000000E+00 -0.11892100432E+04  0.11892100432E+04  0.00000000000E+00 0. -1.
         25    2    1    2    0    0 -0.55741608149E+02  0.12225520747E+03  0.11650869195E+03  0.21737618504E+03  0.12499867156E+03 0.  0.
          2    1    1    2  501    0 -0.50416663749E+02  0.43503576605E+02 -0.10705143277E+04  0.10725834826E+04  0.00000000000E+00 0. -1.
          1    1    1    2  502    0  0.10615827190E+03 -0.16575878407E+03  0.76856561036E+02  0.21131134414E+03  0.00000000000E+00 0. -1.
         22    1    3    3    0    0  0.18193752451E+01 -0.28712128601E+01  0.72795075804E+02  0.72874392285E+02  0.00000000000E+00 0. -1.
         22    1    3    3    0    0 -0.57560983394E+02  0.12512642033E+03  0.43713616147E+02  0.14450179276E+03  0.00000000000E+00 0. -1.
</event>
<event>
 7    1  0.5977291E-006  0.7726518E+02  0.7818608E-02  0.1426782E+00
          2   -1    0    0  502    0  0.00000000000E+00  0.00000000000E+00  0.12091880082E+03  0.12091880082E+03  0.00000000000E+00 0. -1.
          1   -1    0    0  501    0 -0.00000000000E+00 -0.00000000000E+00 -0.10616861624E+04  0.10616861624E+04  0.00000000000E+00 0. -1.
         25    2    1    2    0    0  0.23427335422E+02 -0.36898788948E+02  0.39780109293E+02  0.13826721345E+03  0.12500001820E+03 0.  0.
          2    1    1    2  501    0 -0.56880520772E+02  0.53166607234E+02 -0.99954206856E+03  0.10025699121E+04  0.00000000000E+00 0. -1.
          1    1    1    2  502    0  0.33453185350E+02 -0.16267818286E+02  0.18994597716E+02  0.41767837677E+02  0.00000000000E+00 0. -1.
         22    1    3    3    0    0  0.34727221908E+02 -0.53953611317E+02 -0.26111005057E+02  0.69273058982E+02  0.00000000000E+00 0.  1.
         22    1    3    3    0    0 -0.11299886487E+02  0.17054822369E+02  0.65891114349E+02  0.68994154469E+02  0.00000000000E+00 0.  1.
</event>
<event>
 7    1  0.5977291E-006  0.5430977E+02  0.7818608E-02  0.1433838E+00
          2   -1    0    0  502    0  0.00000000000E+00  0.00000000000E+00  0.87429616529E+03  0.87429616529E+03  0.00000000000E+00 0. -1.
          1   -1    0    0  501    0 -0.00000000000E+00 -0.00000000000E+00 -0.20136852681E+04  0.20136852681E+04  0.00000000000E+00 0. -1.
         25    2    1    2    0    0 -0.10990617231E+02  0.95128581155E+02 -0.84314206291E+02  0.17861344279E+03  0.12499454365E+03 0.  0.
          2    1    1    2  501    0  0.25694907087E+02 -0.43087175598E+02 -0.18810027324E+04  0.18816716006E+04  0.00000000000E+00 0. -1.
          1    1    1    2  502    0 -0.14704289856E+02 -0.52041405557E+02  0.82592783589E+03  0.82769639006E+03  0.00000000000E+00 0. -1.
         22    1    3    3    0    0 -0.40694849121E+02  0.11307466296E+03 -0.51138873389E+02  0.13060296521E+03  0.00000000000E+00 0. -1.
         22    1    3    3    0    0  0.29704231890E+02 -0.17946081807E+02 -0.33175332902E+02  0.48010477581E+02  0.00000000000E+00 0. -1.
</event>
<event>
 7    1  0.5977291E-006  0.5882953E+02  0.7818608E-02  0.1445427E+00
          2   -1    0    0  502    0  0.00000000000E+00  0.00000000000E+00  0.40044581276E+03  0.40044581276E+03  0.00000000000E+00 0. -1.
          1   -1    0    0  501    0 -0.00000000000E+00 -0.00000000000E+00 -0.34243820326E+03  0.34243820326E+03  0.00000000000E+00 0. -1.
         25    2    1    2    0    0  0.95081460638E+02  0.23743649512E+02  0.59677054820E+02  0.16967781288E+03  0.12499985705E+03 0.  0.
          2    1    1    2  501    0 -0.52614109696E+02 -0.24097324130E+02 -0.28291464855E+03  0.28877261631E+03  0.00000000000E+00 0. -1.
          1    1    1    2  502    0 -0.42467350941E+02  0.35367461832E+00  0.28124520323E+03  0.28443358683E+03  0.00000000000E+00 0. -1.
         22    1    3    3    0    0  0.64627119739E+02  0.72513142231E+02  0.18304541599E+02  0.98842686352E+02  0.00000000000E+00 0. -1.
         22    1    3    3    0    0  0.30454340898E+02 -0.48769492720E+02  0.41372513221E+02  0.70835126526E+02  0.00000000000E+00 0. -1.
</event>
<event>
 7    1  0.5977291E-006  0.1051977E+03  0.7818608E-02  0.1283816E+00
          2   -1    0    0  502    0  0.00000000000E+00  0.00000000000E+00  0.28269854974E+03  0.28269854974E+03  0.00000000000E+00 0. -1.
          1   -1    0    0  501    0 -0.00000000000E+00 -0.00000000000E+00 -0.12206005018E+04  0.12206005018E+04  0.00000000000E+00 0. -1.
         25    2    1    2    0    0 -0.74720181607E+02  0.50166316078E+02 -0.55982530110E+03  0.58062860555E+03  0.12500178008E+03 0.  0.
          2    1    1    2  501    0 -0.12401175300E+02 -0.10912752129E+03 -0.63532256418E+03  0.64474596982E+03  0.00000000000E+00 0. -1.
          1    1    1    2  502    0  0.87121356906E+02  0.58961205207E+02  0.25724591325E+03  0.27792447613E+03  0.00000000000E+00 0. -1.
         22    1    3    3    0    0 -0.95662568990E+02  0.66058060621E+02 -0.34191649144E+03  0.36113969818E+03  0.00000000000E+00 0.  1.
         22    1    3    3    0    0  0.20942387383E+02 -0.15891744543E+02 -0.21790880965E+03  0.21948890737E+03  0.00000000000E+00 0.  1.
</event>
<event>
 7    1  0.5977291E-006  0.8685676E+02  0.7818608E-02  0.1395806E+00
          2   -1    0    0  502    0  0.00000000000E+00  0.00000000000E+00  0.42071274810E+03  0.42071274810E+03  0.00000000000E+00 0. -1.
          1   -1    0    0  501    0 -0.00000000000E+00 -0.00000000000E+00 -0.19650537457E+03  0.19650537457E+03  0.00000000000E+00 0. -1.
         25    2    1    2    0    0 -0.26489466496E+01  0.59030600882E+02  0.50580368675E+02  0.14722430678E+03  0.12499997621E+03 0.  0.
          2    1    1    2  501    0  0.36846637105E+02 -0.83620681263E+02 -0.13251553598E+03  0.16096726461E+03  0.00000000000E+00 0. -1.
          1    1    1    2  502    0 -0.34197690455E+02  0.24590080381E+02  0.30614254083E+03  0.30902655128E+03  0.00000000000E+00 0. -1.
         22    1    3    3    0    0  0.19963871560E+02 -0.31162271985E+02  0.38593362759E+02  0.53470468596E+02  0.00000000000E+00 0.  1.
         22    1    3    3    0    0 -0.22612818210E+02  0.90192872867E+02  0.11987005916E+02  0.93753838184E+02  0.00000000000E+00 0.  1.
</event>
<event>
 7    1  0.5977291E-006  0.5658925E+02  0.7818608E-02  0.1467478E+00
          2   -1    0    0  502    0  0.00000000000E+00  0.00000000000E+00  0.18961695683E+04  0.18961695683E+04  0.00000000000E+00 0. -1.
          1   -1    0    0  501    0 -0.00000000000E+00 -0.00000000000E+00 -0.70927287960E+03  0.70927287960E+03  0.00000000000E+00 0. -1.
         25    2    1    2    0    0 -0.25751133580E+02  0.25432661851E+02  0.23430481874E+03  0.26801817303E+03  0.12500020728E+03 0.  0.
          2    1    1    2  501    0 -0.31480588696E+02 -0.20533225206E+02 -0.69140419929E+03  0.69242501948E+03  0.00000000000E+00 0. -1.
          1    1    1    2  502    0  0.57231722276E+02 -0.48994366452E+01  0.16439960693E+04  0.16449992554E+04  0.00000000000E+00 0. -1.
         22    1    3    3    0    0 -0.50593013449E+02 -0.13916247463E+02  0.34339769290E+02  0.62709925117E+02  0.00000000000E+00 0. -1.
         22    1    3    3    0    0  0.24841879869E+02  0.39348909314E+02  0.19996504945E+03  0.20530824792E+03  0.00000000000E+00 0. -1.
</event>
<event>
 7    1  0.5977291E-006  0.9438025E+02  0.7818608E-02  0.1459517E+00
          2   -1    0    0  502    0  0.00000000000E+00  0.00000000000E+00  0.16727678828E+03  0.16727678828E+03  0.00000000000E+00 0. -1.
          1   -1    0    0  501    0 -0.00000000000E+00 -0.00000000000E+00 -0.13114290224E+04  0.13114290224E+04  0.00000000000E+00 0. -1.
         25    2    1    2    0    0  0.10856896162E+03 -0.11541059873E+02 -0.32823404756E+03  0.36780121688E+03  0.12497891691E+03 0.  0.
          2    1    1    2  501    0 -0.18579588234E+02 -0.14986359658E+02 -0.94832701952E+03  0.94862739156E+03  0.00000000000E+00 0. -1.
          1    1    1    2  502    0 -0.89989373390E+02  0.26527419530E+02  0.13240883297E+03  0.16227720221E+03  0.00000000000E+00 0. -1.
         22    1    3    3    0    0 -0.65957358976E+01  0.76225869643E+01 -0.17435461784E+03  0.17464575668E+03  0.00000000000E+00 0. -1.
         22    1    3    3    0    0  0.11516469752E+03 -0.19163646837E+02 -0.15387942972E+03  0.19315546020E+03  0.00000000000E+00 0. -1.
</event>
<event>
 7    1  0.5977291E-006  0.7712338E+02  0.7818608E-02  0.1374696E+00
          2   -1    0    0  502    0  0.00000000000E+00  0.00000000000E+00  0.15691982822E+03  0.15691982822E+03  0.00000000000E+00 0. -1.
          1   -1    0    0  501    0 -0.00000000000E+00 -0.00000000000E+00 -0.15900770284E+04  0.15900770284E+04  0.00000000000E+00 0. -1.
         25    2    1    2    0    0 -0.12675770970E+02  0.32052218440E+02 -0.61445261954E+03  0.62798482354E+03  0.12499958826E+03 0.  0.
          2    1    1    2  501    0  0.39782772306E+02 -0.81366623658E+02 -0.96138159741E+03  0.96563853085E+03  0.00000000000E+00 0. -1.
          1    1    1    2  502    0 -0.27107001336E+02  0.49314405218E+02  0.14267701675E+03  0.15337350225E+03  0.00000000000E+00 0. -1.
         22    1    3    3    0    0  0.19046266544E+02  0.73407841057E+02 -0.31278208286E+03  0.32184484267E+03  0.00000000000E+00 0. -1.
         22    1    3    3    0    0 -0.31722037514E+02 -0.41355622617E+02 -0.30167053668E+03  0.30613998087E+03  0.00000000000E+00 0. -1.
</event>
<event>
 7    1  0.5977291E-006  0.2955285E+02  0.7818608E-02  0.1614875E+00
          2   -1    0    0  502    0  0.00000000000E+00  0.00000000000E+00  0.11792033529E+04  0.11792033529E+04  0.00000000000E+00 0. -1.
          1   -1    0    0  501    0 -0.00000000000E+00 -0.00000000000E+00 -0.22346997467E+03  0.22346997467E+03  0.00000000000E+00 0. -1.
         25    2    1    2    0    0 -0.19641909312E+02 -0.43978520578E+02  0.15510360497E+03  0.20494682773E+03  0.12500463611E+03 0.  0.
          2    1    1    2  501    0 -0.36456028829E+01  0.29255248457E+02 -0.19726278569E+03  0.19945367031E+03  0.00000000000E+00 0. -1.
          1    1    1    2  502    0  0.23287512195E+02  0.14723272121E+02  0.99789255892E+03  0.99827282949E+03  0.00000000000E+00 0. -1.
         22    1    3    3    0    0 -0.12802463028E+02  0.41839931157E+02  0.77715815669E+02  0.89186495076E+02  0.00000000000E+00 0.  1.
         22    1    3    3    0    0 -0.68394462848E+01 -0.85818451735E+02  0.77387789304E+02  0.11576033266E+03  0.00000000000E+00 0.  1.
</event>
<event>
 7    1  0.5977291E-006  0.7530989E+02  0.7818608E-02  0.1498461E+00
          2   -1    0    0  502    0  0.00000000000E+00  0.00000000000E+00  0.88302597705E+02  0.88302597705E+02  0.00000000000E+00 0. -1.
          1   -1    0    0  501    0 -0.00000000000E+00 -0.00000000000E+00 -0.14412120381E+04  0.14412120381E+04  0.00000000000E+00 0. -1.
         25    2    1    2    0    0 -0.51325779739E+02 -0.55507789374E+02 -0.26286836490E+03  0.30073100879E+03  0.12499564808E+03 0.  0.
          2    1    1    2  501    0  0.32467320549E+02  0.68162259829E+02 -0.11562888841E+04  0.11587511399E+04  0.00000000000E+00 0. -1.
          1    1    1    2  502    0  0.18858459190E+02 -0.12654470454E+02  0.66247808642E+02  0.70032487142E+02  0.00000000000E+00 0. -1.
         22    1    3    3    0    0  0.32728515502E+01 -0.73585075329E+02 -0.21025013042E+03  0.22277924547E+03  0.00000000000E+00 0.  1.
         22    1    3    3    0    0 -0.54598631289E+02  0.18077285955E+02 -0.52618234476E+02  0.77951763326E+02  0.00000000000E+00 0.  1.
</event>
<event>
 7    1  0.5977291E-006  0.9785975E+02  0.7818608E-02  0.1376051E+00
          2   -1    0    0  502    0  0.00000000000E+00  0.00000000000E+00  0.31415158448E+04  0.31415158448E+04  0.00000000000E+00 0. -1.
          1   -1    0    0  501    0 -0.00000000000E+00 -0.00000000000E+00 -0.52107151162E+02  0.52107151162E+02  0.00000000000E+00 0. -1.
         25    2    1    2    0    0 -0.12406554789E+02  0.86494663366E+02  0.22024365150E+03  0.26789476361E+03  0.12500035581E+03 0.  0.
          2    1    1    2  501    0 -0.43529287667E+02 -0.53643325263E+01 -0.99124361307E+01  0.44964778864E+02  0.00000000000E+00 0. -1.
          1    1    1    2  502    0  0.55935842456E+02 -0.81130330840E+02  0.28790774783E+04  0.28807634535E+04  0.00000000000E+00 0. -1.
         22    1    3    3    0    0  0.49068617883E+02  0.69136314315E+02  0.95187886885E+02  0.12746879237E+03  0.00000000000E+00 0.  1.
         22    1    3    3    0    0 -0.61475172672E+02  0.17358349051E+02  0.12505576461E+03  0.14042597124E+03  0.00000000000E+00 0.  1.
</event>
<event>
 7    1  0.5977291E-006  0.9834202E+02  0.7818608E-02  0.1346830E+00
          2   -1    0    0  502    0  0.00000000000E+00  0.00000000000E+00  0.73053751472E+03  0.73053751472E+03  0.00000000000E+00 0. -1.
          1   -1    0    0  501    0 -0.00000000000E+00 -0.00000000000E+00 -0.25135237448E+03  0.25135237448E+03  0.00000000000E+00 0. -1.
         25    2    1    2    0    0  0.70984244479E+02 -0.11361252381E+03 -0.15198724156E+03  0.23805994907E+03  0.12500339684E+03 0.  0.
          2    1    1    2  501    0 -0.52968678341E+02  0.17428752812E+02 -0.38039406801E+02  0.67501398353E+02  0.00000000000E+00 0. -1.
          1    1    1    2  502    0 -0.18015566137E+02  0.96183770998E+02  0.66921178860E+03  0.67632854178E+03  0.00000000000E+00 0. -1.
         22    1    3    3    0    0  0.92562792275E+01  0.12268656758E+02 -0.78066400432E+02  0.79564825898E+02  0.00000000000E+00 0.  1.
         22    1    3    3    0    0  0.61727965251E+02 -0.12588118057E+03 -0.73920841127E+02  0.15849512317E+03  0.00000000000E+00 0.  1.
</event>
<event>
 7    1  0.5977291E-006  0.6423700E+02  0.7818608E-02  0.1475470E+00
          2   -1    0    0  502    0  0.00000000000E+00  0.00000000000E+00  0.11886167917E+04  0.11886167917E+04  0.00000000000E+00 0. -1.
          1   -1    0    0  501    0 -0.00000000000E+00 -0.00000000000E+00 -0.49608291918E+03  0.49608291918E+03  0.00000000000E+00 0. -1.
         25    2    1    2    0    0  0.93640033199E+01  0.56352516460E+02 -0.13488758176E+03  0.19259369580E+03  0.12503751949E+03 0.  0.
          2    1    1    2  501    0  0.21359818448E+02 -0.62181937253E+02 -0.32887701821E+03  0.33538474663E+03  0.00000000000E+00 0. -1.
          1    1    1    2  502    0 -0.30723821767E+02  0.58294207930E+01  0.11562984725E+04  0.11567212684E+04  0.00000000000E+00 0. -1.
         22    1    3    3    0    0  0.19484454738E+02  0.64744442487E+02 -0.11592163149E+02  0.68599307984E+02  0.00000000000E+00 0.  1.
         22    1    3    3    0    0 -0.10120451418E+02 -0.83919260273E+01 -0.12329541862E+03  0.12399438782E+03  0.00000000000E+00 0.  1.
</event>
<event>
 7    1  0.5977291E-006  0.1117860E+03  0.7818608E-02  0.1411180E+00
          2   -1    0    0  502    0  0.00000000000E+00  0.00000000000E+00  0.43763133339E+03  0.43763133339E+03  0.00000000000E+00 0. -1.
          1   -1    0    0  501    0 -0.00000000000E+00 -0.00000000000E+00 -0.11876741520E+03  0.11876741520E+03  0.00000000000E+00 0. -1.
         25    2    1    2    0    0 -0.18584867606E+02  0.96407627565E+02  0.20236550618E+03  0.25732117257E+03  0.12499023885E+03 0.  0.
          2    1    1    2  501    0 -0.43051299832E+01 -0.11420448452E+03 -0.53809144897E+02  0.12631952542E+03  0.00000000000E+00 0. -1.
          1    1    1    2  502    0  0.22889997590E+02  0.17796856955E+02  0.17030755691E+03  0.17275805060E+03  0.00000000000E+00 0. -1.
         22    1    3    3    0    0  0.17735006745E+01  0.12261925421E+03  0.13603398024E+03  0.18314985828E+03  0.00000000000E+00 0.  1.
         22    1    3    3    0    0 -0.20358368281E+02 -0.26211626649E+02  0.66331525937E+02  0.74171314292E+02  0.00000000000E+00 0.  1.
</event>
<event>
 7    1  0.5977291E-006  0.1349265E+03  0.7818608E-02  0.1268428E+00
          2   -1    0    0  502    0  0.00000000000E+00  0.00000000000E+00  0.86785478738E+03  0.86785478738E+03  0.00000000000E+00 0. -1.
          1   -1    0    0  501    0 -0.00000000000E+00 -0.00000000000E+00 -0.41796362993E+03  0.41796362993E+03  0.00000000000E+00 0. -1.
         25    2    1    2    0    0 -0.10929227981E+03  0.87509075172E+02  0.42890172999E+03  0.46817174985E+03  0.12500181081E+03 0.  0.
          2    1    1    2  501    0  0.13516548527E+03 -0.85814778793E+01 -0.38246171150E+03  0.40573428612E+03  0.00000000000E+00 0. -1.
          1    1    1    2  502    0 -0.25873205467E+02 -0.78927597293E+02  0.40345113896E+03  0.41191238134E+03  0.00000000000E+00 0. -1.
         22    1    3    3    0    0  0.78111181184E+01  0.37726214039E+02  0.28180968995E+02  0.47733089210E+02  0.00000000000E+00 0. -1.
         22    1    3    3    0    0 -0.11710339793E+03  0.49782861133E+02  0.40072076099E+03  0.42043866064E+03  0.00000000000E+00 0. -1.
</event>
<event>
 7    1  0.5977291E-006  0.3863901E+02  0.7818608E-02  0.1594044E+00
          2   -1    0    0  502    0  0.00000000000E+00  0.00000000000E+00  0.22973518313E+04  0.22973518313E+04  0.00000000000E+00 0. -1.
          1   -1    0    0  501    0 -0.00000000000E+00 -0.00000000000E+00 -0.69851656043E+03  0.69851656043E+03  0.00000000000E+00 0. -1.
         25    2    1    2    0    0 -0.28882507321E+02 -0.50899483338E+02  0.15980651971E+04  0.16040144062E+04  0.12499953880E+03 0.  0.
          2    1    1    2  501    0  0.27566636429E+02  0.27066524960E+02 -0.69480062533E+03  0.69587385723E+03  0.00000000000E+00 0. -1.
          1    1    1    2  502    0  0.13158708924E+01  0.23832958378E+02  0.69557069913E+03  0.69598012824E+03  0.00000000000E+00 0. -1.
         22    1    3    3    0    0 -0.35371226777E+02  0.29238166567E+02  0.92950762677E+03  0.93063979191E+03  0.00000000000E+00 0.  1.
         22    1    3    3    0    0  0.64887194562E+01 -0.80137649904E+02  0.66855757029E+03  0.67337461432E+03  0.00000000000E+00 0.  1.
</event>
<event>
 7    1  0.5977291E-006  0.1566509E+03  0.7818608E-02  0.1237559E+00
          2   -1    0    0  502    0  0.00000000000E+00  0.00000000000E+00  0.55269268420E+03  0.55269268420E+03  0.00000000000E+00 0. -1.
          1   -1    0    0  501    0 -0.00000000000E+00 -0.00000000000E+00 -0.55088417272E+03  0.55088417272E+03  0.00000000000E+00 0. -1.
         25    2    1    2    0    0 -0.23603961368E+02 -0.18256858209E+03 -0.47625837001E+02  0.22755682173E+03  0.12500181042E+03 0.  0.
          2    1    1    2  501    0 -0.64734775525E+02  0.14192873340E+03 -0.39310403895E+03  0.42292451095E+03  0.00000000000E+00 0. -1.
          1    1    1    2  502    0  0.88338736893E+02  0.40639848692E+02  0.44253838743E+03  0.45309552424E+03  0.00000000000E+00 0. -1.
         22    1    3    3    0    0 -0.72799545659E+02 -0.86370449619E+02 -0.11101097283E+02  0.11350269942E+03  0.00000000000E+00 0.  1.
         22    1    3    3    0    0  0.49195584291E+02 -0.96198132469E+02 -0.36524739718E+02  0.11405412231E+03  0.00000000000E+00 0.  1.
</event>
<event>
 7    1  0.5977291E-006  0.3592947E+02  0.7818608E-02  0.1620536E+00
          2   -1    0    0  502    0  0.00000000000E+00  0.00000000000E+00  0.11394239499E+04  0.11394239499E+04  0.00000000000E+00 0. -1.
          1   -1    0    0  501    0 -0.00000000000E+00 -0.00000000000E+00 -0.42408591362E+02  0.42408591362E+02  0.00000000000E+00 0. -1.
         25    2    1    2    0    0 -0.41366678932E+02  0.34858559496E+02  0.13509211462E+03  0.19183677640E+03  0.12500059220E+03 0.  0.
          2    1    1    2  501    0  0.21199862883E+02 -0.26269677386E+02  0.65690615534E+01  0.34390154201E+02  0.00000000000E+00 0. -1.
          1    1    1    2  502    0  0.20166816049E+02 -0.85888821092E+01  0.95535418236E+03  0.95560561066E+03  0.00000000000E+00 0. -1.
         22    1    3    3    0    0  0.39281521281E+02  0.11369335106E+02  0.11641422922E+02  0.42518495065E+02  0.00000000000E+00 0. -1.
         22    1    3    3    0    0 -0.80648200214E+02  0.23489224390E+02  0.12345069170E+03  0.14931828134E+03  0.00000000000E+00 0. -1.
</event>
<event>
 7    1  0.5977291E-006  0.5602607E+02  0.7818608E-02  0.1461047E+00
          2   -1    0    0  502    0  0.00000000000E+00  0.00000000000E+00  0.87475387314E+03  0.87475387314E+03  0.00000000000E+00 0. -1.
          1   -1    0    0  501    0 -0.00000000000E+00 -0.00000000000E+00 -0.12588298447E+03  0.12588298447E+03  0.00000000000E+00 0. -1.
         25    2    1    2    0    0 -0.11240541817E+02 -0.44757392246E+02  0.18113846455E+03  0.22486839779E+03  0.12500031617E+03 0.  0.
          2    1    1    2  501    0  0.39440488915E+02 -0.50865689002E+01 -0.98944188079E+02  0.10663666210E+03  0.00000000000E+00 0. -1.
          1    1    1    2  502    0 -0.28199947098E+02  0.49843961146E+02  0.66667661219E+03  0.66913179773E+03  0.00000000000E+00 0. -1.
         22    1    3    3    0    0 -0.20270546345E+02  0.74617999055E+01  0.16916490311E+03  0.17053837677E+03  0.00000000000E+00 0.  1.
         22    1    3    3    0    0  0.90300045280E+01 -0.52219192151E+02  0.11973561445E+02  0.54330021023E+02  0.00000000000E+00 0.  1.
</event>
<event>
 7    1  0.5977291E-006  0.1291226E+03  0.7818608E-02  0.1256112E+00
          2   -1    0    0  502    0  0.00000000000E+00  0.00000000000E+00  0.14897363993E+04  0.14897363993E+04  0.00000000000E+00 0. -1.
          1   -1    0    0  501    0 -0.00000000000E+00 -0.00000000000E+00 -0.36787592112E+02  0.36787592112E+02  0.00000000000E+00 0. -1.
         25    2    1    2    0    0 -0.30883338427E+02  0.65568272163E+02  0.39954153482E+03  0.42486742907E+03  0.12500366126E+03 0.  0.
          2    1    1    2  501    0 -0.94602329175E+02 -0.95998413955E+02  0.21778086721E+03  0.25611287022E+03  0.00000000000E+00 0. -1.
          1    1    1    2  502    0  0.12548566760E+03  0.30430141792E+02  0.83562640516E+03  0.84554369213E+03  0.00000000000E+00 0. -1.
         22    1    3    3    0    0 -0.34988659616E+02  0.99416688177E+01  0.34480579169E+03  0.34671901746E+03  0.00000000000E+00 0.  1.
         22    1    3    3    0    0  0.41053211892E+01  0.55626603346E+02  0.54735743128E+02  0.78148411613E+02  0.00000000000E+00 0.  1.
</event>
<event>
 7    1  0.5977291E-006  0.8044513E+02  0.7818608E-02  0.1340137E+00
          2   -1    0    0  502    0  0.00000000000E+00  0.00000000000E+00  0.12895457766E+04  0.12895457766E+04  0.00000000000E+00 0. -1.
          1   -1    0    0  501    0 -0.00000000000E+00 -0.00000000000E+00 -0.34935385974E+03  0.34935385974E+03  0.00000000000E+00 0. -1.
         25    2    1    2    0    0  0.39547378596E+02 -0.12213241149E+03  0.57440119813E+03  0.60169969979E+03  0.12500188485E+03 0.  0.
          2    1    1    2  501    0 -0.60238315923E+02  0.52944791349E+02 -0.32901658379E+03  0.33864984578E+03  0.00000000000E+00 0. -1.
          1    1    1    2  502    0  0.20690937327E+02  0.69187620141E+02  0.69480730249E+03  0.69855009074E+03  0.00000000000E+00 0. -1.
         22    1    3    3    0    0 -0.40429083902E+02 -0.12098496153E+02  0.11122107367E+03  0.11895802479E+03  0.00000000000E+00 0. -1.
         22    1    3    3    0    0  0.79976462498E+02 -0.11003391534E+03  0.46318012447E+03  0.48274167500E+03  0.00000000000E+00 0. -1.
</event>
<event>
 7    1  0.5977291E-006  0.3840538E+02  0.7818608E-02  0.1612991E+00
          2   -1    0    0  502    0  0.00000000000E+00  0.00000000000E+00  0.65815577322E+03  0.65815577322E+03  0.00000000000E+00 0. -1.
          1   -1    0    0  501    0 -0.00000000000E+00 -0.00000000000E+00 -0.60934071703E+03  0.60934071703E+03  0.00000000000E+00 0. -1.
         25    2    1    2    0    0 -0.27869360929E+01 -0.23277051569E+02  0.18810754448E+03  0.22706601378E+03  0.12499975272E+03 0.  0.
          2    1    1    2  501    0 -0.19477655184E+02 -0.89563039259E+01 -0.58881450760E+03  0.58920464933E+03  0.00000000000E+00 0. -1.
          1    1    1    2  502    0  0.22264591277E+02  0.32233355495E+02  0.44952201931E+03  0.45122582713E+03  0.00000000000E+00 0. -1.
         22    1    3    3    0    0  0.16859370960E+02 -0.69222936265E+02  0.14292231025E+03  0.15969608656E+03  0.00000000000E+00 0. -1.
         22    1    3    3    0    0 -0.19646307053E+02  0.45945884697E+02  0.45185234227E+02  0.67369927219E+02  0.00000000000E+00 0. -1.
</event>
<event>
 7    1  0.5977291E-006  0.6670522E+02  0.7818608E-02  0.1502896E+00
          2   -1    0    0  502    0  0.00000000000E+00  0.00000000000E+00  0.65907637889E+02  0.65907637889E+02  0.00000000000E+00 0. -1.
          1   -1    0    0  501    0 -0.00000000000E+00 -0.00000000000E+00 -0.73467686627E+03  0.73467686627E+03  0.00000000000E+00 0. -1.
         25    2    1    2    0    0 -0.48088742544E+02 -0.16336889475E+02 -0.92906947417E+02  0.16381617004E+03  0.12499846228E+03 0.  0.
          2    1    1    2  501    0  0.54293207619E+02  0.40422058516E+02 -0.59899178942E+03  0.60280416305E+03  0.00000000000E+00 0. -1.
          1    1    1    2  502    0 -0.62044650745E+01 -0.24085169041E+02  0.23129508453E+02  0.33964171061E+02  0.00000000000E+00 0. -1.
         22    1    3    3    0    0  0.29834238025E+02 -0.39706918403E+02 -0.16845314987E+02  0.52445073788E+02  0.00000000000E+00 0. -1.
         22    1    3    3    0    0 -0.77922980570E+02  0.23370028928E+02 -0.76061632431E+02  0.11137109625E+03  0.00000000000E+00 0. -1.
</event>
<event>
 7    1  0.5977291E-006  0.1307445E+03  0.7818608E-02  0.1229907E+00
          2   -1    0    0  502    0  0.00000000000E+00  0.00000000000E+00  0.11364807409E+04  0.11364807409E+04  0.00000000000E+00 0. -1.
          1   -1    0    0  501    0 -0.00000000000E+00 -0.00000000000E+00 -0.32013937807E+03  0.32013937807E+03  0.00000000000E+00 0. -1.
         25    2    1    2    0    0  0.51102000183E+02  0.64329406474E+01  0.61801197978E+02  0.14865288350E+03  0.12500197820E+03 0.  0.
          2    1    1    2  501    0  0.24742038688E+01  0.12599771616E+03 -0.25708157646E+03  0.28630837067E+03  0.00000000000E+00 0. -1.
          1    1    1    2  502    0 -0.53576204052E+02 -0.13243065681E+03  0.10116217413E+04  0.10216588648E+04  0.00000000000E+00 0. -1.
         22    1    3    3    0    0  0.42308503596E+01 -0.40449769675E+02  0.70900665935E+02  0.81737313338E+02  0.00000000000E+00 0. -1.
         22    1    3    3    0    0  0.46871149824E+02  0.46882710323E+02 -0.90994679571E+01  0.66915570162E+02  0.00000000000E+00 0. -1.
</event>
<event>
 7    1  0.5977291E-006  0.6919931E+02  0.7818608E-02  0.1384239E+00
          2   -1    0    0  502    0  0.00000000000E+00  0.00000000000E+00  0.15347517895E+04  0.15347517895E+04  0.00000000000E+00 0. -1.
          1   -1    0    0  501    0 -0.00000000000E+00 -0.00000000000E+00 -0.13317252267E+03  0.13317252267E+03  0.00000000000E+00 0. -1.
         25    2    1    2    0    0 -0.35553904859E+02 -0.84403471393E+02  0.87489506563E+03  0.88851257016E+03  0.12500074131E+03 0.  0.
          2    1    1    2  501    0  0.61153975957E+02  0.32339001223E+02 -0.11548905859E+03  0.13462296398E+03  0.00000000000E+00 0. -1.
          1    1    1    2  502    0 -0.25600071097E+02  0.52064470169E+02  0.64217325975E+03  0.64478877800E+03  0.00000000000E+00 0. -1.
         22    1    3    3    0    0 -0.58288500730E+02 -0.20572869800E+02  0.66691034910E+03  0.66976877057E+03  0.00000000000E+00 0. -1.
         22    1    3    3    0    0  0.22734595871E+02 -0.63830601593E+02  0.20798471653E+03  0.21874379959E+03  0.00000000000E+00 0. -1.
</event>
<event>
 7    1  0.5977291E-006  0.7097563E+02  0.7818608E-02  0.1433943E+00
          2   -1    0    0  502    0  0.00000000000E+00  0.00000000000E+00  0.11723208388E+04  0.11723208388E+04  0.00000000000E+00 0. -1.
          1   -1    0    0  501    0 -0.00000000000E+00 -0.00000000000E+00 -0.15939698754E+04  0.15939698754E+04  0.00000000000E+00 0. -1.
         25    2    1    2    0    0 -0.10194853086E+03  0.22795156063E+02  0.89552726524E+02  0.18589718721E+03  0.12499980519E+03 0.  0.
          2    1    1    2  501    0  0.64230450963E+02 -0.29765968195E+02 -0.15446311533E+04  0.15462525548E+04  0.00000000000E+00 0. -1.
          1    1    1    2  502    0  0.37718079901E+02  0.69708121321E+01  0.10334293901E+04  0.10341409721E+04  0.00000000000E+00 0. -1.
         22    1    3    3    0    0 -0.98886425249E+02 -0.34994029687E+02  0.61368296146E+02  0.12152849454E+03  0.00000000000E+00 0. -1.
         22    1    3    3    0    0 -0.30621056149E+01  0.57789185750E+02  0.28184430378E+02  0.64368692671E+02  0.00000000000E+00 0. -1.
</event>
<event>
 7    1  0.5977291E-006  0.7643949E+02  0.7818608E-02  0.1370234E+00
          2   -1    0    0  502    0  0.00000000000E+00  0.00000000000E+00  0.39350153146E+03  0.39350153146E+03  0.00000000000E+00 0. -1.
          1   -1    0    0  501    0 -0.00000000000E+00 -0.00000000000E+00 -0.22869849903E+04  0.22869849903E+04  0.00000000000E+00 0. -1.
         25    2    1    2    0    0  0.90259181880E+01  0.62964323759E+02 -0.16456183905E+03  0.21622025206E+03  0.12499850104E+03 0.  0.
          2    1    1    2  501    0 -0.64401178440E+02 -0.42879066315E+02 -0.20935154258E+04  0.20949446208E+04  0.00000000000E+00 0. -1.
          1    1    1    2  502    0  0.55375260252E+02 -0.20085257444E+02  0.36459380598E+03  0.36932164894E+03  0.00000000000E+00 0. -1.
         22    1    3    3    0    0 -0.52732587797E+02  0.56944630972E+02 -0.81525519373E+02  0.11256032659E+03  0.00000000000E+00 0. -1.
         22    1    3    3    0    0  0.61758505985E+02  0.60196927867E+01 -0.83036319680E+02  0.10365992547E+03  0.00000000000E+00 0. -1.
</event>
<event>
 7    1  0.5977291E-006  0.1783313E+03  0.7818608E-02  0.1301700E+00
          2   -1    0    0  502    0  0.00000000000E+00  0.00000000000E+00  0.13912120750E+04  0.13912120750E+04  0.00000000000E+00 0. -1.
          1   -1    0    0  501    0 -0.00000000000E+00 -0.00000000000E+00 -0.13370009544E+04  0.13370009544E+04  0.00000000000E+00 0. -1.
         25    2    1    2    0    0 -0.20172349819E+03 -0.63005444313E+02  0.47229877124E+03  0.53231073039E+03  0.12500611439E+03 0.  0.
          2    1    1    2  501    0  0.15903295100E+03  0.79878152113E+02 -0.13003373382E+04  0.13124592153E+04  0.00000000000E+00 0. -1.
          1    1    1    2  502    0  0.42690547199E+02 -0.16872707800E+02  0.88224968749E+03  0.88344308372E+03  0.00000000000E+00 0. -1.
         22    1    3    3    0    0 -0.21451893014E+03 -0.53087150073E+02  0.38843485297E+03  0.44689848052E+03  0.00000000000E+00 0.  1.
         22    1    3    3    0    0  0.12795431946E+02 -0.99182942407E+01  0.83863918272E+02  0.85412249867E+02  0.00000000000E+00 0.  1.
</event>
<event>
 7    1  0.5977291E-006  0.3495110E+02  0.7818608E-02  0.1581452E+00
          2   -1    0    0  502    0  0.00000000000E+00  0.00000000000E+00  0.23151159687E+02  0.23151159687E+02  0.00000000000E+00 0. -1.
          1   -1    0    0  501    0 -0.00000000000E+00 -0.00000000000E+00 -0.86771378438E+03  0.86771378438E+03  0.00000000000E+00 0. -1.
         25    2    1    2    0    0 -0.13644465943E+02  0.20836601643E+00 -0.52610708559E+03  0.54092501077E+03  0.12499994761E+03 0.  0.
          2    1    1    2  501    0  0.31510988734E+02 -0.22411578629E+02 -0.31909928407E+03  0.32143362357E+03  0.00000000000E+00 0. -1.
          1    1    1    2  502    0 -0.17866522791E+02  0.22203212613E+02  0.64374496105E+00  0.28506309732E+02  0.00000000000E+00 0. -1.
         22    1    3    3    0    0  0.12548997224E+02 -0.41395672710E+02 -0.70777359152E+02  0.82948861469E+02  0.00000000000E+00 0.  1.
         22    1    3    3    0    0 -0.26193463167E+02  0.41604038726E+02 -0.45532972644E+03  0.45797614930E+03  0.00000000000E+00 0.  1.
</event>
<event>
 7    1  0.5977291E-006  0.1254449E+03  0.7818608E-02  0.1429130E+00
          2   -1    0    0  502    0  0.00000000000E+00  0.00000000000E+00  0.10562127188E+03  0.10562127188E+03  0.00000000000E+00 0. -1.
          1   -1    0    0  501    0 -0.00000000000E+00 -0.00000000000E+00 -0.61732260133E+03  0.61732260133E+03  0.00000000000E+00 0. -1.
         25    2    1    2    0    0  0.28203568146E+02 -0.13730903135E+03 -0.34007737754E+03  0.38849369997E+03  0.12500208341E+03 0.  0.
          2    1    1    2  501    0  0.10526891119E+02  0.19892921460E+02 -0.20512250997E+03  0.20635355062E+03  0.00000000000E+00 0. -1.
          1    1    1    2  502    0 -0.38730459265E+02  0.11741610989E+03  0.33498558054E+02  0.12809662262E+03  0.00000000000E+00 0. -1.
         22    1    3    3    0    0  0.21132548593E+01  0.73167438345E+01 -0.14018824996E+03  0.14039496434E+03  0.00000000000E+00 0. -1.
         22    1    3    3    0    0  0.26090313287E+02 -0.14462577518E+03 -0.19988912758E+03  0.24809873562E+03  0.00000000000E+00 0. -1.
</event>
<event>
 7    1  0.5977291E-006  0.9946012E+02  0.7818608E-02  0.1364669E+00
          2   -1    0    0  502    0  0.00000000000E+00  0.00000000000E+00  0.71712501627E+03  0.71712501627E+03  0.00000000000E+00 0. -1.
          1   -1    0    0  501    0 -0.00000000000E+00 -0.00000000000E+00 -0.23598542057E+03  0.23598542057E+03  0.00000000000E+00 0. -1.
         25    2    1    2    0    0  0.10701894508E+03  0.10814786671E+01 -0.75235978603E+02  0.18095288139E+03  0.12501707325E+03 0.  0.
          2    1    1    2  501    0 -0.89668849361E+02  0.43044183109E+02 -0.83902323082E+02  0.13012649255E+03  0.00000000000E+00 0. -1.
          1    1    1    2  502    0 -0.17350095720E+02 -0.44125661776E+02  0.64027789739E+03  0.64203106290E+03  0.00000000000E+00 0. -1.
         22    1    3    3    0    0  0.80818952739E+01  0.47371462923E+02 -0.48965854337E+02  0.68607779600E+02  0.00000000000E+00 0.  1.
         22    1    3    3    0    0  0.98937049807E+02 -0.46289984256E+02 -0.26270124266E+02  0.11234510179E+03  0.00000000000E+00 0.  1.
</event>
<event>
 7    1  0.5977291E-006  0.6142987E+02  0.7818608E-02  0.1445119E+00
          2   -1    0    0  502    0  0.00000000000E+00  0.00000000000E+00  0.89504133904E+03  0.89504133904E+03  0.00000000000E+00 0. -1.
          1   -1    0    0  501    0 -0.00000000000E+00 -0.00000000000E+00 -0.14323280286E+04  0.14323280286E+04  0.00000000000E+00 0. -1.
         25    2    1    2    0    0  0.92772430436E+02  0.15258161350E+02  0.14311311081E+03  0.21200484360E+03  0.12500062354E+03 0.  0.
          2    1    1    2  501    0 -0.54251047952E+02 -0.28592461526E+02 -0.13966297639E+04  0.13979754656E+04  0.00000000000E+00 0. -1.
          1    1    1    2  502    0 -0.38521382483E+02  0.13334300176E+02  0.71622996353E+03  0.71738905841E+03  0.00000000000E+00 0. -1.
         22    1    3    3    0    0  0.68711807955E+02 -0.35353829234E+02  0.13476364167E+03  0.15534620983E+03  0.00000000000E+00 0.  1.
         22    1    3    3    0    0  0.24060622480E+02  0.50611990584E+02  0.83494691430E+01  0.56658633764E+02  0.00000000000E+00 0.  1.
</event>
<event>
 7    1  0.5977291E-006  0.6385551E+02  0.7818608E-02  0.1432226E+00
          2   -1    0    0  502    0  0.00000000000E+00  0.00000000000E+00  0.68854537688E+03  0.68854537688E+03  0.00000000000E+00 0. -1.
          1   -1    0    0  501    0 -0.00000000000E+00 -0.00000000000E+00 -0.28837986774E+02  0.28837986774E+02  0.00000000000E+00 0. -1.
         25    2    1    2    0    0 -0.35982088643E+02 -0.24859804601E+02  0.24208820209E+03  0.27594240774E+03  0.12499917685E+03 0.  0.
          2    1    1    2  501    0  0.76543536788E+02  0.10023399475E+02  0.13477269638E+03  0.15531600449E+03  0.00000000000E+00 0. -1.
          1    1    1    2  502    0 -0.40561448145E+02  0.14836405126E+02  0.28284649164E+03  0.28612495142E+03  0.00000000000E+00 0. -1.
         22    1    3    3    0    0 -0.80949398387E+02 -0.20368404378E+02  0.12376644794E+03  0.14928432815E+03  0.00000000000E+00 0. -1.
         22    1    3    3    0    0  0.44967309744E+02 -0.44914002229E+01  0.11832175415E+03  0.12665807959E+03  0.00000000000E+00 0. -1.
</event>
<event>
 7    1  0.5977291E-006  0.6743091E+02  0.7818608E-02  0.1464167E+00
          2   -1    0    0  502    0  0.00000000000E+00  0.00000000000E+00  0.22284259114E+03  0.22284259114E+03  0.00000000000E+00 0. -1.
          1   -1    0    0  501    0 -0.00000000000E+00 -0.00000000000E+00 -0.49218275283E+03  0.49218275283E+03  0.00000000000E+00 0. -1.
         25    2    1    2    0    0  0.74529952515E+02 -0.26920925686E+02 -0.11413637222E+03  0.18690090368E+03  0.12500154508E+03 0.  0.
          2    1    1    2  501    0 -0.66761835569E+02 -0.44347720180E+01 -0.33695041501E+03  0.34352931762E+03  0.00000000000E+00 0. -1.
          1    1    1    2  502    0 -0.77681169462E+01  0.31355697704E+02  0.18174662553E+03  0.18459512267E+03  0.00000000000E+00 0. -1.
         22    1    3    3    0    0  0.19623111326E+02 -0.73151261591E+02 -0.66168544924E+02  0.10057062149E+03  0.00000000000E+00 0. -1.
         22    1    3    3    0    0  0.54906841189E+02  0.46230335905E+02 -0.47967827297E+02  0.86330282189E+02  0.00000000000E+00 0. -1.
</event>
<event>
 7    1  0.5977291E-006  0.1450250E+03  0.7818608E-02  0.1284512E+00
          2   -1    0    0  502    0  0.00000000000E+00  0.00000000000E+00  0.34097417393E+02  0.34097417393E+02  0.00000000000E+00 0. -1.
          1   -1    0    0  501    0 -0.00000000000E+00 -0.00000000000E+00 -0.20692008734E+04  0.20692008734E+04  0.00000000000E+00 0. -1.
         25    2    1    2    0    0 -0.54754703766E+02 -0.11088380682E+03 -0.35165851624E+03  0.39316840536E+03  0.12499754689E+03 0.  0.
          2    1    1    2  501    0 -0.49119763012E+02 -0.44459615481E+02 -0.98157636608E+03  0.98380972295E+03  0.00000000000E+00 0. -1.
          1    1    1    2  502    0  0.10387446678E+03  0.15534342230E+03 -0.70186857370E+03  0.72632016249E+03  0.00000000000E+00 0. -1.
         22    1    3    3    0    0 -0.13417521803E+02  0.13292882609E+02 -0.10355128724E+01  0.18915678849E+02  0.00000000000E+00 0. -1.
         22    1    3    3    0    0 -0.41337181963E+02 -0.12417668943E+03 -0.35062300337E+03  0.37425272651E+03  0.00000000000E+00 0. -1.
</event>
<event>
 7    1  0.5977291E-006  0.5979125E+02  0.7818608E-02  0.1489475E+00
          2   -1    0    0  502    0  0.00000000000E+00  0.00000000000E+00  0.13566992849E+04  0.13566992849E+04  0.00000000000E+00 0. -1.
          1   -1    0    0  501    0 -0.00000000000E+00 -0.00000000000E+00 -0.74422394292E+02  0.74422394292E+02  0.00000000000E+00 0. -1.
         25    2    1    2    0    0  0.65510126055E+02 -0.79554650531E+01  0.25731190576E+03  0.29357900527E+03  0.12499739778E+03 0.  0.
          2    1    1    2  501    0 -0.94752838399E+01  0.28930688915E+02 -0.51280134861E+02  0.59635710747E+02  0.00000000000E+00 0. -1.
          1    1    1    2  502    0 -0.56034842215E+02 -0.20975223862E+02  0.10762451197E+04  0.10779069632E+04  0.00000000000E+00 0. -1.
         22    1    3    3    0    0  0.31262333466E+02  0.37286145668E+02  0.25522530502E+02  0.54945333885E+02  0.00000000000E+00 0. -1.
         22    1    3    3    0    0  0.34247792589E+02 -0.45241610721E+02  0.23178937526E+03  0.23863367139E+03  0.00000000000E+00 0. -1.
</event>
<event>
 7    1  0.5977291E-006  0.9379966E+02  0.7818608E-02  0.1318362E+00
          2   -1    0    0  502    0  0.00000000000E+00  0.00000000000E+00  0.23454013630E+04  0.23454013630E+04  0.00000000000E+00 0. -1.
          1   -1    0    0  501    0 -0.00000000000E+00 -0.00000000000E+00 -0.22906950673E+03  0.22906950673E+03  0.00000000000E+00 0. -1.
         25    2    1    2    0    0 -0.56336521120E+02 -0.11265681644E+02 -0.18511422209E+02  0.13881204830E+03  0.12500157121E+03 0.  0.
          2    1    1    2  501    0  0.14654786072E+02 -0.73581228262E+02 -0.14000848206E+03  0.15884374384E+03  0.00000000000E+00 0. -1.
          1    1    1    2  502    0  0.41681735048E+02  0.84846909906E+02  0.22748517605E+04  0.22768150776E+04  0.00000000000E+00 0. -1.
         22    1    3    3    0    0 -0.92044989232E+02  0.11958241479E+02 -0.23979968235E+02  0.95866148658E+02  0.00000000000E+00 0. -1.
         22    1    3    3    0    0  0.35708468111E+02 -0.23223923123E+02  0.54685460254E+01  0.42945899638E+02  0.00000000000E+00 0. -1.
</event>
<event>
 7    1  0.5977291E-006  0.5432351E+02  0.7818608E-02  0.1485533E+00
          2   -1    0    0  502    0  0.00000000000E+00  0.00000000000E+00  0.11940047993E+04  0.11940047993E+04  0.00000000000E+00 0. -1.
          1   -1    0    0  501    0 -0.00000000000E+00 -0.00000000000E+00 -0.88918193600E+02  0.88918193600E+02  0.00000000000E+00 0. -1.
         25    2    1    2    0    0  0.62770162463E+02 -0.58969928025E+02  0.10181224827E+03  0.18279226363E+03  0.12501892672E+03 0.  0.
          2    1    1    2  501    0 -0.30570174663E+02  0.15867846815E+02 -0.41523074568E+02  0.53948956089E+02  0.00000000000E+00 0. -1.
          1    1    1    2  502    0 -0.32199987800E+02  0.43102081210E+02  0.10447974320E+04  0.10461817732E+04  0.00000000000E+00 0. -1.
         22    1    3    3    0    0 -0.22970522945E+02 -0.13301440930E+02 -0.15296591046E+02  0.30635909531E+02  0.00000000000E+00 0.  1.
         22    1    3    3    0    0  0.85740685408E+02 -0.45668487095E+02  0.11710883931E+03  0.15215635410E+03  0.00000000000E+00 0.  1.
</event>
<event>
 7    1  0.5977291E-006  0.5770757E+02  0.7818608E-02  0.1492894E+00
          2   -1    0    0  502    0  0.00000000000E+00  0.00000000000E+00  0.19509726553E+04  0.19509726553E+04  0.00000000000E+00 0. -1.
          1   -1    0    0  501    0 -0.00000000000E+00 -0.00000000000E+00 -0.10747252130E+03  0.10747252130E+03  0.00000000000E+00 0. -1.
         25    2    1    2    0    0 -0.70747384278E+02 -0.43313833100E+02  0.80765246219E+03  0.82146728226E+03  0.12499886252E+03 0.  0.
          2    1    1    2  501    0  0.30311006682E+02  0.54715791739E+01 -0.97514582790E+02  0.10226333244E+03  0.00000000000E+00 0. -1.
          1    1    1    2  502    0  0.40436377596E+02  0.37842253926E+02  0.11333622546E+04  0.11347145618E+04  0.00000000000E+00 0. -1.
         22    1    3    3    0    0 -0.95689200933E+02  0.42469821886E+01  0.48350507199E+03  0.49290122203E+03  0.00000000000E+00 0.  1.
         22    1    3    3    0    0  0.24941816655E+02 -0.47560815289E+02  0.32414739019E+03  0.32856606024E+03  0.00000000000E+00 0.  1.
</event>
<event>
 7    1  0.5977291E-006  0.1724327E+03  0.7818608E-02  0.1297041E+00
          2   -1    0    0  502    0  0.00000000000E+00  0.00000000000E+00  0.26822644656E+04  0.26822644656E+04  0.00000000000E+00 0. -1.
          1   -1    0    0  501    0 -0.00000000000E+00 -0.00000000000E+00 -0.12239349574E+03  0.12239349574E+03  0.00000000000E+00 0. -1.
         25    2    1    2    0    0 -0.19836278404E+03 -0.85446194985E+00  0.67425058797E+03  0.71385376578E+03  0.12499927739E+03 0.  0.
          2    1    1    2  501    0  0.16587302578E+03  0.38278582318E+02 -0.31433091065E+02  0.17311022431E+03  0.00000000000E+00 0. -1.
          1    1    1    2  502    0  0.32489758255E+02 -0.37424120368E+02  0.19170534730E+04  0.19176939713E+04  0.00000000000E+00 0. -1.
         22    1    3    3    0    0 -0.15728123198E+03 -0.52070740176E+02  0.53159669697E+03  0.55681576499E+03  0.00000000000E+00 0.  1.
         22    1    3    3    0    0 -0.41081552053E+02  0.51216278226E+02  0.14265389100E+03  0.15703800079E+03  0.00000000000E+00 0.  1.
</event>
<event>
 7    1  0.5977291E-006  0.4130123E+02  0.7818608E-02  0.1512228E+00
          2   -1    0    0  502    0  0.00000000000E+00  0.00000000000E+00  0.45989479748E+03  0.45989479748E+03  0.00000000000E+00 0. -1.
          1   -1    0    0  501    0 -0.00000000000E+00 -0.00000000000E+00 -0.46279088580E+03  0.46279088580E+03  0.00000000000E+00 0. -1.
         25    2    1    2    0    0 -0.26889202152E+02 -0.72975223246E+02 -0.10561407327E+03  0.18118562882E+03  0.12500194886E+03 0.  0.
          2    1    1    2  501    0  0.13197847214E+02  0.37849484806E+02 -0.31728573171E+03  0.31980775822E+03  0.00000000000E+00 0. -1.
          1    1    1    2  502    0  0.13691354937E+02  0.35125738441E+02  0.42000371666E+03  0.42169229624E+03  0.00000000000E+00 0. -1.
         22    1    3    3    0    0  0.22540908291E+02  0.23456961494E+02 -0.49293280721E+02  0.59060554632E+02  0.00000000000E+00 0. -1.
         22    1    3    3    0    0 -0.49430110443E+02 -0.96432184741E+02 -0.56320792551E+02  0.12212507419E+03  0.00000000000E+00 0. -1.
</event>
<event>
 7    1  0.5977291E-006  0.1400686E+03  0.7818608E-02  0.1401896E+00
          2   -1    0    0  502    0  0.00000000000E+00  0.00000000000E+00  0.50428282357E+03  0.50428282357E+03  0.00000000000E+00 0. -1.
          1   -1    0    0  501    0 -0.00000000000E+00 -0.00000000000E+00 -0.61360550232E+03  0.61360550232E+03  0.00000000000E+00 0. -1.
         25    2    1    2    0    0 -0.13994895149E+03  0.65695855386E+02  0.13385964118E+03  0.23967627810E+03  0.12499864122E+03 0.  0.
          2    1    1    2  501    0  0.11714433160E+03 -0.75663173934E+02 -0.55151680719E+03  0.56887476559E+03  0.00000000000E+00 0. -1.
          1    1    1    2  502    0  0.22804619887E+02  0.99673185475E+01  0.30833448726E+03  0.30933728221E+03  0.00000000000E+00 0. -1.
         22    1    3    3    0    0 -0.89675984412E+02  0.71705887926E+02  0.14780249929E+03  0.18716061375E+03  0.00000000000E+00 0. -1.
         22    1    3    3    0    0 -0.50272967073E+02 -0.60100325397E+01 -0.13942858107E+02  0.52515664346E+02  0.00000000000E+00 0. -1.
</event>
<event>
 7    1  0.5977291E-006  0.5838846E+02  0.7818608E-02  0.1531484E+00
          2   -1    0    0  502    0  0.00000000000E+00  0.00000000000E+00  0.21682663584E+03  0.21682663584E+03  0.00000000000E+00 0. -1.
          1   -1    0    0  501    0 -0.00000000000E+00 -0.00000000000E+00 -0.28431165391E+04  0.28431165391E+04  0.00000000000E+00 0. -1.
         25    2    1    2    0    0 -0.54816662300E+02  0.54803896845E+02 -0.82050588819E+02  0.16842899071E+03  0.12501076839E+03 0.  0.
          2    1    1    2  501    0  0.48552233043E+02 -0.32203212943E+02 -0.27167710764E+04  0.27173957106E+04  0.00000000000E+00 0. -1.
          1    1    1    2  502    0  0.62644292571E+01 -0.22600683902E+02  0.17253176195E+03  0.17411847366E+03  0.00000000000E+00 0. -1.
         22    1    3    3    0    0 -0.51892821969E+02 -0.23762792343E+02 -0.33304188376E+01  0.57171907101E+02  0.00000000000E+00 0.  1.
         22    1    3    3    0    0 -0.29238403310E+01  0.78566689188E+02 -0.78720169981E+02  0.11125708361E+03  0.00000000000E+00 0.  1.
</event>
<event>
 7    1  0.5977291E-006  0.7720864E+02  0.7818608E-02  0.1400519E+00
          2   -1    0    0  502    0  0.00000000000E+00  0.00000000000E+00  0.11911116334E+04  0.11911116334E+04  0.00000000000E+00 0. -1.
          1   -1    0    0  501    0 -0.00000000000E+00 -0.00000000000E+00 -0.19807431317E+02  0.19807431317E+02  0.00000000000E+00 0. -1.
         25    2    1    2    0    0 -0.14061941794E+02  0.72008576801E+02  0.50720403538E+03  0.52750767768E+03  0.12500177264E+03 0.  0.
          2    1    1    2  501    0 -0.31410594042E+02 -0.75961543949E+02  0.18871589996E+03  0.20584089117E+03  0.00000000000E+00 0. -1.
          1    1    1    2  502    0  0.45472535836E+02  0.39529671477E+01  0.47538426675E+03  0.47757049588E+03  0.00000000000E+00 0. -1.
         22    1    3    3    0    0 -0.14538450952E+02  0.74185748926E+01  0.41279346450E+03  0.41311602020E+03  0.00000000000E+00 0. -1.
         22    1    3    3    0    0  0.47650915781E+00  0.64590001908E+02  0.94410570882E+02  0.11439165748E+03  0.00000000000E+00 0. -1.
</event>
<event>
 7    1  0.5977291E-006  0.3824890E+02  0.7818608E-02  0.1542770E+00
          2   -1    0    0  502    0  0.00000000000E+00  0.00000000000E+00  0.15276563723E+04  0.15276563723E+04  0.00000000000E+00 0. -1.
          1   -1    0    0  501    0 -0.00000000000E+00 -0.00000000000E+00 -0.66280266336E+03  0.66280266336E+03  0.00000000000E+00 0. -1.
         25    2    1    2    0    0 -0.46506517741E+02  0.39279095345E+02  0.72256459074E+03  0.73581787691E+03  0.12499062630E+03 0.  0.
          2    1    1    2  501    0  0.32930946526E+02 -0.46401644282E+01 -0.65532076120E+03  0.65616406365E+03  0.00000000000E+00 0. -1.
          1    1    1    2  502    0  0.13575571215E+02 -0.34638930917E+02  0.79760987943E+03  0.79847709512E+03  0.00000000000E+00 0. -1.
         22    1    3    3    0    0 -0.33668097861E+02  0.71392043243E+02  0.25407507114E+03  0.26605357811E+03  0.00000000000E+00 0.  1.
         22    1    3    3    0    0 -0.12838419880E+02 -0.32112947898E+02  0.46848951960E+03  0.46976429880E+03  0.00000000000E+00 0.  1.
</event>
<event>
 7    1  0.5977291E-006  0.5233056E+02  0.7818608E-02  0.1476395E+00
          2   -1    0    0  502    0  0.00000000000E+00  0.00000000000E+00  0.17403272225E+03  0.17403272225E+03  0.00000000000E+00 0. -1.
          1   -1    0    0  501    0 -0.00000000000E+00 -0.00000000000E+00 -0.24783432281E+03  0.24783432281E+03  0.00000000000E+00 0. -1.
         25    2    1    2    0    0 -0.40912031082E+02 -0.70228158381E+02 -0.30979778958E+02  0.15229079362E+03  0.12500780215E+03 0.  0.
          2    1    1    2  501    0  0.86438733300E+01  0.49903737686E+02 -0.14867408766E+03  0.15706394851E+03  0.00000000000E+00 0. -1.
          1    1    1    2  502    0  0.32268157752E+02  0.20324420695E+02  0.10585226605E+03  0.11251230293E+03  0.00000000000E+00 0. -1.
         22    1    3    3    0    0 -0.25555608425E+02 -0.97949271682E+02  0.85936382262E+01  0.10159232039E+03  0.00000000000E+00 0. -1.
         22    1    3    3    0    0 -0.15356422657E+02  0.27721113301E+02 -0.39573417184E+02  0.50698473223E+02  0.00000000000E+00 0. -1.
</event>
<event>
 7    1  0.5977291E-006  0.2409987E+03  0.7818608E-02  0.1310338E+00
          2   -1    0    0  502    0  0.00000000000E+00  0.00000000000E+00  0.46849291846E+03  0.46849291846E+03  0.00000000000E+00 0. -1.
          1   -1    0    0  501    0 -0.00000000000E+00 -0.00000000000E+00 -0.49970796752E+03  0.49970796752E+03  0.00000000000E+00 0. -1.
         25    2    1    2    0    0  0.24918311437E+03  0.96535118003E+02  0.12324979603E+03  0.31973133481E+03  0.12500544283E+03 0.  0.
          2    1    1    2  501    0 -0.22347222342E+03 -0.78525190064E+02 -0.36526539593E+03  0.43534451826E+03  0.00000000000E+00 0. -1.
          1    1    1    2  502    0 -0.25710890958E+02 -0.18009927940E+02  0.21080055084E+03  0.21312503291E+03  0.00000000000E+00 0. -1.
         22    1    3    3    0    0  0.17610199479E+03  0.99576669419E+02  0.13829322695E+03  0.24505599826E+03  0.00000000000E+00 0. -1.
         22    1    3    3    0    0  0.73081119585E+02 -0.30415514151E+01 -0.15043430920E+02  0.74675336549E+02  0.00000000000E+00 0. -1.
</event>
<event>
 7    1  0.5977291E-006  0.1354487E+03  0.7818608E-02  0.1277081E+00
          2   -1    0    0  502    0  0.00000000000E+00  0.00000000000E+00  0.17560427216E+04  0.17560427216E+04  0.00000000000E+00 0. -1.
          1   -1    0    0  501    0 -0.00000000000E+00 -0.00000000000E+00 -0.29217815629E+03  0.29217815629E+03  0.00000000000E+00 0. -1.
         25    2    1    2    0    0  0.15289958575E+03 -0.88268867892E+02 -0.10304904475E+03  0.23961358368E+03  0.12500354993E+03 0.  0.
          2    1    1    2  501    0 -0.73241163266E+02 -0.20762610968E+02 -0.10586108509E+03  0.13039142360E+03  0.00000000000E+00 0. -1.
          1    1    1    2  502    0 -0.79658422488E+02  0.10903147886E+03  0.16727746951E+04  0.16782158706E+04  0.00000000000E+00 0. -1.
         22    1    3    3    0    0 -0.20149923920E+02 -0.22418104603E+02 -0.66536680908E+01  0.30868465253E+02  0.00000000000E+00 0.  1.
         22    1    3    3    0    0  0.17304950967E+03 -0.65850763289E+02 -0.96395376658E+02  0.20874511842E+03  0.00000000000E+00 0.  1.
</event>
