<event>
 7    1  0.6888431E-006  0.6238712E+02  0.7818608E-02  0.1423755E+00
          2   -1    0    0  502    0  0.00000000000E+00  0.00000000000E+00  0.20871491827E+04  0.20871491827E+04  0.00000000000E+00 0. -1.
          1   -1    0    0  501    0 -0.00000000000E+00 -0.00000000000E+00 -0.35621794128E+03  0.35621794128E+03  0.00000000000E+00 0. -1.
         25    2    1    2    0    0  0.64654392500E+02  0.84642951466E+02  0.59484262836E+03  0.61709592786E+03  0.12500004785E+03 0.  0.
          2    1    1    2  501    0 -0.27295718463E+02 -0.55882374742E+02 -0.34191026153E+03  0.34752053608E+03  0.00000000000E+00 0. -1.
          1    1    1    2  502    0 -0.37358674037E+02 -0.28760576724E+02  0.14779988746E+04  0.14787506600E+04  0.00000000000E+00 0. -1.
         22    1    3    3    0    0 -0.16281503568E+02  0.18168332708E+02  0.16751511915E+02  0.29593729458E+02  0.00000000000E+00 0. -1.
         22    1    3    3    0    0  0.80935896068E+02  0.66474618758E+02  0.57809111645E+03  0.58750219840E+03  0.00000000000E+00 0. -1.
</event>
<event>
 7    1  0.6888431E-006  0.7160577E+02  0.7818608E-02  0.1477478E+00
          2   -1    0    0  502    0  0.00000000000E+00  0.00000000000E+00  0.18291137348E+04  0.18291137348E+04  0.00000000000E+00 0. -1.
          1   -1    0    0  501    0 -0.00000000000E+00 -0.00000000000E+00 -0.63085641029E+03  0.63085641029E+03  0.00000000000E+00 0. -1.
         25    2    1    2    0    0  0.91849811765E+02  0.23833177078E+02  0.10141094058E+02  0.15725873884E+03  0.12499224336E+03 0.  0.
          2    1    1    2  501    0 -0.64722469459E+02 -0.29218445008E+02 -0.55492531392E+03  0.55945046216E+03  0.00000000000E+00 0. -1.
          1    1    1    2  502    0 -0.27127342306E+02  0.53852679300E+01  0.17430415444E+04  0.17432609441E+04  0.00000000000E+00 0. -1.
         22    1    3    3    0    0 -0.12753706506E+02 -0.25340985245E+02 -0.23542188134E+02  0.36865392782E+02  0.00000000000E+00 0.  1.
         22    1    3    3    0    0  0.10460351827E+03  0.49174162322E+02  0.33683282192E+02  0.12039334605E+03  0.00000000000E+00 0.  1.
</event>
<event>
 7    1  0.6888431E-006  0.7989297E+02  0.7818608E-02  0.1437296E+00
          2   -1    0    0  502    0  0.00000000000E+00  0.00000000000E+00  0.21380290521E+04  0.21380290521E+04  0.00000000000E+00 0. -1.
          1   -1    0    0  501    0 -0.00000000000E+00 -0.00000000000E+00 -0.74460747040E+02  0.74460747040E+02  0.00000000000E+00 0. -1.
         25    2    1    2    0    0  0.42580451534E+02  0.64234490613E+02  0.11262630799E+03  0.18506289830E+03  0.12499770574E+03 0.  0.
          2    1    1    2  501    0  0.25242023530E+02 -0.21607606326E+02 -0.30059470567E+02  0.44806474686E+02  0.00000000000E+00 0. -1.
          1    1    1    2  502    0 -0.67822475064E+02 -0.42626884287E+02  0.19810014676E+04  0.19826204261E+04  0.00000000000E+00 0. -1.
         22    1    3    3    0    0  0.91491707260E+01  0.97356950618E+02  0.89777998844E+02  0.13274853007E+03  0.00000000000E+00 0. -1.
         22    1    3    3    0    0  0.33431280808E+02 -0.33122460005E+02  0.22848309142E+02  0.52314368236E+02  0.00000000000E+00 0. -1.
</event>
<event>
 7    1  0.6888431E-006  0.6374922E+02  0.7818608E-02  0.1491951E+00
          2   -1    0    0  502    0  0.00000000000E+00  0.00000000000E+00  0.21890554380E+03  0.21890554380E+03  0.00000000000E+00 0. -1.
          1   -1    0    0  501    0 -0.00000000000E+00 -0.00000000000E+00 -0.13517109719E+04  0.13517109719E+04  0.00000000000E+00 0. -1.
         25    2    1    2    0    0 -0.27333639295E+02  0.42593676266E+02 -0.30830593122E+03  0.33651144243E+03  0.12500421820E+03 0.  0.
          2    1    1    2  501    0  0.18777053601E+02  0.20858204412E+02 -0.10241013142E+04  0.10244857950E+04  0.00000000000E+00 0. -1.
          1    1    1    2  502    0  0.85565856937E+01 -0.63451880678E+02  0.19960181734E+03  0.20961927823E+03  0.00000000000E+00 0. -1.
         22    1    3    3    0    0 -0.30365895133E+02 -0.20402549259E+01 -0.28394599985E+03  0.28557237446E+03  0.00000000000E+00 0.  1.
         22    1    3    3    0    0  0.30322558384E+01  0.44633931192E+02 -0.24359931375E+02  0.50939067971E+02  0.00000000000E+00 0.  1.
</event>
<event>
 7    1  0.6888431E-006  0.2030247E+03  0.7818608E-02  0.1249127E+00
          2   -1    0    0  502    0  0.00000000000E+00  0.00000000000E+00  0.16384477830E+04  0.16384477830E+04  0.00000000000E+00 0. -1.
          1   -1    0    0  501    0 -0.00000000000E+00 -0.00000000000E+00 -0.90795941627E+03  0.90795941627E+03  0.00000000000E+00 0. -1.
         25    2    1    2    0    0 -0.13074996717E+03 -0.69232011469E+02  0.19792827141E+03  0.27692792346E+03  0.12499939536E+03 0.  0.
          2    1    1    2  501    0  0.16067430258E+03  0.12890478772E+03 -0.85543118155E+03  0.87988361853E+03  0.00000000000E+00 0. -1.
          1    1    1    2  502    0 -0.29924335413E+02 -0.59672776251E+02  0.13879912768E+04  0.13895956573E+04  0.00000000000E+00 0. -1.
         22    1    3    3    0    0 -0.90804828301E+01 -0.28189197415E+02 -0.11085638236E+02  0.31622419174E+02  0.00000000000E+00 0. -1.
         22    1    3    3    0    0 -0.12166948434E+03 -0.41042814054E+02  0.20901390965E+03  0.24530550428E+03  0.00000000000E+00 0. -1.
</event>
<event>
 7    1  0.6888431E-006  0.8349977E+02  0.7818608E-02  0.1397780E+00
          2   -1    0    0  502    0  0.00000000000E+00  0.00000000000E+00  0.37219498342E+03  0.37219498342E+03  0.00000000000E+00 0. -1.
          1   -1    0    0  501    0 -0.00000000000E+00 -0.00000000000E+00 -0.31813852516E+03  0.31813852516E+03  0.00000000000E+00 0. -1.
         25    2    1    2    0    0 -0.11334804253E+03 -0.11570041002E+02 -0.20197218334E+03  0.26343162349E+03  0.12498725061E+03 0.  0.
          2    1    1    2  501    0  0.37327709568E+02 -0.21609426087E+02 -0.74521746131E+02  0.86103518185E+02  0.00000000000E+00 0. -1.
          1    1    1    2  502    0  0.76020332962E+02  0.33179467089E+02  0.33055038773E+03  0.34079836691E+03  0.00000000000E+00 0. -1.
         22    1    3    3    0    0 -0.11954754349E+03  0.32959013117E+02 -0.15319548676E+03  0.19709583675E+03  0.00000000000E+00 0.  1.
         22    1    3    3    0    0  0.61995009608E+01 -0.44529054120E+02 -0.48776696578E+02  0.66335786737E+02  0.00000000000E+00 0.  1.
</event>
<event>
 7    1  0.6888431E-006  0.1603705E+03  0.7818608E-02  0.1392634E+00
          2   -1    0    0  502    0  0.00000000000E+00  0.00000000000E+00  0.74156549347E+03  0.74156549347E+03  0.00000000000E+00 0. -1.
          1   -1    0    0  501    0 -0.00000000000E+00 -0.00000000000E+00 -0.57599650334E+03  0.57599650334E+03  0.00000000000E+00 0. -1.
         25    2    1    2    0    0  0.17510932357E+03  0.26817070383E+02 -0.15300445459E+03  0.26536449976E+03  0.12500209656E+03 0.  0.
          2    1    1    2  501    0 -0.15474738061E+03 -0.15290834281E+02 -0.35011800068E+03  0.38309682303E+03  0.00000000000E+00 0. -1.
          1    1    1    2  502    0 -0.20361942963E+02 -0.11526236102E+02  0.66869144539E+03  0.66910067403E+03  0.00000000000E+00 0. -1.
         22    1    3    3    0    0 -0.12351911484E+02  0.21143641385E+02 -0.38494038761E+02  0.45622519752E+02  0.00000000000E+00 0.  1.
         22    1    3    3    0    0  0.18746123505E+03  0.56734289980E+01 -0.11451041583E+03  0.21974198001E+03  0.00000000000E+00 0.  1.
</event>
<event>
 7    1  0.9810975E-006  0.5895943E+02  0.7818608E-02  0.1468584E+00
          2   -1    0    0  502    0  0.00000000000E+00  0.00000000000E+00  0.11859384589E+04  0.11859384589E+04  0.00000000000E+00 0. -1.
          1   -1    0    0  501    0 -0.00000000000E+00 -0.00000000000E+00 -0.94739820749E+03  0.94739820749E+03  0.00000000000E+00 0. -1.
         25    2    1    2    0    0  0.26511188807E+02  0.61148081798E+02 -0.26079350129E+03  0.29678292295E+03  0.12499968801E+03 0.  0.
          2    1    1    2  501    0  0.22267853559E+02 -0.28017254524E+02 -0.66738597615E+03  0.66834486982E+03  0.00000000000E+00 0. -1.
          1    1    1    2  502    0 -0.48779042366E+02 -0.33130827273E+02  0.11667197289E+04  0.11682088737E+04  0.00000000000E+00 0. -1.
         22    1    3    3    0    0  0.22986987645E+02  0.41556220744E+02 -0.27049932692E+03  0.27463649967E+03  0.00000000000E+00 0. -1.
         22    1    3    3    0    0  0.35242011613E+01  0.19591861054E+02  0.97058256290E+01  0.22146423289E+02  0.00000000000E+00 0. -1.
</event>
<event>
 7    1  0.6888431E-006  0.1752799E+03  0.7818608E-02  0.1238930E+00
          2   -1    0    0  502    0  0.00000000000E+00  0.00000000000E+00  0.32955648525E+03  0.32955648525E+03  0.00000000000E+00 0. -1.
          1   -1    0    0  501    0 -0.00000000000E+00 -0.00000000000E+00 -0.24756298950E+04  0.24756298950E+04  0.00000000000E+00 0. -1.
         25    2    1    2    0    0  0.20044251798E+03 -0.11202331921E+02  0.15356907235E+03  0.28197635352E+03  0.12499803480E+03 0.  0.
          2    1    1    2  501    0 -0.51163075950E+02  0.68751277942E+02 -0.23529989420E+04  0.23545590711E+04  0.00000000000E+00 0. -1.
          1    1    1    2  502    0 -0.14927944203E+03 -0.57548946021E+02  0.53356459904E+02  0.16865095557E+03  0.00000000000E+00 0. -1.
         22    1    3    3    0    0  0.52077104593E+02 -0.13381305270E+02 -0.16531258004E+02  0.56252703444E+02  0.00000000000E+00 0. -1.
         22    1    3    3    0    0  0.14836541339E+03  0.21789733494E+01  0.17010033036E+03  0.22572365007E+03  0.00000000000E+00 0. -1.
</event>
<event>
 7    1  0.6888431E-006  0.6318833E+02  0.7818608E-02  0.1426334E+00
          2   -1    0    0  502    0  0.00000000000E+00  0.00000000000E+00  0.22245318546E+04  0.22245318546E+04  0.00000000000E+00 0. -1.
          1   -1    0    0  501    0 -0.00000000000E+00 -0.00000000000E+00 -0.10689922809E+03  0.10689922809E+03  0.00000000000E+00 0. -1.
         25    2    1    2    0    0  0.17789110949E+02 -0.44540920345E+02  0.16036825117E+03  0.20891131783E+03  0.12500246670E+03 0.  0.
          2    1    1    2  501    0 -0.43490320707E+02 -0.13847207131E+02 -0.75786145475E+02  0.88468598873E+02  0.00000000000E+00 0. -1.
          1    1    1    2  502    0  0.25701209758E+02  0.58388127476E+02  0.20330505208E+04  0.20340511660E+04  0.00000000000E+00 0. -1.
         22    1    3    3    0    0  0.52718831618E+02 -0.69840369540E+01  0.14639169453E+03  0.15575166197E+03  0.00000000000E+00 0.  1.
         22    1    3    3    0    0 -0.34929720670E+02 -0.37556883391E+02  0.13976556642E+02  0.53159655864E+02  0.00000000000E+00 0.  1.
</event>
<event>
 7    1  0.6888431E-006  0.3199945E+02  0.7818608E-02  0.1591159E+00
          2   -1    0    0  502    0  0.00000000000E+00  0.00000000000E+00  0.21792185137E+03  0.21792185137E+03  0.00000000000E+00 0. -1.
          1   -1    0    0  501    0 -0.00000000000E+00 -0.00000000000E+00 -0.59704347441E+03  0.59704347441E+03  0.00000000000E+00 0. -1.
         25    2    1    2    0    0 -0.37478113564E+01 -0.26864086133E+00 -0.39429415745E+02  0.13113260031E+03  0.12500784687E+03 0.  0.
          2    1    1    2  501    0 -0.25459771012E+02  0.14564837585E+02 -0.50980076020E+03  0.51064385782E+03  0.00000000000E+00 0. -1.
          1    1    1    2  502    0  0.29207582368E+02 -0.14296196724E+02  0.17010855290E+03  0.17318886765E+03  0.00000000000E+00 0. -1.
         22    1    3    3    0    0 -0.50978903286E+02 -0.22698272558E+02 -0.53161846394E+02  0.77072965879E+02  0.00000000000E+00 0. -1.
         22    1    3    3    0    0  0.47231091930E+02  0.22429631696E+02  0.13732430649E+02  0.54059634427E+02  0.00000000000E+00 0. -1.
</event>
<event>
 7    1  0.6888431E-006  0.5947406E+02  0.7818608E-02  0.1457177E+00
          2   -1    0    0  502    0  0.00000000000E+00  0.00000000000E+00  0.55360525526E+03  0.55360525526E+03  0.00000000000E+00 0. -1.
          1   -1    0    0  501    0 -0.00000000000E+00 -0.00000000000E+00 -0.85361294157E+03  0.85361294157E+03  0.00000000000E+00 0. -1.
         25    2    1    2    0    0 -0.30920146048E+02  0.27915982162E+02  0.26706343379E+03  0.29779852162E+03  0.12500289726E+03 0.  0.
          2    1    1    2  501    0  0.81707818978E+01 -0.59014572241E+02 -0.83581095345E+03  0.83793163881E+03  0.00000000000E+00 0. -1.
          1    1    1    2  502    0  0.22749364150E+02  0.31098590079E+02  0.26873983335E+03  0.27148803639E+03  0.00000000000E+00 0. -1.
         22    1    3    3    0    0 -0.72781821162E+02  0.28964254554E+02  0.22583181401E+03  0.23903165011E+03  0.00000000000E+00 0. -1.
         22    1    3    3    0    0  0.41861675114E+02 -0.10482723925E+01  0.41231619773E+02  0.58766871513E+02  0.00000000000E+00 0. -1.
</event>
<event>
 7    1  0.6888431E-006  0.7154349E+02  0.7818608E-02  0.1396829E+00
          2   -1    0    0  502    0  0.00000000000E+00  0.00000000000E+00  0.13052413722E+04  0.13052413722E+04  0.00000000000E+00 0. -1.
          1   -1    0    0  501    0 -0.00000000000E+00 -0.00000000000E+00 -0.37486197286E+03  0.37486197286E+03  0.00000000000E+00 0. -1.
         25    2    1    2    0    0  0.22098772074E+02  0.11351404591E+03  0.74695343020E+02  0.18595219598E+03  0.12500012230E+03 0.  0.
          2    1    1    2  501    0  0.43000527469E+01 -0.70203604379E+02 -0.31480348409E+03  0.32256514089E+03  0.00000000000E+00 0. -1.
          1    1    1    2  502    0 -0.26398824821E+02 -0.43310441530E+02  0.11704875404E+04  0.11715860082E+04  0.00000000000E+00 0. -1.
         22    1    3    3    0    0 -0.33341613972E+01  0.12325915766E+03  0.91858605079E+02  0.15375935714E+03  0.00000000000E+00 0. -1.
         22    1    3    3    0    0  0.25432933472E+02 -0.97451117555E+01 -0.17163262060E+02  0.32192838841E+02  0.00000000000E+00 0. -1.
</event>
<event>
 7    1  0.6888431E-006  0.6624627E+02  0.7818608E-02  0.1415996E+00
          2   -1    0    0  502    0  0.00000000000E+00  0.00000000000E+00  0.10276322008E+03  0.10276322008E+03  0.00000000000E+00 0. -1.
          1   -1    0    0  501    0 -0.00000000000E+00 -0.00000000000E+00 -0.89013244581E+03  0.89013244581E+03  0.00000000000E+00 0. -1.
         25    2    1    2    0    0 -0.22140968499E+02  0.38165618056E+02 -0.68903137475E+03  0.70166949892E+03  0.12501605269E+03 0.  0.
          2    1    1    2  501    0 -0.42111499417E+02 -0.54295971893E+02 -0.17612420824E+03  0.18905334611E+03  0.00000000000E+00 0. -1.
          1    1    1    2  502    0  0.64252467916E+02  0.16130353837E+02  0.77786357254E+02  0.10217282086E+03  0.00000000000E+00 0. -1.
         22    1    3    3    0    0  0.76933507394E+01  0.56088407856E+02 -0.63422039286E+03  0.63674218005E+03  0.00000000000E+00 0.  1.
         22    1    3    3    0    0 -0.29834319238E+02 -0.17922789800E+02 -0.54810981894E+02  0.64927318863E+02  0.00000000000E+00 0.  1.
</event>
<event>
 7    1  0.7322625E-006  0.4775040E+02  0.7818608E-02  0.1521657E+00
          2   -1    0    0  502    0  0.00000000000E+00  0.00000000000E+00  0.99537062129E+03  0.99537062129E+03  0.00000000000E+00 0. -1.
          1   -1    0    0  501    0 -0.00000000000E+00 -0.00000000000E+00 -0.10713904538E+04  0.10713904538E+04  0.00000000000E+00 0. -1.
         25    2    1    2    0    0  0.23251783516E+02  0.34359481341E+01 -0.31697330000E+03  0.34153093982E+03  0.12497543265E+03 0.  0.
          2    1    1    2  501    0  0.20469563804E+02 -0.22755496402E+02 -0.74124129563E+03  0.74187295004E+03  0.00000000000E+00 0. -1.
          1    1    1    2  502    0 -0.43721347321E+02  0.19319548268E+02  0.98219476308E+03  0.98335718525E+03  0.00000000000E+00 0. -1.
         22    1    3    3    0    0 -0.38292762896E+01 -0.21530960491E+02 -0.30030671354E+03  0.30110192263E+03  0.00000000000E+00 0.  1.
         22    1    3    3    0    0  0.27081059806E+02  0.24966908626E+02 -0.16666586463E+02  0.40429017189E+02  0.00000000000E+00 0.  1.
</event>
<event>
 7    1  0.6888431E-006  0.6014462E+02  0.7818608E-02  0.1461091E+00
          2   -1    0    0  502    0  0.00000000000E+00  0.00000000000E+00  0.22129042590E+04  0.22129042590E+04  0.00000000000E+00 0. -1.
          1   -1    0    0  501    0 -0.00000000000E+00 -0.00000000000E+00 -0.87502777283E+02  0.87502777283E+02  0.00000000000E+00 0. -1.
         25    2    1    2    0    0  0.51187459436E+02  0.10727674966E+02  0.22385227569E+02  0.13733800335E+03  0.12500155894E+03 0.  0.
          2    1    1    2  501    0 -0.62131443865E+02  0.24650490634E+02  0.75413101697E+01  0.67266889064E+02  0.00000000000E+00 0. -1.
          1    1    1    2  502    0  0.10943984429E+02 -0.35378165600E+02  0.20954749440E+04  0.20958021439E+04  0.00000000000E+00 0. -1.
         22    1    3    3    0    0  0.51530542252E+02  0.53381224007E+02 -0.20373133066E+02  0.76941642900E+02  0.00000000000E+00 0.  1.
         22    1    3    3    0    0 -0.34308281576E+00 -0.42653549041E+02  0.42758360634E+02  0.60396360451E+02  0.00000000000E+00 0.  1.
</event>
<event>
 7    1  0.6888431E-006  0.4882009E+02  0.7818608E-02  0.1486171E+00
          2   -1    0    0  502    0  0.00000000000E+00  0.00000000000E+00  0.10782773886E+03  0.10782773886E+03  0.00000000000E+00 0. -1.
          1   -1    0    0  501    0 -0.00000000000E+00 -0.00000000000E+00 -0.26954671913E+03  0.26954671913E+03  0.00000000000E+00 0. -1.
         25    2    1    2    0    0  0.77481911593E+02  0.19106063383E+00 -0.18172072298E+02  0.14817536776E+03  0.12498892859E+03 0.  0.
          2    1    1    2  501    0 -0.43970665974E+02 -0.18433975207E+02 -0.17397923574E+03  0.18039402811E+03  0.00000000000E+00 0. -1.
          1    1    1    2  502    0 -0.33511245619E+02  0.18242914574E+02  0.30432327772E+02  0.48805062122E+02  0.00000000000E+00 0. -1.
         22    1    3    3    0    0 -0.11462814866E+02 -0.26130235604E+02  0.31872356860E+02  0.42778878774E+02  0.00000000000E+00 0. -1.
         22    1    3    3    0    0  0.88944726459E+02  0.26321296237E+02 -0.50044429157E+02  0.10539648898E+03  0.00000000000E+00 0. -1.
</event>
<event>
 7    1  0.6888431E-006  0.4585657E+02  0.7818608E-02  0.1479963E+00
          2   -1    0    0  502    0  0.00000000000E+00  0.00000000000E+00  0.53966043045E+03  0.53966043045E+03  0.00000000000E+00 0. -1.
          1   -1    0    0  501    0 -0.00000000000E+00 -0.00000000000E+00 -0.39988174564E+03  0.39988174564E+03  0.00000000000E+00 0. -1.
         25    2    1    2    0    0 -0.75075572790E+02  0.42458970818E+02  0.22963266900E+03  0.27531088797E+03  0.12500326607E+03 0.  0.
          2    1    1    2  501    0  0.34574892234E+02 -0.29798011335E+02 -0.37408042069E+03  0.37685475424E+03  0.00000000000E+00 0. -1.
          1    1    1    2  502    0  0.40500680556E+02 -0.12660959483E+02  0.28422643650E+03  0.28737653388E+03  0.00000000000E+00 0. -1.
         22    1    3    3    0    0  0.24726208565E+01  0.53606566599E+02  0.31440320901E+02  0.62195430819E+02  0.00000000000E+00 0.  1.
         22    1    3    3    0    0 -0.77548193646E+02 -0.11147595781E+02  0.19819234810E+03  0.21311545715E+03  0.00000000000E+00 0.  1.
</event>
<event>
 7    1  0.6888431E-006  0.6934187E+02  0.7818608E-02  0.1365963E+00
          2   -1    0    0  502    0  0.00000000000E+00  0.00000000000E+00  0.22030645135E+04  0.22030645135E+04  0.00000000000E+00 0. -1.
          1   -1    0    0  501    0 -0.00000000000E+00 -0.00000000000E+00 -0.79312181509E+02  0.79312181509E+02  0.00000000000E+00 0. -1.
         25    2    1    2    0    0 -0.44280008479E+02  0.10576940166E+03  0.24518066751E+03  0.29813722475E+03  0.12499743830E+03 0.  0.
          2    1    1    2  501    0 -0.11871656287E+02 -0.66222546398E+02 -0.30545249290E+02  0.73887577634E+02  0.00000000000E+00 0. -1.
          1    1    1    2  502    0  0.56151664766E+02 -0.39546855266E+02  0.19091169138E+04  0.19103518927E+04  0.00000000000E+00 0. -1.
         22    1    3    3    0    0  0.41603042588E+02  0.30243499108E+02  0.48913305798E+02  0.70978826949E+02  0.00000000000E+00 0. -1.
         22    1    3    3    0    0 -0.85883051067E+02  0.75525902556E+02  0.19626736172E+03  0.22715839780E+03  0.00000000000E+00 0. -1.
</event>
<event>
 7    1  0.6888431E-006  0.5200523E+02  0.7818608E-02  0.1439987E+00
          2   -1    0    0  502    0  0.00000000000E+00  0.00000000000E+00  0.35375073577E+04  0.35375073577E+04  0.00000000000E+00 0. -1.
          1   -1    0    0  501    0 -0.00000000000E+00 -0.00000000000E+00 -0.88821087982E+02  0.88821087982E+02  0.00000000000E+00 0. -1.
         25    2    1    2    0    0  0.72430653296E+01  0.15683021078E+01  0.10676167907E+03  0.16455161765E+03  0.12499702871E+03 0.  0.
          2    1    1    2  501    0 -0.92352004710E+01 -0.53535365140E+02 -0.47373171963E+02  0.72080105926E+02  0.00000000000E+00 0. -1.
          1    1    1    2  502    0  0.19921351413E+01  0.51967063033E+02  0.33892977626E+04  0.33896967221E+04  0.00000000000E+00 0. -1.
         22    1    3    3    0    0 -0.40158444925E+01  0.12355026392E+02  0.13321395695E+03  0.13384592639E+03  0.00000000000E+00 0. -1.
         22    1    3    3    0    0  0.11258909822E+02 -0.10786724284E+02 -0.26452277876E+02  0.30705691264E+02  0.00000000000E+00 0. -1.
</event>
<event>
 7    1  0.6888431E-006  0.5959807E+02  0.7818608E-02  0.1484434E+00
          2   -1    0    0  502    0  0.00000000000E+00  0.00000000000E+00  0.38758140880E+03  0.38758140880E+03  0.00000000000E+00 0. -1.
          1   -1    0    0  501    0 -0.00000000000E+00 -0.00000000000E+00 -0.46157891005E+03  0.46157891005E+03  0.00000000000E+00 0. -1.
         25    2    1    2    0    0 -0.60251646941E+02  0.35079804128E+02  0.17407282882E+03  0.22535845301E+03  0.12499691593E+03 0.  0.
          2    1    1    2  501    0  0.32360688896E+02 -0.50014639862E+02 -0.43254806001E+03  0.43663085393E+03  0.00000000000E+00 0. -1.
          1    1    1    2  502    0  0.27890958045E+02  0.14934835734E+02  0.18447772993E+03  0.18717101191E+03  0.00000000000E+00 0. -1.
         22    1    3    3    0    0 -0.34667110950E+01  0.49138098881E+02  0.88027707396E+01  0.50040579735E+02  0.00000000000E+00 0.  1.
         22    1    3    3    0    0 -0.56784935846E+02 -0.14058294754E+02  0.16527005808E+03  0.17531787327E+03  0.00000000000E+00 0.  1.
</event>
<event>
 7    1  0.6888431E-006  0.6434567E+02  0.7818608E-02  0.1434978E+00
          2   -1    0    0  502    0  0.00000000000E+00  0.00000000000E+00  0.65251153975E+03  0.65251153975E+03  0.00000000000E+00 0. -1.
          1   -1    0    0  501    0 -0.00000000000E+00 -0.00000000000E+00 -0.26113242176E+03  0.26113242176E+03  0.00000000000E+00 0. -1.
         25    2    1    2    0    0 -0.41470268542E+02 -0.28222208774E+02  0.84671944112E+02  0.15909236189E+03  0.12499906100E+03 0.  0.
          2    1    1    2  501    0  0.17786282789E+02  0.62883832491E+02 -0.21829833830E+03  0.22787034197E+03  0.00000000000E+00 0. -1.
          1    1    1    2  502    0  0.23683985753E+02 -0.34661623717E+02  0.52500551218E+03  0.52668125765E+03  0.00000000000E+00 0. -1.
         22    1    3    3    0    0 -0.44614881036E+02 -0.74992717441E+02  0.48113903731E+02  0.99646088791E+02  0.00000000000E+00 0.  1.
         22    1    3    3    0    0  0.31446124943E+01  0.46770508667E+02  0.36558040380E+02  0.59446273097E+02  0.00000000000E+00 0.  1.
</event>
<event>
 7    1  0.6888431E-006  0.1264958E+03  0.7818608E-02  0.1301048E+00
          2   -1    0    0  502    0  0.00000000000E+00  0.00000000000E+00  0.58569369703E+03  0.58569369703E+03  0.00000000000E+00 0. -1.
          1   -1    0    0  501    0 -0.00000000000E+00 -0.00000000000E+00 -0.60798214007E+03  0.60798214007E+03  0.00000000000E+00 0. -1.
         25    2    1    2    0    0  0.17369252397E+03 -0.67299057530E+02  0.15490592152E+03  0.27261606017E+03  0.12500166284E+03 0.  0.
          2    1    1    2  501    0 -0.12118832030E+03  0.28804483229E+02 -0.53912098745E+03  0.55332426871E+03  0.00000000000E+00 0. -1.
          1    1    1    2  502    0 -0.52504203668E+02  0.38494574301E+02  0.36192662289E+03  0.36773550822E+03  0.00000000000E+00 0. -1.
         22    1    3    3    0    0 -0.97736713726E+01 -0.34048012262E+02  0.11017916035E+02  0.37096984579E+02  0.00000000000E+00 0. -1.
         22    1    3    3    0    0  0.18346619534E+03 -0.33251045267E+02  0.14388800549E+03  0.23551907559E+03  0.00000000000E+00 0. -1.
</event>
<event>
 7    1  0.6888431E-006  0.6353440E+02  0.7818608E-02  0.1485224E+00
          2   -1    0    0  502    0  0.00000000000E+00  0.00000000000E+00  0.73735354981E+03  0.73735354981E+03  0.00000000000E+00 0. -1.
          1   -1    0    0  501    0 -0.00000000000E+00 -0.00000000000E+00 -0.11048018632E+03  0.11048018632E+03  0.00000000000E+00 0. -1.
         25    2    1    2    0    0 -0.86496311325E+02 -0.32051330308E+02  0.36372704151E+03  0.39551189589E+03  0.12499359751E+03 0.  0.
          2    1    1    2  501    0  0.58585539973E+02  0.22457668604E+02 -0.83486575709E+02  0.10443476766E+03  0.00000000000E+00 0. -1.
          1    1    1    2  502    0  0.27910771352E+02  0.95936617041E+01  0.34663289769E+03  0.34788707257E+03  0.00000000000E+00 0. -1.
         22    1    3    3    0    0 -0.57451020983E+02  0.41195997943E+02  0.11902837790E+03  0.13843946260E+03  0.00000000000E+00 0.  1.
         22    1    3    3    0    0 -0.29045290342E+02 -0.73247328251E+02  0.24469866361E+03  0.25707243329E+03  0.00000000000E+00 0.  1.
</event>
<event>
 7    1  0.6888431E-006  0.3236794E+02  0.7818608E-02  0.1645748E+00
          2   -1    0    0  502    0  0.00000000000E+00  0.00000000000E+00  0.63592442411E+03  0.63592442411E+03  0.00000000000E+00 0. -1.
          1   -1    0    0  501    0 -0.00000000000E+00 -0.00000000000E+00 -0.13699270726E+03  0.13699270726E+03  0.00000000000E+00 0. -1.
         25    2    1    2    0    0  0.29095509534E+02 -0.39769034787E+02  0.19713264837E+03  0.23856746384E+03  0.12500011578E+03 0.  0.
          2    1    1    2  501    0 -0.10175026953E+02  0.30569204012E+02 -0.11377228945E+03  0.11824610460E+03  0.00000000000E+00 0. -1.
          1    1    1    2  502    0 -0.18920482581E+02  0.91998307749E+01  0.41557135794E+03  0.41610356293E+03  0.00000000000E+00 0. -1.
         22    1    3    3    0    0 -0.16160069739E+02 -0.55518829654E+02  0.30890093652E+02  0.65556740202E+02  0.00000000000E+00 0.  1.
         22    1    3    3    0    0  0.45255579274E+02  0.15749794866E+02  0.16624255472E+03  0.17301072363E+03  0.00000000000E+00 0.  1.
</event>
<event>
 7    1  0.6888431E-006  0.1841567E+03  0.7818608E-02  0.1171495E+00
          2   -1    0    0  502    0  0.00000000000E+00  0.00000000000E+00  0.18225401668E+04  0.18225401668E+04  0.00000000000E+00 0. -1.
          1   -1    0    0  501    0 -0.00000000000E+00 -0.00000000000E+00 -0.15297751863E+04  0.15297751863E+04  0.00000000000E+00 0. -1.
         25    2    1    2    0    0  0.98614495401E+02  0.21645262987E+03  0.17079087133E+03  0.31838922444E+03  0.12500246729E+03 0.  0.
          2    1    1    2  501    0 -0.16305206893E+03 -0.43121607526E+02 -0.14456388033E+04  0.14554439185E+04  0.00000000000E+00 0. -1.
          1    1    1    2  502    0  0.64437573531E+02 -0.17333102235E+03  0.15676129126E+04  0.15784822102E+04  0.00000000000E+00 0. -1.
         22    1    3    3    0    0  0.10278422997E+03  0.90965377337E+02  0.55909607184E+02  0.14820655174E+03  0.00000000000E+00 0.  1.
         22    1    3    3    0    0 -0.41697345660E+01  0.12548725254E+03  0.11488126414E+03  0.17018267270E+03  0.00000000000E+00 0.  1.
</event>
<event>
 7    1  0.6888431E-006  0.9350752E+02  0.7818608E-02  0.1347270E+00
          2   -1    0    0  502    0  0.00000000000E+00  0.00000000000E+00  0.25467274245E+04  0.25467274245E+04  0.00000000000E+00 0. -1.
          1   -1    0    0  501    0 -0.00000000000E+00 -0.00000000000E+00 -0.41722833359E+03  0.41722833359E+03  0.00000000000E+00 0. -1.
         25    2    1    2    0    0  0.14552743802E+03  0.20813924932E+02 -0.50962938193E+02  0.19958377064E+03  0.12500002299E+03 0.  0.
          2    1    1    2  501    0 -0.52500773593E+02 -0.25633958787E+02 -0.28814480788E+03  0.29400826753E+03  0.00000000000E+00 0. -1.
          1    1    1    2  502    0 -0.93026664425E+02  0.48200338548E+01  0.24686068370E+04  0.24703637199E+04  0.00000000000E+00 0. -1.
         22    1    3    3    0    0  0.16183158727E+03  0.23450596554E+02 -0.66857740438E+02  0.17666168395E+03  0.00000000000E+00 0.  1.
         22    1    3    3    0    0 -0.16304149255E+02 -0.26366716219E+01  0.15894802245E+02  0.22922086698E+02  0.00000000000E+00 0.  1.
</event>
<event>
 7    1  0.6888431E-006  0.1018706E+03  0.7818608E-02  0.1309681E+00
          2   -1    0    0  502    0  0.00000000000E+00  0.00000000000E+00  0.10775638778E+04  0.10775638778E+04  0.00000000000E+00 0. -1.
          1   -1    0    0  501    0 -0.00000000000E+00 -0.00000000000E+00 -0.10919119175E+03  0.10919119175E+03  0.00000000000E+00 0. -1.
         25    2    1    2    0    0  0.23232146010E+02 -0.54400745002E+02  0.46112201481E+03  0.48141563453E+03  0.12501330715E+03 0.  0.
          2    1    1    2  501    0  0.34564520522E+02 -0.66230980500E+02 -0.76222908119E+02  0.10672947381E+03  0.00000000000E+00 0. -1.
          1    1    1    2  502    0 -0.57796666532E+02  0.12063172550E+03  0.58347357936E+03  0.59860996122E+03  0.00000000000E+00 0. -1.
         22    1    3    3    0    0 -0.19486543693E+02  0.34283508788E+02  0.11533328009E+03  0.12188867813E+03  0.00000000000E+00 0. -1.
         22    1    3    3    0    0  0.42718689703E+02 -0.88684253790E+02  0.34578873472E+03  0.35952695640E+03  0.00000000000E+00 0. -1.
</event>
<event>
 7    1  0.6888431E-006  0.9727132E+02  0.7818608E-02  0.1420943E+00
          2   -1    0    0  502    0  0.00000000000E+00  0.00000000000E+00  0.52335573112E+03  0.52335573112E+03  0.00000000000E+00 0. -1.
          1   -1    0    0  501    0 -0.00000000000E+00 -0.00000000000E+00 -0.10728075638E+04  0.10728075638E+04  0.00000000000E+00 0. -1.
         25    2    1    2    0    0 -0.48437183015E+02  0.82362310741E+02 -0.29471152021E+03  0.33408087584E+03  0.12500176210E+03 0.  0.
          2    1    1    2  501    0  0.20719931797E+02 -0.96015247420E+02 -0.75475209422E+03  0.76111692074E+03  0.00000000000E+00 0. -1.
          1    1    1    2  502    0  0.27717251218E+02  0.13652936678E+02  0.50001178172E+03  0.50096549837E+03  0.00000000000E+00 0. -1.
         22    1    3    3    0    0 -0.90347653416E+02  0.46690659049E+02 -0.20483978105E+03  0.22869641891E+03  0.00000000000E+00 0.  1.
         22    1    3    3    0    0  0.41910470401E+02  0.35671651693E+02 -0.89871739157E+02  0.10538445693E+03  0.00000000000E+00 0.  1.
</event>
<event>
 7    1  0.6888431E-006  0.4860317E+02  0.7818608E-02  0.1486960E+00
          2   -1    0    0  502    0  0.00000000000E+00  0.00000000000E+00  0.14236248557E+04  0.14236248557E+04  0.00000000000E+00 0. -1.
          1   -1    0    0  501    0 -0.00000000000E+00 -0.00000000000E+00 -0.13695605771E+04  0.13695605771E+04  0.00000000000E+00 0. -1.
         25    2    1    2    0    0  0.63823397283E+02 -0.33017640582E+01  0.13042058008E+03  0.19161810681E+03  0.12499457373E+03 0.  0.
          2    1    1    2  501    0 -0.37519324621E+02  0.30883970283E+02 -0.13382330591E+04  0.13391150958E+04  0.00000000000E+00 0. -1.
          1    1    1    2  502    0 -0.26304072662E+02 -0.27582206225E+02  0.12618767575E+04  0.12624522302E+04  0.00000000000E+00 0. -1.
         22    1    3    3    0    0 -0.18949394702E+02 -0.44099226916E+02  0.41123211547E+02  0.63205536957E+02  0.00000000000E+00 0. -1.
         22    1    3    3    0    0  0.82772791985E+02  0.40797462857E+02  0.89297368531E+02  0.12841256985E+03  0.00000000000E+00 0. -1.
</event>
<event>
 7    1  0.6888431E-006  0.8409252E+02  0.7818608E-02  0.1331014E+00
          2   -1    0    0  502    0  0.00000000000E+00  0.00000000000E+00  0.13243434209E+03  0.13243434209E+03  0.00000000000E+00 0. -1.
          1   -1    0    0  501    0 -0.00000000000E+00 -0.00000000000E+00 -0.62295867347E+03  0.62295867347E+03  0.00000000000E+00 0. -1.
         25    2    1    2    0    0 -0.13081781925E+03 -0.70815566697E+02 -0.26887095472E+03  0.33172977871E+03  0.12499963788E+03 0.  0.
          2    1    1    2  501    0  0.69307835066E+02  0.28246016103E+02 -0.30361159914E+03  0.31270020236E+03  0.00000000000E+00 0. -1.
          1    1    1    2  502    0  0.61509984182E+02  0.42569550594E+02  0.81958222472E+02  0.11096303449E+03  0.00000000000E+00 0. -1.
         22    1    3    3    0    0 -0.30386389172E+02 -0.13603090514E+02 -0.18736044651E+03  0.19029533267E+03  0.00000000000E+00 0. -1.
         22    1    3    3    0    0 -0.10043143008E+03 -0.57212476182E+02 -0.81510508207E+02  0.14143444604E+03  0.00000000000E+00 0. -1.
</event>
<event>
 7    1  0.6888431E-006  0.3814614E+02  0.7818608E-02  0.1619785E+00
          2   -1    0    0  502    0  0.00000000000E+00  0.00000000000E+00  0.14987353719E+03  0.14987353719E+03  0.00000000000E+00 0. -1.
          1   -1    0    0  501    0 -0.00000000000E+00 -0.00000000000E+00 -0.19650815352E+03  0.19650815352E+03  0.00000000000E+00 0. -1.
         25    2    1    2    0    0 -0.24028745217E+02  0.16533564176E+02 -0.98024485810E+02  0.16150704093E+03  0.12499994044E+03 0.  0.
          2    1    1    2  501    0  0.17961908126E+02 -0.36363309846E+02 -0.59530033179E+02  0.72032945912E+02  0.00000000000E+00 0. -1.
          1    1    1    2  502    0  0.60668370901E+01  0.19829745670E+02  0.11091990266E+03  0.11284170387E+03  0.00000000000E+00 0. -1.
         22    1    3    3    0    0 -0.75002182082E+02  0.95849350560E+01 -0.69409030939E+02  0.10263923165E+03  0.00000000000E+00 0. -1.
         22    1    3    3    0    0  0.50973436866E+02  0.69486291201E+01 -0.28615454871E+02  0.58867809285E+02  0.00000000000E+00 0. -1.
</event>
<event>
 7    1  0.6888431E-006  0.7218124E+02  0.7818608E-02  0.1377809E+00
          2   -1    0    0  502    0  0.00000000000E+00  0.00000000000E+00  0.90702923964E+03  0.90702923964E+03  0.00000000000E+00 0. -1.
          1   -1    0    0  501    0 -0.00000000000E+00 -0.00000000000E+00 -0.10053933951E+04  0.10053933951E+04  0.00000000000E+00 0. -1.
         25    2    1    2    0    0  0.15468760296E+02  0.83269468764E+01 -0.87720615391E+02  0.15371508920E+03  0.12499920677E+03 0.  0.
          2    1    1    2  501    0  0.57331132848E+02 -0.12182865287E+02 -0.88218123720E+03  0.88412613142E+03  0.00000000000E+00 0. -1.
          1    1    1    2  502    0 -0.72799893145E+02  0.38559184107E+01  0.87153769709E+03  0.87458141416E+03  0.00000000000E+00 0. -1.
         22    1    3    3    0    0  0.29060095049E+02  0.55005328126E+02 -0.11431224225E+02  0.63251467444E+02  0.00000000000E+00 0. -1.
         22    1    3    3    0    0 -0.13591334753E+02 -0.46678381249E+02 -0.76289391166E+02  0.90463621754E+02  0.00000000000E+00 0. -1.
</event>
<event>
 7    1  0.6888431E-006  0.4806327E+03  0.7818608E-02  0.1131195E+00
          2   -1    0    0  502    0  0.00000000000E+00  0.00000000000E+00  0.29665345822E+04  0.29665345822E+04  0.00000000000E+00 0. -1.
          1   -1    0    0  501    0 -0.00000000000E+00 -0.00000000000E+00 -0.75401878477E+03  0.75401878477E+03  0.00000000000E+00 0. -1.
         25    2    1    2    0    0 -0.32637867399E+03  0.28398468739E+03  0.42578875815E+03  0.61974483145E+03  0.12496898830E+03 0.  0.
          2    1    1    2  501    0  0.30296100129E+03 -0.38538004157E+03 -0.56429541195E+03  0.74748408458E+03  0.00000000000E+00 0. -1.
          1    1    1    2  502    0  0.23417672695E+02  0.10139535418E+03  0.23510224512E+04  0.23533244509E+04  0.00000000000E+00 0. -1.
         22    1    3    3    0    0 -0.31589543905E+03  0.27291033185E+03  0.35701048113E+03  0.54929633285E+03  0.00000000000E+00 0. -1.
         22    1    3    3    0    0 -0.10483234940E+02  0.11074355533E+02  0.68778277019E+02  0.70448498599E+02  0.00000000000E+00 0. -1.
</event>
<event>
 7    1  0.6888431E-006  0.1190815E+03  0.7818608E-02  0.1308465E+00
          2   -1    0    0  502    0  0.00000000000E+00  0.00000000000E+00  0.81312924112E+03  0.81312924112E+03  0.00000000000E+00 0. -1.
          1   -1    0    0  501    0 -0.00000000000E+00 -0.00000000000E+00 -0.52738716279E+03  0.52738716279E+03  0.00000000000E+00 0. -1.
         25    2    1    2    0    0  0.90350939847E+02  0.24178706983E+02  0.64377009426E+02  0.16886925154E+03  0.12499809027E+03 0.  0.
          2    1    1    2  501    0 -0.11657659711E+03  0.34880273559E+02 -0.46580957269E+03  0.48144085253E+03  0.00000000000E+00 0. -1.
          1    1    1    2  502    0  0.26225657259E+02 -0.59058980542E+02  0.68717464160E+03  0.69020629984E+03  0.00000000000E+00 0. -1.
         22    1    3    3    0    0 -0.27549124746E+02  0.41695032672E+00  0.35933808931E+02  0.45280975544E+02  0.00000000000E+00 0. -1.
         22    1    3    3    0    0  0.11790006459E+03  0.23761756656E+02  0.28443200495E+02  0.12358827600E+03  0.00000000000E+00 0. -1.
</event>
<event>
 7    1  0.6888431E-006  0.7919652E+02  0.7818608E-02  0.1356944E+00
          2   -1    0    0  502    0  0.00000000000E+00  0.00000000000E+00  0.11220882405E+04  0.11220882405E+04  0.00000000000E+00 0. -1.
          1   -1    0    0  501    0 -0.00000000000E+00 -0.00000000000E+00 -0.24047200201E+04  0.24047200201E+04  0.00000000000E+00 0. -1.
         25    2    1    2    0    0 -0.41493842285E+02 -0.12686985750E+03  0.21846668468E+03  0.28490380165E+03  0.12499913674E+03 0.  0.
          2    1    1    2  501    0 -0.17021676354E+01  0.63511445876E+02 -0.23693858737E+04  0.23702375450E+04  0.00000000000E+00 0. -1.
          1    1    1    2  502    0  0.43196009920E+02  0.63358411629E+02  0.86828740938E+03  0.87166691395E+03  0.00000000000E+00 0. -1.
         22    1    3    3    0    0 -0.21067139240E+02 -0.12029866976E+03  0.23009478606E+03  0.26049799399E+03  0.00000000000E+00 0. -1.
         22    1    3    3    0    0 -0.20426703044E+02 -0.65711877461E+01 -0.11628101379E+02  0.24405807656E+02  0.00000000000E+00 0. -1.
</event>
<event>
 7    1  0.6888431E-006  0.5308358E+02  0.7818608E-02  0.1537250E+00
          2   -1    0    0  502    0  0.00000000000E+00  0.00000000000E+00  0.17522243212E+04  0.17522243212E+04  0.00000000000E+00 0. -1.
          1   -1    0    0  501    0 -0.00000000000E+00 -0.00000000000E+00 -0.41243888458E+03  0.41243888458E+03  0.00000000000E+00 0. -1.
         25    2    1    2    0    0 -0.60294928674E+02  0.11513893378E+02  0.15172968059E+03  0.20594712887E+03  0.12499710298E+03 0.  0.
          2    1    1    2  501    0  0.43735008869E+02 -0.30027463520E+02 -0.38340558067E+03  0.38705844372E+03  0.00000000000E+00 0. -1.
          1    1    1    2  502    0  0.16559919805E+02  0.18513570141E+02  0.15714613367E+04  0.15716576332E+04  0.00000000000E+00 0. -1.
         22    1    3    3    0    0  0.39173965965E+02  0.89619469051E+00  0.44891241140E+02  0.59587132046E+02  0.00000000000E+00 0. -1.
         22    1    3    3    0    0 -0.99468894639E+02  0.10617698688E+02  0.10683843945E+03  0.14635999682E+03  0.00000000000E+00 0. -1.
</event>
<event>
 7    1  0.6888431E-006  0.1149724E+03  0.7818608E-02  0.1354114E+00
          2   -1    0    0  502    0  0.00000000000E+00  0.00000000000E+00  0.35392073925E+03  0.35392073925E+03  0.00000000000E+00 0. -1.
          1   -1    0    0  501    0 -0.00000000000E+00 -0.00000000000E+00 -0.41022498459E+03  0.41022498459E+03  0.00000000000E+00 0. -1.
         25    2    1    2    0    0 -0.41861558887E+01  0.85107990215E+02 -0.35253085027E+02  0.15533357965E+03  0.12499938825E+03 0.  0.
          2    1    1    2  501    0 -0.25659842648E+02 -0.11855176292E+03 -0.30140535422E+03  0.32489711536E+03  0.00000000000E+00 0. -1.
          1    1    1    2  502    0  0.29845998537E+02  0.33443772707E+02  0.28035419390E+03  0.28391502883E+03  0.00000000000E+00 0. -1.
         22    1    3    3    0    0  0.37153244385E+02  0.62441223836E+02 -0.66725044975E+02  0.98648373678E+02  0.00000000000E+00 0. -1.
         22    1    3    3    0    0 -0.41339400274E+02  0.22666766378E+02  0.31471959948E+02  0.56685205971E+02  0.00000000000E+00 0. -1.
</event>
<event>
 7    1  0.6888431E-006  0.3913315E+02  0.7818608E-02  0.1571910E+00
          2   -1    0    0  502    0  0.00000000000E+00  0.00000000000E+00  0.11936369628E+03  0.11936369628E+03  0.00000000000E+00 0. -1.
          1   -1    0    0  501    0 -0.00000000000E+00 -0.00000000000E+00 -0.37167856880E+03  0.37167856880E+03  0.00000000000E+00 0. -1.
         25    2    1    2    0    0  0.35479736199E+02 -0.54812891018E+02  0.40424713643E+01  0.14108458107E+03  0.12500101095E+03 0.  0.
          2    1    1    2  501    0 -0.17950548895E+02  0.34270255118E+02 -0.29790412009E+03  0.30040562138E+03  0.00000000000E+00 0. -1.
          1    1    1    2  502    0 -0.17529187304E+02  0.20542635900E+02  0.41546776203E+02  0.49552062622E+02  0.00000000000E+00 0. -1.
         22    1    3    3    0    0 -0.21068197918E+02  0.31011146467E+02 -0.53806336727E+01  0.37874944059E+02  0.00000000000E+00 0. -1.
         22    1    3    3    0    0  0.56547934118E+02 -0.85824037485E+02  0.94231050370E+01  0.10320963701E+03  0.00000000000E+00 0. -1.
</event>
<event>
 7    1  0.6888431E-006  0.5570083E+02  0.7818608E-02  0.1431278E+00
          2   -1    0    0  502    0  0.00000000000E+00  0.00000000000E+00  0.17175123330E+03  0.17175123330E+03  0.00000000000E+00 0. -1.
          1   -1    0    0  501    0 -0.00000000000E+00 -0.00000000000E+00 -0.11997170827E+04  0.11997170827E+04  0.00000000000E+00 0. -1.
         25    2    1    2    0    0 -0.82147033237E+02  0.79633182319E+01 -0.28854416983E+03  0.32510600512E+03  0.12499850844E+03 0.  0.
          2    1    1    2  501    0  0.41284204720E+02 -0.36549069602E+02 -0.88796303094E+03  0.88967329080E+03  0.00000000000E+00 0. -1.
          1    1    1    2  502    0  0.40862828516E+02  0.28585751370E+02  0.14854135139E+03  0.15668902007E+03  0.00000000000E+00 0. -1.
         22    1    3    3    0    0 -0.83564355911E+02  0.43690768904E+02 -0.26746199703E+03  0.28359796319E+03  0.00000000000E+00 0. -1.
         22    1    3    3    0    0  0.14173226740E+01 -0.35727450672E+02 -0.21082172797E+02  0.41508041931E+02  0.00000000000E+00 0. -1.
</event>
<event>
 7    1  0.6888431E-006  0.6707770E+02  0.7818608E-02  0.1373972E+00
          2   -1    0    0  502    0  0.00000000000E+00  0.00000000000E+00  0.89979926011E+03  0.89979926011E+03  0.00000000000E+00 0. -1.
          1   -1    0    0  501    0 -0.00000000000E+00 -0.00000000000E+00 -0.39784195236E+02  0.39784195236E+02  0.00000000000E+00 0. -1.
         25    2    1    2    0    0 -0.24643067503E+02  0.94878563863E+02  0.38199486565E+03  0.41370827374E+03  0.12500094290E+03 0.  0.
          2    1    1    2  501    0  0.53991524148E+02 -0.36349947914E+02  0.27561036264E+02  0.70682488023E+02  0.00000000000E+00 0. -1.
          1    1    1    2  502    0 -0.29348456645E+02 -0.58528615949E+02  0.45045916297E+03  0.45519269359E+03  0.00000000000E+00 0. -1.
         22    1    3    3    0    0  0.45216938615E+02  0.75885074076E+01  0.89200755864E+02  0.10029422630E+03  0.00000000000E+00 0. -1.
         22    1    3    3    0    0 -0.69860006118E+02  0.87290056455E+02  0.29279410978E+03  0.31341404744E+03  0.00000000000E+00 0. -1.
</event>
<event>
 7    1  0.6888431E-006  0.6543374E+02  0.7818608E-02  0.1390551E+00
          2   -1    0    0  502    0  0.00000000000E+00  0.00000000000E+00  0.34287960740E+04  0.34287960740E+04  0.00000000000E+00 0. -1.
          1   -1    0    0  501    0 -0.00000000000E+00 -0.00000000000E+00 -0.12038599506E+04  0.12038599506E+04  0.00000000000E+00 0. -1.
         25    2    1    2    0    0  0.56902452498E+02  0.10727855848E+03  0.17204133150E+03  0.24488879602E+03  0.12500289782E+03 0.  0.
          2    1    1    2  501    0 -0.40028954704E+02 -0.51462005846E+02 -0.11662617197E+04  0.11680826401E+04  0.00000000000E+00 0. -1.
          1    1    1    2  502    0 -0.16873497793E+02 -0.55816552633E+02  0.32191565117E+04  0.32196845885E+04  0.00000000000E+00 0. -1.
         22    1    3    3    0    0  0.55888959635E+02  0.86669046719E+02  0.38996698389E+02  0.11025353488E+03  0.00000000000E+00 0.  1.
         22    1    3    3    0    0  0.10134928625E+01  0.20609511759E+02  0.13304463311E+03  0.13463526114E+03  0.00000000000E+00 0.  1.
</event>
<event>
 7    1  0.6888431E-006  0.1153635E+03  0.7818608E-02  0.1323257E+00
          2   -1    0    0  502    0  0.00000000000E+00  0.00000000000E+00  0.53491881327E+03  0.53491881327E+03  0.00000000000E+00 0. -1.
          1   -1    0    0  501    0 -0.00000000000E+00 -0.00000000000E+00 -0.24387766441E+04  0.24387766441E+04  0.00000000000E+00 0. -1.
         25    2    1    2    0    0  0.26963577207E+02 -0.13619160466E+03 -0.19990966878E+03  0.27361385092E+03  0.12500190427E+03 0.  0.
          2    1    1    2  501    0  0.26129567867E+02  0.11187724665E+03 -0.21987983474E+04  0.22017977757E+04  0.00000000000E+00 0. -1.
          1    1    1    2  502    0 -0.53093145074E+02  0.24314358007E+02  0.49485018533E+03  0.49828383074E+03  0.00000000000E+00 0. -1.
         22    1    3    3    0    0  0.55677641792E+02 -0.38725624461E+02 -0.26873900211E+02  0.72951218619E+02  0.00000000000E+00 0.  1.
         22    1    3    3    0    0 -0.28714064584E+02 -0.97465980200E+02 -0.17303576856E+03  0.20066263231E+03  0.00000000000E+00 0.  1.
</event>
<event>
 7    1  0.6888431E-006  0.1680810E+03  0.7818608E-02  0.1309025E+00
          2   -1    0    0  502    0  0.00000000000E+00  0.00000000000E+00  0.19735452528E+03  0.19735452528E+03  0.00000000000E+00 0. -1.
          1   -1    0    0  501    0 -0.00000000000E+00 -0.00000000000E+00 -0.47973741178E+03  0.47973741178E+03  0.00000000000E+00 0. -1.
         25    2    1    2    0    0  0.11231463263E+03  0.95415802175E+02 -0.11176578156E+03  0.22323900319E+03  0.12500124244E+03 0.  0.
          2    1    1    2  501    0 -0.15683118005E+03 -0.85770556604E+02 -0.28179388766E+03  0.33370706097E+03  0.00000000000E+00 0. -1.
          1    1    1    2  502    0  0.44516547423E+02 -0.96452455711E+01  0.11117678272E+03  0.12014587289E+03  0.00000000000E+00 0. -1.
         22    1    3    3    0    0  0.56389757017E+02 -0.23372430234E+02 -0.45742480226E+02  0.76278763026E+02  0.00000000000E+00 0. -1.
         22    1    3    3    0    0  0.55924875612E+02  0.11878823241E+03 -0.66023301335E+02  0.14696024017E+03  0.00000000000E+00 0. -1.
</event>
<event>
 7    1  0.6888431E-006  0.2416585E+03  0.7818608E-02  0.1343147E+00
          2   -1    0    0  502    0  0.00000000000E+00  0.00000000000E+00  0.27994997454E+03  0.27994997454E+03  0.00000000000E+00 0. -1.
          1   -1    0    0  501    0 -0.00000000000E+00 -0.00000000000E+00 -0.73354773724E+03  0.73354773724E+03  0.00000000000E+00 0. -1.
         25    2    1    2    0    0  0.50720835262E+02 -0.25047088003E+03 -0.11596567405E+02  0.28471735656E+03  0.12498491060E+03 0.  0.
          2    1    1    2  501    0  0.67828792910E+00  0.23412543373E+02 -0.49043353956E+03  0.49099252946E+03  0.00000000000E+00 0. -1.
          1    1    1    2  502    0 -0.51399123192E+02  0.22705833666E+03  0.48432344266E+02  0.23778782576E+03  0.00000000000E+00 0. -1.
         22    1    3    3    0    0  0.19056111697E+02 -0.25101403912E+03 -0.18103365913E+02  0.25238643998E+03  0.00000000000E+00 0.  1.
         22    1    3    3    0    0  0.31664723566E+02  0.54315908828E+00  0.65067985074E+01  0.32330916583E+02  0.00000000000E+00 0.  1.
</event>
<event>
 7    1  0.6888431E-006  0.1745178E+03  0.7818608E-02  0.1247960E+00
          2   -1    0    0  502    0  0.00000000000E+00  0.00000000000E+00  0.16761208196E+04  0.16761208196E+04  0.00000000000E+00 0. -1.
          1   -1    0    0  501    0 -0.00000000000E+00 -0.00000000000E+00 -0.46777174328E+03  0.46777174328E+03  0.00000000000E+00 0. -1.
         25    2    1    2    0    0  0.15490673780E+03  0.17747192040E+03 -0.13410190368E+03  0.29849947431E+03  0.12500494248E+03 0.  0.
          2    1    1    2  501    0 -0.74908395528E+02 -0.23714520253E+02 -0.24048547671E+03  0.25299587091E+03  0.00000000000E+00 0. -1.
          1    1    1    2  502    0 -0.79998342274E+02 -0.15375740014E+03  0.15829364567E+04  0.15923972177E+04  0.00000000000E+00 0. -1.
         22    1    3    3    0    0 -0.11827763589E+02  0.63788164377E+02 -0.33169802714E+02  0.72863308449E+02  0.00000000000E+00 0.  1.
         22    1    3    3    0    0  0.16673450139E+03  0.11368375602E+03 -0.10093210097E+03  0.22563616586E+03  0.00000000000E+00 0.  1.
</event>
<event>
 7    1  0.6888431E-006  0.1063767E+03  0.7818608E-02  0.1276536E+00
          2   -1    0    0  502    0  0.00000000000E+00  0.00000000000E+00  0.17577835730E+03  0.17577835730E+03  0.00000000000E+00 0. -1.
          1   -1    0    0  501    0 -0.00000000000E+00 -0.00000000000E+00 -0.25930082682E+04  0.25930082682E+04  0.00000000000E+00 0. -1.
         25    2    1    2    0    0  0.81854099526E+01 -0.13641160371E+03 -0.29413304291E+02  0.18752367631E+03  0.12499944057E+03 0.  0.
          2    1    1    2  501    0 -0.79077340141E+02  0.56929953883E+02 -0.24539586903E+04  0.24558924038E+04  0.00000000000E+00 0. -1.
          1    1    1    2  502    0  0.70891930189E+02  0.79481649829E+02  0.66142083662E+02  0.12537054541E+03  0.00000000000E+00 0. -1.
         22    1    3    3    0    0 -0.57177953308E+02 -0.46204435963E+02 -0.65629528544E+01  0.73805423901E+02  0.00000000000E+00 0. -1.
         22    1    3    3    0    0  0.65363363260E+02 -0.90207167749E+02 -0.22850351436E+02  0.11371825241E+03  0.00000000000E+00 0. -1.
</event>
<event>
 7    1  0.6888431E-006  0.1826609E+03  0.7818608E-02  0.1253427E+00
          2   -1    0    0  502    0  0.00000000000E+00  0.00000000000E+00  0.43464986061E+03  0.43464986061E+03  0.00000000000E+00 0. -1.
          1   -1    0    0  501    0 -0.00000000000E+00 -0.00000000000E+00 -0.12332096150E+04  0.12332096150E+04  0.00000000000E+00 0. -1.
         25    2    1    2    0    0 -0.18820678167E+03  0.75870570575E+01 -0.24354067951E+03  0.33228780653E+03  0.12499507067E+03 0.  0.
          2    1    1    2  501    0  0.21260755796E+02  0.67830549079E+02 -0.92235539981E+03  0.92509052891E+03  0.00000000000E+00 0. -1.
          1    1    1    2  502    0  0.16694602587E+03 -0.75417606137E+02  0.36733632490E+03  0.41048114020E+03  0.00000000000E+00 0. -1.
         22    1    3    3    0    0 -0.77786862224E+02  0.64195541945E+02 -0.92893496711E+02  0.13711697660E+03  0.00000000000E+00 0.  1.
         22    1    3    3    0    0 -0.11041991944E+03 -0.56608484887E+02 -0.15064718280E+03  0.19517082993E+03  0.00000000000E+00 0.  1.
</event>
<event>
 7    1  0.6888431E-006  0.1584399E+03  0.7818608E-02  0.1286244E+00
          2   -1    0    0  502    0  0.00000000000E+00  0.00000000000E+00  0.10028285299E+04  0.10028285299E+04  0.00000000000E+00 0. -1.
          1   -1    0    0  501    0 -0.00000000000E+00 -0.00000000000E+00 -0.70707301349E+02  0.70707301349E+02  0.00000000000E+00 0. -1.
         25    2    1    2    0    0 -0.12561757771E+03  0.66066141030E+02  0.19630787143E+03  0.27259046990E+03  0.12499709226E+03 0.  0.
          2    1    1    2  501    0  0.12965765639E+03 -0.12558907314E+03  0.23367699801E+03  0.29527726386E+03  0.00000000000E+00 0. -1.
          1    1    1    2  502    0 -0.40400786741E+01  0.59522932106E+02  0.50213635909E+03  0.50566809747E+03  0.00000000000E+00 0. -1.
         22    1    3    3    0    0 -0.11501735854E+03  0.55945528576E+02  0.21418873124E+03  0.24947085505E+03  0.00000000000E+00 0. -1.
         22    1    3    3    0    0 -0.10600219176E+02  0.10120612455E+02 -0.17880859808E+02  0.23119614844E+02  0.00000000000E+00 0. -1.
</event>
<event>
 7    1  0.6888431E-006  0.2889207E+03  0.7818608E-02  0.1265379E+00
          2   -1    0    0  502    0  0.00000000000E+00  0.00000000000E+00  0.31664408142E+04  0.31664408142E+04  0.00000000000E+00 0. -1.
          1   -1    0    0  501    0 -0.00000000000E+00 -0.00000000000E+00 -0.61195485054E+03  0.61195485054E+03  0.00000000000E+00 0. -1.
         25    2    1    2    0    0 -0.27546585810E+03 -0.14027418833E+03 -0.61853090063E+01  0.33349923622E+03  0.12500078248E+03 0.  0.
          2    1    1    2  501    0  0.23804097368E+03  0.15426850320E+03 -0.39646497512E+03  0.48749025911E+03  0.00000000000E+00 0. -1.
          1    1    1    2  502    0  0.37424884418E+02 -0.13994314875E+02  0.29571362478E+04  0.29574061694E+04  0.00000000000E+00 0. -1.
         22    1    3    3    0    0 -0.17678569264E+03 -0.13853563976E+03  0.33574753474E+02  0.22709594597E+03  0.00000000000E+00 0. -1.
         22    1    3    3    0    0 -0.98680165464E+02 -0.17385485677E+01 -0.39760062480E+02  0.10640329025E+03  0.00000000000E+00 0. -1.
</event>
<event>
 7    1  0.6888431E-006  0.6489872E+02  0.7818608E-02  0.1413613E+00
          2   -1    0    0  502    0  0.00000000000E+00  0.00000000000E+00  0.24917775724E+03  0.24917775724E+03  0.00000000000E+00 0. -1.
          1   -1    0    0  501    0 -0.00000000000E+00 -0.00000000000E+00 -0.34338725506E+03  0.34338725506E+03  0.00000000000E+00 0. -1.
         25    2    1    2    0    0 -0.69821087934E+02  0.72004009223E+02  0.13733575861E+03  0.21105416343E+03  0.12499275037E+03 0.  0.
          2    1    1    2  501    0  0.22127809962E+02 -0.43725901140E+02 -0.29396462172E+03  0.29802146437E+03  0.00000000000E+00 0. -1.
          1    1    1    2  502    0  0.47693277971E+02 -0.28278108083E+02  0.62419365288E+02  0.83489384495E+02  0.00000000000E+00 0. -1.
         22    1    3    3    0    0 -0.43099508343E+02  0.65677315255E+02  0.81451367173E+01  0.78977342388E+02  0.00000000000E+00 0.  1.
         22    1    3    3    0    0 -0.26721579591E+02  0.63266939674E+01  0.12919062189E+03  0.13207682104E+03  0.00000000000E+00 0.  1.
</event>
<event>
 7    1  0.6888431E-006  0.7893992E+02  0.7818608E-02  0.1453928E+00
          2   -1    0    0  502    0  0.00000000000E+00  0.00000000000E+00  0.18202557004E+04  0.18202557004E+04  0.00000000000E+00 0. -1.
          1   -1    0    0  501    0 -0.00000000000E+00 -0.00000000000E+00 -0.12806036363E+04  0.12806036363E+04  0.00000000000E+00 0. -1.
         25    2    1    2    0    0  0.37189756996E+02  0.42527954709E+02  0.15921814660E+03  0.21016077481E+03  0.12500171241E+03 0.  0.
          2    1    1    2  501    0 -0.28473799010E+01  0.29590753629E+02 -0.12539807839E+04  0.12543331004E+04  0.00000000000E+00 0. -1.
          1    1    1    2  502    0 -0.34342377095E+02 -0.72118708338E+02  0.16344147015E+04  0.16363654614E+04  0.00000000000E+00 0. -1.
         22    1    3    3    0    0 -0.45582757947E+01  0.55045002460E+01 -0.20641750365E+02  0.21843975355E+02  0.00000000000E+00 0. -1.
         22    1    3    3    0    0  0.41748032791E+02  0.37023454463E+02  0.17985989696E+03  0.18831679946E+03  0.00000000000E+00 0. -1.
</event>
<event>
 7    1  0.6888431E-006  0.6238117E+02  0.7818608E-02  0.1392546E+00
          2   -1    0    0  502    0  0.00000000000E+00  0.00000000000E+00  0.27313211270E+03  0.27313211270E+03  0.00000000000E+00 0. -1.
          1   -1    0    0  501    0 -0.00000000000E+00 -0.00000000000E+00 -0.54992306769E+03  0.54992306769E+03  0.00000000000E+00 0. -1.
         25    2    1    2    0    0 -0.36958457266E+02 -0.67652283603E+00 -0.24191007816E+03  0.27479550697E+03  0.12500279794E+03 0.  0.
          2    1    1    2  501    0  0.32924822276E+02  0.62927145820E+02 -0.28333173718E+03  0.29209714634E+03  0.00000000000E+00 0. -1.
          1    1    1    2  502    0  0.40336349893E+01 -0.62250622984E+02  0.24845086035E+03  0.25616252708E+03  0.00000000000E+00 0. -1.
         22    1    3    3    0    0  0.32560701539E+02 -0.25500014442E+02 -0.32023983708E+02  0.52306649231E+02  0.00000000000E+00 0.  1.
         22    1    3    3    0    0 -0.69519158804E+02  0.24823491606E+02 -0.20988609445E+03  0.22248885774E+03  0.00000000000E+00 0.  1.
</event>
<event>
 7    1  0.6888431E-006  0.2997821E+02  0.7818608E-02  0.1643586E+00
          2   -1    0    0  502    0  0.00000000000E+00  0.00000000000E+00  0.52155806729E+02  0.52155806729E+02  0.00000000000E+00 0. -1.
          1   -1    0    0  501    0 -0.00000000000E+00 -0.00000000000E+00 -0.11427386362E+04  0.11427386362E+04  0.00000000000E+00 0. -1.
         25    2    1    2    0    0  0.77428916770E+01  0.32473932708E+02 -0.23195109116E+03  0.26559457440E+03  0.12499864233E+03 0.  0.
          2    1    1    2  501    0  0.17065157992E+02 -0.15414855161E+02 -0.88737624790E+03  0.88767417598E+03  0.00000000000E+00 0. -1.
          1    1    1    2  502    0 -0.24808049669E+02 -0.17059077547E+02  0.28744509537E+02  0.41625692591E+02  0.00000000000E+00 0. -1.
         22    1    3    3    0    0 -0.47085641027E+01  0.75084599387E+02 -0.92406037227E+02  0.11915848000E+03  0.00000000000E+00 0.  1.
         22    1    3    3    0    0  0.12451455780E+02 -0.42610666679E+02 -0.13954505393E+03  0.14643609440E+03  0.00000000000E+00 0.  1.
</event>
<event>
 7    1  0.6888431E-006  0.9235207E+02  0.7818608E-02  0.1297474E+00
          2   -1    0    0  502    0  0.00000000000E+00  0.00000000000E+00  0.11483083498E+04  0.11483083498E+04  0.00000000000E+00 0. -1.
          1   -1    0    0  501    0 -0.00000000000E+00 -0.00000000000E+00 -0.27814373275E+03  0.27814373275E+03  0.00000000000E+00 0. -1.
         25    2    1    2    0    0  0.19813237290E+01 -0.91734171544E+01 -0.15669867872E+03  0.20066618238E+03  0.12499745443E+03 0.  0.
          2    1    1    2  501    0 -0.89509312523E+02 -0.22737367458E+02 -0.75626920416E+02  0.11936639393E+03  0.00000000000E+00 0. -1.
          1    1    1    2  502    0  0.87527988794E+02  0.31910784612E+02  0.11024902162E+04  0.11064195063E+04  0.00000000000E+00 0. -1.
         22    1    3    3    0    0  0.55538880836E+02 -0.35204796661E+02 -0.79576685689E+02  0.10322981109E+03  0.00000000000E+00 0.  1.
         22    1    3    3    0    0 -0.53557557107E+02  0.26031379507E+02 -0.77121993026E+02  0.97436371293E+02  0.00000000000E+00 0.  1.
</event>
<event>
 7    1  0.6888431E-006  0.8773563E+02  0.7818608E-02  0.1473846E+00
          2   -1    0    0  502    0  0.00000000000E+00  0.00000000000E+00  0.20071354407E+02  0.20071354407E+02  0.00000000000E+00 0. -1.
          1   -1    0    0  501    0 -0.00000000000E+00 -0.00000000000E+00 -0.17935154439E+04  0.17935154439E+04  0.00000000000E+00 0. -1.
         25    2    1    2    0    0  0.68928901407E+02  0.79908202344E+01 -0.67345567569E+03  0.68846389342E+03  0.12499975504E+03 0.  0.
          2    1    1    2  501    0  0.23152103169E+02 -0.68526631903E+00 -0.94073318962E+03  0.94101829074E+03  0.00000000000E+00 0. -1.
          1    1    1    2  502    0 -0.92081004576E+02 -0.73055539154E+01 -0.15925522423E+03  0.18410461419E+03  0.00000000000E+00 0. -1.
         22    1    3    3    0    0  0.70162007691E+01 -0.54295513608E+02 -0.23403726282E+03  0.24035530005E+03  0.00000000000E+00 0.  1.
         22    1    3    3    0    0  0.61912700638E+02  0.62286333843E+02 -0.43941841287E+03  0.44810859337E+03  0.00000000000E+00 0.  1.
</event>
<event>
 7    1  0.6888431E-006  0.8183306E+02  0.7818608E-02  0.1435303E+00
          2   -1    0    0  502    0  0.00000000000E+00  0.00000000000E+00  0.17354677658E+04  0.17354677658E+04  0.00000000000E+00 0. -1.
          1   -1    0    0  501    0 -0.00000000000E+00 -0.00000000000E+00 -0.35743148056E+03  0.35743148056E+03  0.00000000000E+00 0. -1.
         25    2    1    2    0    0  0.21696508828E+02  0.93586161273E+02  0.93591831391E+03  0.94909972542E+03  0.12497235851E+03 0.  0.
          2    1    1    2  501    0  0.88570872008E+01 -0.81307086903E+02 -0.34572556216E+03  0.35526814480E+03  0.00000000000E+00 0. -1.
          1    1    1    2  502    0 -0.30553596029E+02 -0.12279074370E+02  0.78784353344E+03  0.78853137609E+03  0.00000000000E+00 0. -1.
         22    1    3    3    0    0  0.42504340131E+02 -0.16100019785E+02  0.30761679908E+03  0.31095646744E+03  0.00000000000E+00 0. -1.
         22    1    3    3    0    0 -0.20807831303E+02  0.10968618106E+03  0.62830151484E+03  0.63814325798E+03  0.00000000000E+00 0. -1.
</event>
<event>
 7    1  0.6888431E-006  0.5934755E+02  0.7818608E-02  0.1492289E+00
          2   -1    0    0  502    0  0.00000000000E+00  0.00000000000E+00  0.11408631208E+03  0.11408631208E+03  0.00000000000E+00 0. -1.
          1   -1    0    0  501    0 -0.00000000000E+00 -0.00000000000E+00 -0.12163510863E+03  0.12163510863E+03  0.00000000000E+00 0. -1.
         25    2    1    2    0    0  0.28710205830E+02 -0.45055667447E+02 -0.79346948761E+00  0.13594799662E+03  0.12500775617E+03 0.  0.
          2    1    1    2  501    0 -0.55098932800E+02  0.30626996255E+02 -0.21067236143E+02  0.66466034439E+02  0.00000000000E+00 0. -1.
          1    1    1    2  502    0  0.26388726971E+02  0.14428671192E+02  0.14311909079E+02  0.33307389646E+02  0.00000000000E+00 0. -1.
         22    1    3    3    0    0 -0.28945429099E+02 -0.60585703003E+02  0.23984853333E+02  0.71300339856E+02  0.00000000000E+00 0. -1.
         22    1    3    3    0    0  0.57655634929E+02  0.15530035556E+02 -0.24778322820E+02  0.64647656765E+02  0.00000000000E+00 0. -1.
</event>
<event>
 7    1  0.6888431E-006  0.1298192E+03  0.7818608E-02  0.1336385E+00
          2   -1    0    0  502    0  0.00000000000E+00  0.00000000000E+00  0.72219817242E+02  0.72219817242E+02  0.00000000000E+00 0. -1.
          1   -1    0    0  501    0 -0.00000000000E+00 -0.00000000000E+00 -0.16443777841E+04  0.16443777841E+04  0.00000000000E+00 0. -1.
         25    2    1    2    0    0  0.38418425940E+02 -0.97080394314E+02 -0.72928045372E+03  0.74724321463E+03  0.12498745223E+03 0.  0.
          2    1    1    2  501    0 -0.35015132617E+02  0.14318671015E+03 -0.89071375085E+03  0.90282859914E+03  0.00000000000E+00 0. -1.
          1    1    1    2  502    0 -0.34032933228E+01 -0.46106315833E+02  0.47836237750E+02  0.66525787536E+02  0.00000000000E+00 0. -1.
         22    1    3    3    0    0  0.63859154476E+02 -0.20248734723E+01 -0.25725800046E+03  0.26507314184E+03  0.00000000000E+00 0.  1.
         22    1    3    3    0    0 -0.25440728536E+02 -0.95055520841E+02 -0.47202245327E+03  0.48217007279E+03  0.00000000000E+00 0.  1.
</event>
<event>
 7    1  0.6888431E-006  0.1007439E+03  0.7818608E-02  0.1304502E+00
          2   -1    0    0  502    0  0.00000000000E+00  0.00000000000E+00  0.38012084099E+04  0.38012084099E+04  0.00000000000E+00 0. -1.
          1   -1    0    0  501    0 -0.00000000000E+00 -0.00000000000E+00 -0.84861685504E+02  0.84861685504E+02  0.00000000000E+00 0. -1.
         25    2    1    2    0    0  0.86291986622E+02 -0.11075140799E+03  0.39600167540E+03  0.43835350197E+03  0.12499713774E+03 0.  0.
          2    1    1    2  501    0 -0.80282270318E+01  0.98640064685E+02 -0.24484184904E+02  0.10194993919E+03  0.00000000000E+00 0. -1.
          1    1    1    2  502    0 -0.78263759591E+02  0.12111343308E+02  0.33448292339E+04  0.33457666543E+04  0.00000000000E+00 0. -1.
         22    1    3    3    0    0 -0.32450813863E+02 -0.18541258057E+02  0.69893485087E+02  0.79258645133E+02  0.00000000000E+00 0. -1.
         22    1    3    3    0    0  0.11874280048E+03 -0.92210149936E+02  0.32610819032E+03  0.35909485684E+03  0.00000000000E+00 0. -1.
</event>
<event>
 7    1  0.6888431E-006  0.1234447E+03  0.7818608E-02  0.1294550E+00
          2   -1    0    0  502    0  0.00000000000E+00  0.00000000000E+00  0.14128252979E+04  0.14128252979E+04  0.00000000000E+00 0. -1.
          1   -1    0    0  501    0 -0.00000000000E+00 -0.00000000000E+00 -0.39884348492E+03  0.39884348492E+03  0.00000000000E+00 0. -1.
         25    2    1    2    0    0  0.85466952707E+02  0.15743711828E+03  0.22550216837E+03  0.31395551208E+03  0.12500315759E+03 0.  0.
          2    1    1    2  501    0 -0.57947213191E+02 -0.40758720635E+02 -0.34789375098E+03  0.35503410371E+03  0.00000000000E+00 0. -1.
          1    1    1    2  502    0 -0.27519739516E+02 -0.11667839764E+03  0.11363733956E+04  0.11426791670E+04  0.00000000000E+00 0. -1.
         22    1    3    3    0    0  0.69552868660E+02  0.15002058146E+03  0.23981810667E+03  0.29130139150E+03  0.00000000000E+00 0. -1.
         22    1    3    3    0    0  0.15914084047E+02  0.74165368146E+01 -0.14315938307E+02  0.22654120575E+02  0.00000000000E+00 0. -1.
</event>
<event>
 7    1  0.6888431E-006  0.8278433E+02  0.7818608E-02  0.1335193E+00
          2   -1    0    0  502    0  0.00000000000E+00  0.00000000000E+00  0.34763342669E+04  0.34763342669E+04  0.00000000000E+00 0. -1.
          1   -1    0    0  501    0 -0.00000000000E+00 -0.00000000000E+00 -0.72880602630E+03  0.72880602630E+03  0.00000000000E+00 0. -1.
         25    2    1    2    0    0  0.14159853031E+02 -0.36970798757E+02  0.21716502522E+04  0.21756046171E+04  0.12499316232E+03 0.  0.
          2    1    1    2  501    0  0.36364440017E+02 -0.74369840124E+02 -0.72158810308E+03  0.72632130364E+03  0.00000000000E+00 0. -1.
          1    1    1    2  502    0 -0.50524293048E+02  0.11134063888E+03  0.12974660915E+04  0.13032143725E+04  0.00000000000E+00 0. -1.
         22    1    3    3    0    0 -0.45258823533E+02  0.17313384950E+02  0.63372332845E+03  0.63557326204E+03  0.00000000000E+00 0.  1.
         22    1    3    3    0    0  0.59418676564E+02 -0.54284183707E+02  0.15379269238E+04  0.15400313551E+04  0.00000000000E+00 0.  1.
</event>
<event>
 7    1  0.6888431E-006  0.5670655E+02  0.7818608E-02  0.1419692E+00
          2   -1    0    0  502    0  0.00000000000E+00  0.00000000000E+00  0.28839563576E+04  0.28839563576E+04  0.00000000000E+00 0. -1.
          1   -1    0    0  501    0 -0.00000000000E+00 -0.00000000000E+00 -0.18784576757E+02  0.18784576757E+02  0.00000000000E+00 0. -1.
         25    2    1    2    0    0 -0.10716319068E+02  0.59128444966E+02  0.34294193905E+03  0.36992791082E+03  0.12500589246E+03 0.  0.
          2    1    1    2  501    0 -0.43116763227E+02 -0.41306205025E+02  0.17514615646E+03  0.18504441080E+03  0.00000000000E+00 0. -1.
          1    1    1    2  502    0  0.53833082295E+02 -0.17822239941E+02  0.23470836853E+04  0.23477686127E+04  0.00000000000E+00 0. -1.
         22    1    3    3    0    0 -0.27142699430E+02  0.94875217581E+02  0.22797084313E+03  0.24841243600E+03  0.00000000000E+00 0. -1.
         22    1    3    3    0    0  0.16426380362E+02 -0.35746772616E+02  0.11497109592E+03  0.12151547482E+03  0.00000000000E+00 0. -1.
</event>
<event>
 7    1  0.6888431E-006  0.5753064E+02  0.7818608E-02  0.1514321E+00
          2   -1    0    0  502    0  0.00000000000E+00  0.00000000000E+00  0.21680947361E+04  0.21680947361E+04  0.00000000000E+00 0. -1.
          1   -1    0    0  501    0 -0.00000000000E+00 -0.00000000000E+00 -0.75707647597E+03  0.75707647597E+03  0.00000000000E+00 0. -1.
         25    2    1    2    0    0  0.12043169811E+02  0.40557171872E+02  0.32068337190E+03  0.34677416681E+03  0.12499830248E+03 0.  0.
          2    1    1    2  501    0 -0.20549616830E+02  0.17023739404E+02 -0.74332987144E+03  0.74380870675E+03  0.00000000000E+00 0. -1.
          1    1    1    2  502    0  0.85064470190E+01 -0.57580911276E+02  0.18336647596E+04  0.18345883385E+04  0.00000000000E+00 0. -1.
         22    1    3    3    0    0 -0.35954104954E+02  0.33444075739E+02  0.44204828220E+02  0.66070195270E+02  0.00000000000E+00 0.  1.
         22    1    3    3    0    0  0.47997274765E+02  0.71130961331E+01  0.27647854368E+03  0.28070397154E+03  0.00000000000E+00 0.  1.
</event>
<event>
 7    1  0.6888431E-006  0.5985215E+02  0.7818608E-02  0.1398954E+00
          2   -1    0    0  502    0  0.00000000000E+00  0.00000000000E+00  0.89677953263E+03  0.89677953263E+03  0.00000000000E+00 0. -1.
          1   -1    0    0  501    0 -0.00000000000E+00 -0.00000000000E+00 -0.24486800577E+04  0.24486800577E+04  0.00000000000E+00 0. -1.
         25    2    1    2    0    0  0.85576693833E+02 -0.66822729345E+02  0.42492803732E+03  0.45604508560E+03  0.12499854204E+03 0.  0.
          2    1    1    2  501    0 -0.27564960117E+02  0.53090146272E+02 -0.24308048087E+04  0.24315407479E+04  0.00000000000E+00 0. -1.
          1    1    1    2  502    0 -0.58011733716E+02  0.13732583073E+02  0.45397624626E+03  0.45787375689E+03  0.00000000000E+00 0. -1.
         22    1    3    3    0    0  0.31119939252E+02  0.68793302336E+01  0.13632238082E+02  0.34664300348E+02  0.00000000000E+00 0.  1.
         22    1    3    3    0    0  0.54456754580E+02 -0.73702059579E+02  0.41129579924E+03  0.42138078525E+03  0.00000000000E+00 0.  1.
</event>
<event>
 7    1  0.6888431E-006  0.8372990E+02  0.7818608E-02  0.1366323E+00
          2   -1    0    0  502    0  0.00000000000E+00  0.00000000000E+00  0.10333896409E+04  0.10333896409E+04  0.00000000000E+00 0. -1.
          1   -1    0    0  501    0 -0.00000000000E+00 -0.00000000000E+00 -0.19227052527E+03  0.19227052527E+03  0.00000000000E+00 0. -1.
         25    2    1    2    0    0 -0.11886387026E+02  0.48250833138E+02  0.21368134342E+03  0.25249746033E+03  0.12500328736E+03 0.  0.
          2    1    1    2  501    0  0.67210396573E+02 -0.53265991486E+02 -0.16118861602E+03  0.18258223679E+03  0.00000000000E+00 0. -1.
          1    1    1    2  502    0 -0.55324009548E+02  0.50151583479E+01  0.78862638819E+03  0.79058046902E+03  0.00000000000E+00 0. -1.
         22    1    3    3    0    0 -0.39903127047E+02  0.67148427279E+02  0.20227101476E+03  0.21682881323E+03  0.00000000000E+00 0.  1.
         22    1    3    3    0    0  0.28016740022E+02 -0.18897594141E+02  0.11410328660E+02  0.35668647099E+02  0.00000000000E+00 0.  1.
</event>
<event>
 7    1  0.6888431E-006  0.5788148E+02  0.7818608E-02  0.1519394E+00
          2   -1    0    0  502    0  0.00000000000E+00  0.00000000000E+00  0.20408674962E+02  0.20408674962E+02  0.00000000000E+00 0. -1.
          1   -1    0    0  501    0 -0.00000000000E+00 -0.00000000000E+00 -0.20058996378E+04  0.20058996378E+04  0.00000000000E+00 0. -1.
         25    2    1    2    0    0 -0.17361848794E+02 -0.65472357096E+02 -0.62767326496E+03  0.64357345090E+03  0.12499998333E+03 0.  0.
          2    1    1    2  501    0 -0.16731196737E+02  0.19422220324E+02 -0.13035998292E+04  0.13038518591E+04  0.00000000000E+00 0. -1.
          1    1    1    2  502    0  0.34093045530E+02  0.46050136772E+02 -0.54217868653E+02  0.78883002805E+02  0.00000000000E+00 0. -1.
         22    1    3    3    0    0  0.39905588294E+02 -0.36804010682E+02 -0.47387196965E+03  0.47697131445E+03  0.00000000000E+00 0. -1.
         22    1    3    3    0    0 -0.57267437088E+02 -0.28668346414E+02 -0.15380129530E+03  0.16660213646E+03  0.00000000000E+00 0. -1.
</event>
<event>
 7    1  0.6888431E-006  0.6042563E+02  0.7818608E-02  0.1458562E+00
          2   -1    0    0  502    0  0.00000000000E+00  0.00000000000E+00  0.22086293767E+03  0.22086293767E+03  0.00000000000E+00 0. -1.
          1   -1    0    0  501    0 -0.00000000000E+00 -0.00000000000E+00 -0.30241445256E+03  0.30241445256E+03  0.00000000000E+00 0. -1.
         25    2    1    2    0    0 -0.23887266083E+02 -0.92248510952E+01 -0.47032705820E+02  0.13598742786E+03  0.12499922304E+03 0.  0.
          2    1    1    2  501    0 -0.37376706306E+02 -0.35348698539E+01 -0.20358297045E+03  0.20701579490E+03  0.00000000000E+00 0. -1.
          1    1    1    2  502    0  0.61263972389E+02  0.12759720949E+02  0.16906416139E+03  0.18027416747E+03  0.00000000000E+00 0. -1.
         22    1    3    3    0    0 -0.15816966290E+02  0.51417462629E+02  0.71470841788E+01  0.54267971199E+02  0.00000000000E+00 0. -1.
         22    1    3    3    0    0 -0.80702997929E+01 -0.60642313724E+02 -0.54179789999E+02  0.81719456660E+02  0.00000000000E+00 0. -1.
</event>
<event>
 7    1  0.6888431E-006  0.9054525E+02  0.7818608E-02  0.1382212E+00
          2   -1    0    0  502    0  0.00000000000E+00  0.00000000000E+00  0.66980995258E+03  0.66980995258E+03  0.00000000000E+00 0. -1.
          1   -1    0    0  501    0 -0.00000000000E+00 -0.00000000000E+00 -0.47041838536E+03  0.47041838536E+03  0.00000000000E+00 0. -1.
         25    2    1    2    0    0  0.21705809070E+02  0.97249289517E+02  0.12604273545E+03  0.20356816486E+03  0.12499864050E+03 0.  0.
          2    1    1    2  501    0  0.22364165174E+02 -0.87780163510E+02 -0.42587669208E+03  0.43540380091E+03  0.00000000000E+00 0. -1.
          1    1    1    2  502    0 -0.44069974244E+02 -0.94691260070E+01  0.49922552385E+03  0.50125637217E+03  0.00000000000E+00 0. -1.
         22    1    3    3    0    0  0.66426256849E+02  0.74099475076E+02  0.47502732915E+02  0.11027098186E+03  0.00000000000E+00 0. -1.
         22    1    3    3    0    0 -0.44720447779E+02  0.23149814441E+02  0.78540002539E+02  0.93297183007E+02  0.00000000000E+00 0. -1.
</event>
<event>
 7    1  0.6888431E-006  0.6564858E+02  0.7818608E-02  0.1526769E+00
          2   -1    0    0  502    0  0.00000000000E+00  0.00000000000E+00  0.84209927557E+03  0.84209927557E+03  0.00000000000E+00 0. -1.
          1   -1    0    0  501    0 -0.00000000000E+00 -0.00000000000E+00 -0.98986219477E+02  0.98986219477E+02  0.00000000000E+00 0. -1.
         25    2    1    2    0    0 -0.41580945789E+02  0.28540137710E+02  0.28692794345E+03  0.31701129126E+03  0.12499999816E+03 0.  0.
          2    1    1    2  501    0 -0.21332253226E+02 -0.28276222506E+01 -0.80385716421E+02  0.83216127522E+02  0.00000000000E+00 0. -1.
          1    1    1    2  502    0  0.62913199015E+02 -0.25712515459E+02  0.53657082906E+03  0.54085807627E+03  0.00000000000E+00 0. -1.
         22    1    3    3    0    0  0.64152723879E+01  0.17374941035E+02 -0.63823973272E+01  0.19590285639E+02  0.00000000000E+00 0.  1.
         22    1    3    3    0    0 -0.47996218177E+02  0.11165196675E+02  0.29331034078E+03  0.29742100562E+03  0.00000000000E+00 0.  1.
</event>
<event>
 7    1  0.6888431E-006  0.4086412E+02  0.7818608E-02  0.1585139E+00
          2   -1    0    0  502    0  0.00000000000E+00  0.00000000000E+00  0.15206680750E+04  0.15206680750E+04  0.00000000000E+00 0. -1.
          1   -1    0    0  501    0 -0.00000000000E+00 -0.00000000000E+00 -0.37094884391E+02  0.37094884391E+02  0.00000000000E+00 0. -1.
         25    2    1    2    0    0  0.48179149170E+02  0.40744726179E+02  0.47827024375E+03  0.49834380723E+03  0.12499104378E+03 0.  0.
          2    1    1    2  501    0 -0.14796278129E+02 -0.18678517353E+02 -0.21345353226E+02  0.31991263828E+02  0.00000000000E+00 0. -1.
          1    1    1    2  502    0 -0.33382871041E+02 -0.22066208826E+02  0.10266483001E+04  0.10274278883E+04  0.00000000000E+00 0. -1.
         22    1    3    3    0    0  0.26077494129E+02  0.80817540481E+02  0.21568691692E+03  0.23180240870E+03  0.00000000000E+00 0.  1.
         22    1    3    3    0    0  0.22101655041E+02 -0.40072814302E+02  0.26258332683E+03  0.26654139853E+03  0.00000000000E+00 0.  1.
</event>
<event>
 7    1  0.6888431E-006  0.1277737E+03  0.7818608E-02  0.1313559E+00
          2   -1    0    0  502    0  0.00000000000E+00  0.00000000000E+00  0.40296699322E+03  0.40296699322E+03  0.00000000000E+00 0. -1.
          1   -1    0    0  501    0 -0.00000000000E+00 -0.00000000000E+00 -0.21396029790E+04  0.21396029790E+04  0.00000000000E+00 0. -1.
         25    2    1    2    0    0  0.11666315989E+03  0.16565780217E+02 -0.72427160523E+03  0.74436490284E+03  0.12500012999E+03 0.  0.
          2    1    1    2  501    0  0.47750197981E+01 -0.57309660827E+02 -0.13942368655E+04  0.13954223859E+04  0.00000000000E+00 0. -1.
          1    1    1    2  502    0 -0.12143817969E+03  0.40743880610E+02  0.38187248497E+03  0.40278268342E+03  0.00000000000E+00 0. -1.
         22    1    3    3    0    0  0.71446811645E+02  0.69320799598E+01 -0.66658466155E+03  0.67043852189E+03  0.00000000000E+00 0. -1.
         22    1    3    3    0    0  0.45216348247E+02  0.96337002577E+01 -0.57686943677E+02  0.73926380949E+02  0.00000000000E+00 0. -1.
</event>
<event>
 7    1  0.6888431E-006  0.1658798E+03  0.7818608E-02  0.1329917E+00
          2   -1    0    0  502    0  0.00000000000E+00  0.00000000000E+00  0.13408108801E+04  0.13408108801E+04  0.00000000000E+00 0. -1.
          1   -1    0    0  501    0 -0.00000000000E+00 -0.00000000000E+00 -0.12348468921E+04  0.12348468921E+04  0.00000000000E+00 0. -1.
         25    2    1    2    0    0 -0.90610826924E+02  0.16939292618E+03 -0.60268963018E+03  0.64479776715E+03  0.12500033923E+03 0.  0.
          2    1    1    2  501    0  0.72208994307E+02 -0.13581537927E+03 -0.60113979134E+03  0.62050705462E+03  0.00000000000E+00 0. -1.
          1    1    1    2  502    0  0.18401832617E+02 -0.33577546909E+02  0.13097934095E+04  0.13103529504E+04  0.00000000000E+00 0. -1.
         22    1    3    3    0    0  0.18869743332E+02  0.64206727716E+00 -0.12596592176E+03  0.12737304624E+03  0.00000000000E+00 0.  1.
         22    1    3    3    0    0 -0.10948057026E+03  0.16875085890E+03 -0.47672370841E+03  0.51742472091E+03  0.00000000000E+00 0.  1.
</event>
<event>
 7    1  0.6888431E-006  0.6112670E+02  0.7818608E-02  0.1410157E+00
          2   -1    0    0  502    0  0.00000000000E+00  0.00000000000E+00  0.39861272969E+03  0.39861272969E+03  0.00000000000E+00 0. -1.
          1   -1    0    0  501    0 -0.00000000000E+00 -0.00000000000E+00 -0.19985588177E+03  0.19985588177E+03  0.00000000000E+00 0. -1.
         25    2    1    2    0    0 -0.66844070162E+01  0.63591658559E+02  0.14892185026E+02  0.14119255239E+03  0.12499991737E+03 0.  0.
          2    1    1    2  501    0 -0.43541290835E+02 -0.45312357522E+02 -0.12708128114E+03  0.14176990431E+03  0.00000000000E+00 0. -1.
          1    1    1    2  502    0  0.50225697851E+02 -0.18279301037E+02  0.31094594403E+03  0.31550615475E+03  0.00000000000E+00 0. -1.
         22    1    3    3    0    0 -0.33382680078E+02 -0.18142682555E+02  0.36338301003E+02  0.52574065653E+02  0.00000000000E+00 0. -1.
         22    1    3    3    0    0  0.26698273062E+02  0.81734341114E+02 -0.21446115978E+02  0.88618486742E+02  0.00000000000E+00 0. -1.
</event>
<event>
 7    1  0.6888431E-006  0.1426877E+03  0.7818608E-02  0.1360361E+00
          2   -1    0    0  502    0  0.00000000000E+00  0.00000000000E+00  0.27475381786E+04  0.27475381786E+04  0.00000000000E+00 0. -1.
          1   -1    0    0  501    0 -0.00000000000E+00 -0.00000000000E+00 -0.36672757133E+02  0.36672757133E+02  0.00000000000E+00 0. -1.
         25    2    1    2    0    0 -0.16839451049E+03  0.21010306627E+02  0.18931898248E+04  0.19048848739E+04  0.12498210238E+03 0.  0.
          2    1    1    2  501    0  0.14046266715E+03 -0.11659601151E+01  0.13187812258E+03  0.19267319362E+03  0.00000000000E+00 0. -1.
          1    1    1    2  502    0  0.27931843339E+02 -0.19844346511E+02  0.68579747413E+03  0.68665286825E+03  0.00000000000E+00 0. -1.
         22    1    3    3    0    0 -0.16843156168E+03  0.49165141366E+02  0.14099586962E+04  0.14208342363E+04  0.00000000000E+00 0. -1.
         22    1    3    3    0    0  0.37051193675E-01 -0.28154834739E+02  0.48323112857E+03  0.48405063755E+03  0.00000000000E+00 0. -1.
</event>
<event>
 7    1  0.6888431E-006  0.1442466E+03  0.7818608E-02  0.1260133E+00
          2   -1    0    0  502    0  0.00000000000E+00  0.00000000000E+00  0.52610529615E+03  0.52610529615E+03  0.00000000000E+00 0. -1.
          1   -1    0    0  501    0 -0.00000000000E+00 -0.00000000000E+00 -0.26257297931E+03  0.26257297931E+03  0.00000000000E+00 0. -1.
         25    2    1    2    0    0 -0.78831020783E+02 -0.19475341401E+03 -0.17863122909E+02  0.24512130579E+03  0.12498856461E+03 0.  0.
          2    1    1    2  501    0  0.51445218004E+02  0.11508439892E+03 -0.95000537893E+02  0.15784844481E+03  0.00000000000E+00 0. -1.
          1    1    1    2  502    0  0.27385802780E+02  0.79669015097E+02  0.37639597765E+03  0.38570852486E+03  0.00000000000E+00 0. -1.
         22    1    3    3    0    0 -0.41121668270E+02  0.29074773004E+01 -0.15020244770E+02  0.43875423400E+02  0.00000000000E+00 0.  1.
         22    1    3    3    0    0 -0.37709352513E+02 -0.19766089131E+03 -0.28428781399E+01  0.20124588239E+03  0.00000000000E+00 0.  1.
</event>
<event>
 7    1  0.6888431E-006  0.9715369E+02  0.7818608E-02  0.1462060E+00
          2   -1    0    0  502    0  0.00000000000E+00  0.00000000000E+00  0.34886808601E+03  0.34886808601E+03  0.00000000000E+00 0. -1.
          1   -1    0    0  501    0 -0.00000000000E+00 -0.00000000000E+00 -0.40946298080E+03  0.40946298080E+03  0.00000000000E+00 0. -1.
         25    2    1    2    0    0  0.61419323014E+02  0.10155774617E+03 -0.16269236629E+03  0.23702387170E+03  0.12500080264E+03 0.  0.
          2    1    1    2  501    0 -0.81945951262E+01 -0.21238936840E+02 -0.20150239006E+03  0.20278426228E+03  0.00000000000E+00 0. -1.
          1    1    1    2  502    0 -0.53224727887E+02 -0.80318809329E+02  0.30359986157E+03  0.31852293282E+03  0.00000000000E+00 0. -1.
         22    1    3    3    0    0  0.59034513070E+02  0.98997857867E+02 -0.18307784489E+03  0.21634034965E+03  0.00000000000E+00 0.  1.
         22    1    3    3    0    0  0.23848099432E+01  0.25598883016E+01  0.20385478602E+02  0.20683522051E+02  0.00000000000E+00 0.  1.
</event>
<event>
 7    1  0.6888431E-006  0.9636152E+02  0.7818608E-02  0.1329170E+00
          2   -1    0    0  502    0  0.00000000000E+00  0.00000000000E+00  0.25432939846E+04  0.25432939846E+04  0.00000000000E+00 0. -1.
          1   -1    0    0  501    0 -0.00000000000E+00 -0.00000000000E+00 -0.11127708157E+03  0.11127708157E+03  0.00000000000E+00 0. -1.
         25    2    1    2    0    0 -0.41287540898E+02  0.41451010182E+02  0.96450774049E+02  0.16837288298E+03  0.12499531443E+03 0.  0.
          2    1    1    2  501    0  0.10632000050E+03 -0.28309485309E+02 -0.34420642437E+02  0.11528291326E+03  0.00000000000E+00 0. -1.
          1    1    1    2  502    0 -0.65032459597E+02 -0.13141524873E+02  0.23699867715E+04  0.23709152700E+04  0.00000000000E+00 0. -1.
         22    1    3    3    0    0 -0.40311875201E+02 -0.16097717549E+02  0.10170090584E+03  0.11057693268E+03  0.00000000000E+00 0.  1.
         22    1    3    3    0    0 -0.97566569686E+00  0.57548727730E+02 -0.52501317889E+01  0.57795950297E+02  0.00000000000E+00 0.  1.
</event>
<event>
 7    1  0.6888431E-006  0.3061790E+02  0.7818608E-02  0.1592473E+00
          2   -1    0    0  502    0  0.00000000000E+00  0.00000000000E+00  0.22621769764E+03  0.22621769764E+03  0.00000000000E+00 0. -1.
          1   -1    0    0  501    0 -0.00000000000E+00 -0.00000000000E+00 -0.13100004182E+04  0.13100004182E+04  0.00000000000E+00 0. -1.
         25    2    1    2    0    0  0.19798570360E+01 -0.19383085514E+01 -0.72428408925E+03  0.73500074402E+03  0.12502389729E+03 0.  0.
          2    1    1    2  501    0 -0.62441398934E+01  0.32257801977E+02 -0.57882872071E+03  0.57976050485E+03  0.00000000000E+00 0. -1.
          1    1    1    2  502    0  0.42642828574E+01 -0.30319493426E+02  0.21933008942E+03  0.22145686694E+03  0.00000000000E+00 0. -1.
         22    1    3    3    0    0 -0.56048241543E+02 -0.26426382994E+02 -0.34412199705E+03  0.34965655714E+03  0.00000000000E+00 0. -1.
         22    1    3    3    0    0  0.58028098579E+02  0.24488074442E+02 -0.38016209220E+03  0.38534418688E+03  0.00000000000E+00 0. -1.
</event>
<event>
 7    1  0.6888431E-006  0.3507693E+02  0.7818608E-02  0.1582230E+00
          2   -1    0    0  502    0  0.00000000000E+00  0.00000000000E+00  0.26780005012E+03  0.26780005012E+03  0.00000000000E+00 0. -1.
          1   -1    0    0  501    0 -0.00000000000E+00 -0.00000000000E+00 -0.26696750934E+03  0.26696750934E+03  0.00000000000E+00 0. -1.
         25    2    1    2    0    0 -0.85997108419E+01 -0.12842437317E+01  0.87422401409E+02  0.15278257871E+03  0.12499694308E+03 0.  0.
          2    1    1    2  501    0 -0.28049986750E+02 -0.34482507623E+01 -0.23110159601E+03  0.23282319444E+03  0.00000000000E+00 0. -1.
          1    1    1    2  502    0  0.36649697592E+02  0.47324944941E+01  0.14451173538E+03  0.14916178632E+03  0.00000000000E+00 0. -1.
         22    1    3    3    0    0  0.57528201887E+02  0.88906531443E+01  0.44785245028E+02  0.73445598220E+02  0.00000000000E+00 0.  1.
         22    1    3    3    0    0 -0.66127912729E+02 -0.10174896876E+02  0.42637156381E+02  0.79336980486E+02  0.00000000000E+00 0.  1.
</event>
<event>
 7    1  0.6888431E-006  0.2397197E+03  0.7818608E-02  0.1174173E+00
          2   -1    0    0  502    0  0.00000000000E+00  0.00000000000E+00  0.25615287445E+04  0.25615287445E+04  0.00000000000E+00 0. -1.
          1   -1    0    0  501    0 -0.00000000000E+00 -0.00000000000E+00 -0.20503700269E+03  0.20503700269E+03  0.00000000000E+00 0. -1.
         25    2    1    2    0    0 -0.40747935773E+02  0.24616111348E+03  0.13917831810E+04  0.14194862467E+04  0.12500037418E+03 0.  0.
          2    1    1    2  501    0 -0.83304764281E+02 -0.22602239323E+03 -0.11016664264E+03  0.26488204005E+03  0.00000000000E+00 0. -1.
          1    1    1    2  502    0  0.12405270005E+03 -0.20138720258E+02  0.10748752035E+04  0.10821974605E+04  0.00000000000E+00 0. -1.
         22    1    3    3    0    0  0.23621350571E+02 -0.51421442671E+00  0.14411967823E+03  0.14604353554E+03  0.00000000000E+00 0.  1.
         22    1    3    3    0    0 -0.64369286344E+02  0.24667532791E+03  0.12476635027E+04  0.12734427111E+04  0.00000000000E+00 0.  1.
</event>
<event>
 7    1  0.6888431E-006  0.5808989E+02  0.7818608E-02  0.1411487E+00
          2   -1    0    0  502    0  0.00000000000E+00  0.00000000000E+00  0.19463689872E+04  0.19463689872E+04  0.00000000000E+00 0. -1.
          1   -1    0    0  501    0 -0.00000000000E+00 -0.00000000000E+00 -0.72683419222E+02  0.72683419222E+02  0.00000000000E+00 0. -1.
         25    2    1    2    0    0  0.23780202347E+02  0.61449704309E+01  0.15646103365E+03  0.20175657097E+03  0.12498960033E+03 0.  0.
          2    1    1    2  501    0 -0.43503680279E+02  0.45905945220E+02 -0.29428250488E+02  0.69756346888E+02  0.00000000000E+00 0. -1.
          1    1    1    2  502    0  0.19723477931E+02 -0.52050915651E+02  0.17466527848E+04  0.17475394885E+04  0.00000000000E+00 0. -1.
         22    1    3    3    0    0  0.57411199263E+02 -0.24269348650E+02  0.14046606061E+03  0.15367420495E+03  0.00000000000E+00 0.  1.
         22    1    3    3    0    0 -0.33630996916E+02  0.30414319081E+02  0.15994973040E+02  0.48082366011E+02  0.00000000000E+00 0.  1.
</event>
<event>
 7    1  0.6888431E-006  0.1147572E+03  0.7818608E-02  0.1340499E+00
          2   -1    0    0  502    0  0.00000000000E+00  0.00000000000E+00  0.22843813274E+02  0.22843813274E+02  0.00000000000E+00 0. -1.
          1   -1    0    0  501    0 -0.00000000000E+00 -0.00000000000E+00 -0.22238817621E+04  0.22238817621E+04  0.00000000000E+00 0. -1.
         25    2    1    2    0    0 -0.45577976959E+02 -0.92480066849E+02 -0.84953178823E+03  0.86484698077E+03  0.12500450465E+03 0.  0.
          2    1    1    2  501    0  0.42133584886E+02 -0.27774932749E+02 -0.11185898165E+04  0.11197275845E+04  0.00000000000E+00 0. -1.
          1    1    1    2  502    0  0.34443920728E+01  0.12025499960E+03 -0.23291634411E+03  0.26215101014E+03  0.00000000000E+00 0. -1.
         22    1    3    3    0    0 -0.72971562035E+02 -0.32413918350E+02 -0.26976901577E+03  0.28133757808E+03  0.00000000000E+00 0.  1.
         22    1    3    3    0    0  0.27393585077E+02 -0.60066148499E+02 -0.57976277246E+03  0.58350940269E+03  0.00000000000E+00 0.  1.
</event>
<event>
 7    1  0.6888431E-006  0.7147894E+02  0.7818608E-02  0.1460003E+00
          2   -1    0    0  502    0  0.00000000000E+00  0.00000000000E+00  0.15838818254E+04  0.15838818254E+04  0.00000000000E+00 0. -1.
          1   -1    0    0  501    0 -0.00000000000E+00 -0.00000000000E+00 -0.13048497259E+03  0.13048497259E+03  0.00000000000E+00 0. -1.
         25    2    1    2    0    0  0.25593273902E+02  0.32787244310E+02  0.27098614672E+03  0.30131151179E+03  0.12500046545E+03 0.  0.
          2    1    1    2  501    0 -0.39932987628E+02 -0.60729571704E+02 -0.10365941246E+03  0.12660173053E+03  0.00000000000E+00 0. -1.
          1    1    1    2  502    0  0.14339713726E+02  0.27942327395E+02  0.12860701185E+04  0.12864535556E+04  0.00000000000E+00 0. -1.
         22    1    3    3    0    0 -0.33566763489E+02  0.38608002281E+02  0.46658342690E+02  0.69240930047E+02  0.00000000000E+00 0. -1.
         22    1    3    3    0    0  0.59160037391E+02 -0.58207579717E+01  0.22432780403E+03  0.23207058174E+03  0.00000000000E+00 0. -1.
</event>
<event>
 7    1  0.6888431E-006  0.7293483E+02  0.7818608E-02  0.1421989E+00
          2   -1    0    0  502    0  0.00000000000E+00  0.00000000000E+00  0.23679659571E+04  0.23679659571E+04  0.00000000000E+00 0. -1.
          1   -1    0    0  501    0 -0.00000000000E+00 -0.00000000000E+00 -0.71329102031E+02  0.71329102031E+02  0.00000000000E+00 0. -1.
         25    2    1    2    0    0  0.66980163885E+02 -0.23685824866E+02  0.21628999679E+03  0.25972023885E+03  0.12500351637E+03 0.  0.
          2    1    1    2  501    0  0.43439725628E+01  0.40646147269E+02 -0.40451806378E+02  0.57509373364E+02  0.00000000000E+00 0. -1.
          1    1    1    2  502    0 -0.71324136448E+02 -0.16960322403E+02  0.21207986646E+04  0.21220654469E+04  0.00000000000E+00 0. -1.
         22    1    3    3    0    0  0.98917089725E+02  0.73909583003E+01  0.15157785242E+03  0.18114928167E+03  0.00000000000E+00 0.  1.
         22    1    3    3    0    0 -0.31936925840E+02 -0.31076783166E+02  0.64712144364E+02  0.78570957181E+02  0.00000000000E+00 0.  1.
</event>
<event>
 7    1  0.6888431E-006  0.8067830E+02  0.7818608E-02  0.1335428E+00
          2   -1    0    0  502    0  0.00000000000E+00  0.00000000000E+00  0.77692293070E+03  0.77692293070E+03  0.00000000000E+00 0. -1.
          1   -1    0    0  501    0 -0.00000000000E+00 -0.00000000000E+00 -0.63782094792E+03  0.63782094792E+03  0.00000000000E+00 0. -1.
         25    2    1    2    0    0 -0.11659162016E+03 -0.57137097445E+02  0.29374779876E+03  0.34463141862E+03  0.12499916651E+03 0.  0.
          2    1    1    2  501    0  0.42418019248E+02  0.68337715312E+02 -0.60663335375E+03  0.61194228288E+03  0.00000000000E+00 0. -1.
          1    1    1    2  502    0  0.74173600915E+02 -0.11200617867E+02  0.45198753776E+03  0.45817017712E+03  0.00000000000E+00 0. -1.
         22    1    3    3    0    0 -0.11989541782E+03 -0.80295388310E+02  0.28537934223E+03  0.31978685021E+03  0.00000000000E+00 0.  1.
         22    1    3    3    0    0  0.33037976540E+01  0.23158290866E+02  0.83684565304E+01  0.24844568409E+02  0.00000000000E+00 0.  1.
</event>
<event>
 7    1  0.6888431E-006  0.4911112E+02  0.7818608E-02  0.1488276E+00
          2   -1    0    0  502    0  0.00000000000E+00  0.00000000000E+00  0.78923393297E+03  0.78923393297E+03  0.00000000000E+00 0. -1.
          1   -1    0    0  501    0 -0.00000000000E+00 -0.00000000000E+00 -0.23380382339E+03  0.23380382339E+03  0.00000000000E+00 0. -1.
         25    2    1    2    0    0 -0.60916804474E+02  0.16513436445E+02  0.21947893314E+03  0.26034145792E+03  0.12499248765E+03 0.  0.
          2    1    1    2  501    0  0.45798745209E+02  0.17666947933E+02 -0.20990178595E+03  0.21556531692E+03  0.00000000000E+00 0. -1.
          1    1    1    2  502    0  0.15118059264E+02 -0.34180384378E+02  0.54585296239E+03  0.54713098153E+03  0.00000000000E+00 0. -1.
         22    1    3    3    0    0 -0.23839885303E+02  0.11381625327E+02 -0.96879945896E+01  0.28137852895E+02  0.00000000000E+00 0. -1.
         22    1    3    3    0    0 -0.37076919170E+02  0.51318111177E+01  0.22916692773E+03  0.23220360502E+03  0.00000000000E+00 0. -1.
</event>
<event>
 7    1  0.6888431E-006  0.7935503E+02  0.7818608E-02  0.1384834E+00
          2   -1    0    0  502    0  0.00000000000E+00  0.00000000000E+00  0.25269772968E+04  0.25269772968E+04  0.00000000000E+00 0. -1.
          1   -1    0    0  501    0 -0.00000000000E+00 -0.00000000000E+00 -0.45442619872E+02  0.45442619872E+02  0.00000000000E+00 0. -1.
         25    2    1    2    0    0  0.31687298210E+00 -0.41919702335E+02  0.23214893218E+03  0.26696457233E+03  0.12497837538E+03 0.  0.
          2    1    1    2  501    0  0.42445596837E+02 -0.27082752622E+02 -0.40920655010E+01  0.50515830989E+02  0.00000000000E+00 0. -1.
          1    1    1    2  502    0 -0.42762469819E+02  0.69002454958E+02  0.22534778103E+04  0.22549395134E+04  0.00000000000E+00 0. -1.
         22    1    3    3    0    0  0.54848455855E+02 -0.44870206926E+02  0.17030283555E+03  0.18445797456E+03  0.00000000000E+00 0.  1.
         22    1    3    3    0    0 -0.54531582873E+02  0.29505045908E+01  0.61846096625E+02  0.82506597771E+02  0.00000000000E+00 0.  1.
</event>
<event>
 7    1  0.6888431E-006  0.3293499E+02  0.7818608E-02  0.1576289E+00
          2   -1    0    0  502    0  0.00000000000E+00  0.00000000000E+00  0.76338625651E+03  0.76338625651E+03  0.00000000000E+00 0. -1.
          1   -1    0    0  501    0 -0.00000000000E+00 -0.00000000000E+00 -0.96692468074E+03  0.96692468074E+03  0.00000000000E+00 0. -1.
         25    2    1    2    0    0 -0.18679859090E+01  0.16971893407E+02  0.45477922620E+03  0.47195385549E+03  0.12499905035E+03 0.  0.
          2    1    1    2  501    0  0.32824568923E+02 -0.26946843434E+01 -0.95708480324E+03  0.95765131141E+03  0.00000000000E+00 0. -1.
          1    1    1    2  502    0 -0.30956583014E+02 -0.14277209064E+02  0.29876715280E+03  0.30070577036E+03  0.00000000000E+00 0. -1.
         22    1    3    3    0    0 -0.37324778678E+02  0.54476742087E+02  0.16698864905E+03  0.17957188935E+03  0.00000000000E+00 0. -1.
         22    1    3    3    0    0  0.35456792769E+02 -0.37504848679E+02  0.28779057715E+03  0.29238196614E+03  0.00000000000E+00 0. -1.
</event>
<event>
 7    1  0.6888431E-006  0.5356539E+02  0.7818608E-02  0.1429598E+00
          2   -1    0    0  502    0  0.00000000000E+00  0.00000000000E+00  0.14405175666E+04  0.14405175666E+04  0.00000000000E+00 0. -1.
          1   -1    0    0  501    0 -0.00000000000E+00 -0.00000000000E+00 -0.23261527623E+04  0.23261527623E+04  0.00000000000E+00 0. -1.
         25    2    1    2    0    0  0.38289005137E+02  0.93319991606E+02  0.13653965222E+02  0.16120112554E+03  0.12499881344E+03 0.  0.
          2    1    1    2  501    0 -0.34289339661E+02 -0.40951006530E+02 -0.22515526862E+04  0.22521861030E+04  0.00000000000E+00 0. -1.
          1    1    1    2  502    0 -0.39996654757E+01 -0.52368985077E+02  0.13522635253E+04  0.13532831004E+04  0.00000000000E+00 0. -1.
         22    1    3    3    0    0  0.82467219878E+02  0.44450735464E+02 -0.11025304102E+01  0.93690585499E+02  0.00000000000E+00 0.  1.
         22    1    3    3    0    0 -0.44178214742E+02  0.48869256142E+02  0.14756495632E+02  0.67510540044E+02  0.00000000000E+00 0.  1.
</event>
<event>
 7    1  0.6888431E-006  0.1730217E+03  0.7818608E-02  0.1324909E+00
          2   -1    0    0  502    0  0.00000000000E+00  0.00000000000E+00  0.66792262089E+02  0.66792262089E+02  0.00000000000E+00 0. -1.
          1   -1    0    0  501    0 -0.00000000000E+00 -0.00000000000E+00 -0.12476083867E+04  0.12476083867E+04  0.00000000000E+00 0. -1.
         25    2    1    2    0    0  0.12479898001E+03 -0.75663333789E+02 -0.34742037750E+03  0.39702186072E+03  0.12500285475E+03 0.  0.
          2    1    1    2  501    0 -0.15307079055E+03  0.10160307652E+03 -0.85419894145E+03  0.87373318791E+03  0.00000000000E+00 0. -1.
          1    1    1    2  502    0  0.28271810537E+02 -0.25939742734E+02  0.20803194295E+02  0.43645600203E+02  0.00000000000E+00 0. -1.
         22    1    3    3    0    0  0.40601911142E+01  0.17610344098E+02 -0.55073501668E+00  0.18080726761E+02  0.00000000000E+00 0. -1.
         22    1    3    3    0    0  0.12073878890E+03 -0.93273677887E+02 -0.34686964248E+03  0.37894113396E+03  0.00000000000E+00 0. -1.
</event>
<event>
 7    1  0.6888431E-006  0.6120322E+02  0.7818608E-02  0.1450302E+00
          2   -1    0    0  502    0  0.00000000000E+00  0.00000000000E+00  0.14811112221E+04  0.14811112221E+04  0.00000000000E+00 0. -1.
          1   -1    0    0  501    0 -0.00000000000E+00 -0.00000000000E+00 -0.25332433744E+04  0.25332433744E+04  0.00000000000E+00 0. -1.
         25    2    1    2    0    0  0.98583389522E+02 -0.89768116539E+01  0.29059247433E+03  0.33146460373E+03  0.12500211818E+03 0.  0.
          2    1    1    2  501    0 -0.59530461077E+02  0.14020276770E+02 -0.25121037227E+04  0.25128480968E+04  0.00000000000E+00 0. -1.
          1    1    1    2  502    0 -0.39052928445E+02 -0.50434651160E+01  0.11693790962E+04  0.11700418960E+04  0.00000000000E+00 0. -1.
         22    1    3    3    0    0  0.54865239147E+02 -0.19119664361E+02  0.26981452908E+02  0.64060555984E+02  0.00000000000E+00 0.  1.
         22    1    3    3    0    0  0.43718150376E+02  0.10142852707E+02  0.26361102142E+03  0.26740404774E+03  0.00000000000E+00 0.  1.
</event>
<event>
 7    1  0.6888431E-006  0.8170627E+02  0.7818608E-02  0.1342038E+00
          2   -1    0    0  502    0  0.00000000000E+00  0.00000000000E+00  0.26555457385E+03  0.26555457385E+03  0.00000000000E+00 0. -1.
          1   -1    0    0  501    0 -0.00000000000E+00 -0.00000000000E+00 -0.42201804385E+03  0.42201804385E+03  0.00000000000E+00 0. -1.
         25    2    1    2    0    0 -0.20386632033E+02 -0.67354988528E+02  0.73371369058E+02  0.16112259723E+03  0.12499929718E+03 0.  0.
          2    1    1    2  501    0  0.69112237571E+02 -0.10734252765E+02 -0.36016559796E+03  0.36689369512E+03  0.00000000000E+00 0. -1.
          1    1    1    2  502    0 -0.48725605538E+02  0.78089241293E+02  0.13033075891E+03  0.15955632535E+03  0.00000000000E+00 0. -1.
         22    1    3    3    0    0 -0.50531548253E+02  0.17387517412E+02  0.25035870028E+02  0.59013201224E+02  0.00000000000E+00 0. -1.
         22    1    3    3    0    0  0.30144916220E+02 -0.84742505940E+02  0.48335499030E+02  0.10210939601E+03  0.00000000000E+00 0. -1.
</event>
<event>
 7    1  0.6888431E-006  0.9915864E+02  0.7818608E-02  0.1411886E+00
          2   -1    0    0  502    0  0.00000000000E+00  0.00000000000E+00  0.17250118331E+04  0.17250118331E+04  0.00000000000E+00 0. -1.
          1   -1    0    0  501    0 -0.00000000000E+00 -0.00000000000E+00 -0.27534127325E+03  0.27534127325E+03  0.00000000000E+00 0. -1.
         25    2    1    2    0    0 -0.89171946373E+02 -0.78614466837E+02  0.12384906268E+03  0.21235852989E+03  0.12500273787E+03 0.  0.
          2    1    1    2  501    0  0.20814211944E+01  0.32440933676E+02 -0.22837410659E+03  0.23067613456E+03  0.00000000000E+00 0. -1.
          1    1    1    2  502    0  0.87090525178E+02  0.46173533160E+02  0.15541956038E+04  0.15573184419E+04  0.00000000000E+00 0. -1.
         22    1    3    3    0    0 -0.45284953999E+02 -0.10964384763E+03  0.88983804214E+02  0.14829233896E+03  0.00000000000E+00 0.  1.
         22    1    3    3    0    0 -0.43886992373E+02  0.31029380796E+02  0.34865258464E+02  0.64066190927E+02  0.00000000000E+00 0.  1.
</event>
<event>
 7    1  0.6888431E-006  0.1182148E+03  0.7818608E-02  0.1318845E+00
          2   -1    0    0  502    0  0.00000000000E+00  0.00000000000E+00  0.16242894222E+02  0.16242894222E+02  0.00000000000E+00 0. -1.
          1   -1    0    0  501    0 -0.00000000000E+00 -0.00000000000E+00 -0.27392261615E+04  0.27392261615E+04  0.00000000000E+00 0. -1.
         25    2    1    2    0    0 -0.10786188882E+03  0.79905818959E+01 -0.85186199057E+03  0.86775183850E+03  0.12500546301E+03 0.  0.
          2    1    1    2  501    0  0.10424029248E+03 -0.67154273609E+02 -0.17327942793E+04  0.17372253019E+04  0.00000000000E+00 0. -1.
          1    1    1    2  502    0  0.36215963439E+01  0.59163691713E+02 -0.13832699736E+03  0.15049191532E+03  0.00000000000E+00 0. -1.
         22    1    3    3    0    0 -0.12144728754E+03  0.40451122474E+02 -0.71916716808E+03  0.73047050085E+03  0.00000000000E+00 0. -1.
         22    1    3    3    0    0  0.13585398717E+02 -0.32460540578E+02 -0.13269482249E+03  0.13728133765E+03  0.00000000000E+00 0. -1.
</event>
<event>
 7    1  0.6888431E-006  0.7561765E+02  0.7818608E-02  0.1347732E+00
          2   -1    0    0  502    0  0.00000000000E+00  0.00000000000E+00  0.36697298740E+04  0.36697298740E+04  0.00000000000E+00 0. -1.
          1   -1    0    0  501    0 -0.00000000000E+00 -0.00000000000E+00 -0.14022548989E+04  0.14022548989E+04  0.00000000000E+00 0. -1.
         25    2    1    2    0    0  0.14587917622E+02  0.72839696682E+01  0.80664686379E+02  0.14965712226E+03  0.12499839623E+03 0.  0.
          2    1    1    2  501    0 -0.56517861098E+02  0.51200362633E+02 -0.13663310652E+04  0.13684576448E+04  0.00000000000E+00 0. -1.
          1    1    1    2  502    0  0.41929943475E+02 -0.58484332301E+02  0.35531413539E+04  0.35538700058E+04  0.00000000000E+00 0. -1.
         22    1    3    3    0    0 -0.50221109164E+02  0.20693861574E+02  0.58580552668E+02  0.79887901859E+02  0.00000000000E+00 0.  1.
         22    1    3    3    0    0  0.64809026787E+02 -0.13409891906E+02  0.22084133711E+02  0.69769220404E+02  0.00000000000E+00 0.  1.
</event>
<event>
 7    1  0.6888431E-006  0.9175364E+02  0.7818608E-02  0.1372411E+00
          2   -1    0    0  502    0  0.00000000000E+00  0.00000000000E+00  0.16996811891E+04  0.16996811891E+04  0.00000000000E+00 0. -1.
          1   -1    0    0  501    0 -0.00000000000E+00 -0.00000000000E+00 -0.57893303656E+03  0.57893303656E+03  0.00000000000E+00 0. -1.
         25    2    1    2    0    0  0.88590493754E+01  0.86603372398E+02  0.12640065970E+03  0.19794994893E+03  0.12501371383E+03 0.  0.
          2    1    1    2  501    0 -0.48108734510E+02 -0.29513275449E+01 -0.54069707771E+03  0.54284112825E+03  0.00000000000E+00 0. -1.
          1    1    1    2  502    0  0.39249685135E+02 -0.83652044853E+02  0.15350445705E+04  0.15378231485E+04  0.00000000000E+00 0. -1.
         22    1    3    3    0    0 -0.34180096874E+02  0.10031933193E+03  0.99526820168E+02  0.14538856666E+03  0.00000000000E+00 0.  1.
         22    1    3    3    0    0  0.43039146250E+02 -0.13715959534E+02  0.26873839531E+02  0.52561382278E+02  0.00000000000E+00 0.  1.
</event>
<event>
 7    1  0.6888431E-006  0.1920452E+03  0.7818608E-02  0.1174295E+00
          2   -1    0    0  502    0  0.00000000000E+00  0.00000000000E+00  0.76282834732E+03  0.76282834732E+03  0.00000000000E+00 0. -1.
          1   -1    0    0  501    0 -0.00000000000E+00 -0.00000000000E+00 -0.71309318648E+03  0.71309318648E+03  0.00000000000E+00 0. -1.
         25    2    1    2    0    0 -0.52626692858E+02 -0.95962158833E+01 -0.14536045786E+03  0.19903740302E+03  0.12499827572E+03 0.  0.
          2    1    1    2  501    0 -0.11568981037E+03 -0.10563011149E+03 -0.51488114268E+03  0.53818625379E+03  0.00000000000E+00 0. -1.
          1    1    1    2  502    0  0.16831650323E+03  0.11522632738E+03  0.70997676137E+03  0.73869787699E+03  0.00000000000E+00 0. -1.
         22    1    3    3    0    0  0.37016041057E+02 -0.44743978894E+01 -0.79098072502E+02  0.87445483620E+02  0.00000000000E+00 0.  1.
         22    1    3    3    0    0 -0.89642733915E+02 -0.51218179939E+01 -0.66262385355E+02  0.11159191940E+03  0.00000000000E+00 0.  1.
</event>
<event>
 7    1  0.6888431E-006  0.1486303E+03  0.7818608E-02  0.1224249E+00
          2   -1    0    0  502    0  0.00000000000E+00  0.00000000000E+00  0.68524800147E+03  0.68524800147E+03  0.00000000000E+00 0. -1.
          1   -1    0    0  501    0 -0.00000000000E+00 -0.00000000000E+00 -0.14957598640E+03  0.14957598640E+03  0.00000000000E+00 0. -1.
         25    2    1    2    0    0 -0.54303147257E+02 -0.13599550364E+03  0.45878401373E+03  0.49754532178E+03  0.12499986865E+03 0.  0.
          2    1    1    2  501    0 -0.10736255964E+03  0.47890839074E+02 -0.33965203907E+02  0.12236783383E+03  0.00000000000E+00 0. -1.
          1    1    1    2  502    0  0.16166570690E+03  0.88104664571E+02  0.11085320524E+03  0.21491083225E+03  0.00000000000E+00 0. -1.
         22    1    3    3    0    0 -0.53838099124E+02 -0.15402944945E+03  0.33689477094E+03  0.37432833035E+03  0.00000000000E+00 0. -1.
         22    1    3    3    0    0 -0.46504813354E+00  0.18033945804E+02  0.12188924279E+03  0.12321699144E+03  0.00000000000E+00 0. -1.
</event>
<event>
 7    1  0.6888431E-006  0.5576187E+02  0.7818608E-02  0.1478803E+00
          2   -1    0    0  502    0  0.00000000000E+00  0.00000000000E+00  0.66772428745E+02  0.66772428745E+02  0.00000000000E+00 0. -1.
          1   -1    0    0  501    0 -0.00000000000E+00 -0.00000000000E+00 -0.19282215514E+04  0.19282215514E+04  0.00000000000E+00 0. -1.
         25    2    1    2    0    0 -0.48136874176E+02  0.49858591138E+02 -0.81961285571E+02  0.16475626510E+03  0.12499574710E+03 0.  0.
          2    1    1    2  501    0  0.13213742255E+02 -0.54128377579E+02 -0.17920224086E+04  0.17928883951E+04  0.00000000000E+00 0. -1.
          1    1    1    2  502    0  0.34923131921E+02  0.42697864405E+01  0.12534571518E+02  0.37349319975E+02  0.00000000000E+00 0. -1.
         22    1    3    3    0    0 -0.43251886805E+02 -0.33764775307E+02 -0.52554006304E+02  0.75978347852E+02  0.00000000000E+00 0.  1.
         22    1    3    3    0    0 -0.48849873707E+01  0.83623366445E+02 -0.29407279267E+02  0.88777917249E+02  0.00000000000E+00 0.  1.
</event>
<event>
 7    1  0.6888431E-006  0.3301654E+02  0.7818608E-02  0.1596313E+00
          2   -1    0    0  502    0  0.00000000000E+00  0.00000000000E+00  0.18198261766E+04  0.18198261766E+04  0.00000000000E+00 0. -1.
          1   -1    0    0  501    0 -0.00000000000E+00 -0.00000000000E+00 -0.49804707115E+02  0.49804707115E+02  0.00000000000E+00 0. -1.
         25    2    1    2    0    0  0.26457979782E+02 -0.20084848871E+02  0.64117817348E+03  0.65409296493E+03  0.12499892309E+03 0.  0.
          2    1    1    2  501    0 -0.21494165161E+01  0.33056245105E+02 -0.36831921034E+02  0.49537114762E+02  0.00000000000E+00 0. -1.
          1    1    1    2  502    0 -0.24308563266E+02 -0.12971396234E+02  0.11656752170E+04  0.11660008040E+04  0.00000000000E+00 0. -1.
         22    1    3    3    0    0  0.39853874974E+00  0.41183718383E+02  0.90821941953E+02  0.99724032375E+02  0.00000000000E+00 0.  1.
         22    1    3    3    0    0  0.26059441033E+02 -0.61268567254E+02  0.55035623153E+03  0.55436893256E+03  0.00000000000E+00 0.  1.
</event>
<event>
 7    1  0.6888431E-006  0.7274246E+02  0.7818608E-02  0.1520204E+00
          2   -1    0    0  502    0  0.00000000000E+00  0.00000000000E+00  0.18816929193E+03  0.18816929193E+03  0.00000000000E+00 0. -1.
          1   -1    0    0  501    0 -0.00000000000E+00 -0.00000000000E+00 -0.64985850614E+03  0.64985850614E+03  0.00000000000E+00 0. -1.
         25    2    1    2    0    0 -0.12237699578E+02 -0.85793626349E+02  0.65874742936E+02  0.16574887662E+03  0.12499160264E+03 0.  0.
          2    1    1    2  501    0  0.10330636872E+02  0.17460442467E+02 -0.58355999440E+03  0.58391254155E+03  0.00000000000E+00 0. -1.
          1    1    1    2  502    0  0.19070627061E+01  0.68333183882E+02  0.55996037262E+02  0.88366379900E+02  0.00000000000E+00 0. -1.
         22    1    3    3    0    0  0.32705005901E+01 -0.77115334806E+02  0.10056556001E+03  0.12677106490E+03  0.00000000000E+00 0.  1.
         22    1    3    3    0    0 -0.15508200168E+02 -0.86782915438E+01 -0.34690817075E+02  0.38977811713E+02  0.00000000000E+00 0.  1.
</event>
<event>
 7    1  0.6888431E-006  0.3852935E+02  0.7818608E-02  0.1621113E+00
          2   -1    0    0  502    0  0.00000000000E+00  0.00000000000E+00  0.67552542968E+03  0.67552542968E+03  0.00000000000E+00 0. -1.
          1   -1    0    0  501    0 -0.00000000000E+00 -0.00000000000E+00 -0.14227096332E+03  0.14227096332E+03  0.00000000000E+00 0. -1.
         25    2    1    2    0    0 -0.22227860600E+02 -0.23963289420E+02  0.15483464983E+03  0.20166559141E+03  0.12500769953E+03 0.  0.
          2    1    1    2  501    0  0.37326688594E+02  0.10287425803E+02 -0.11548671367E+03  0.12180432605E+03  0.00000000000E+00 0. -1.
          1    1    1    2  502    0 -0.15098827995E+02  0.13675863617E+02  0.49390653020E+03  0.49432647555E+03  0.00000000000E+00 0. -1.
         22    1    3    3    0    0 -0.19088817319E+02 -0.75243520411E+02  0.87537948059E+02  0.11699941308E+03  0.00000000000E+00 0.  1.
         22    1    3    3    0    0 -0.31390432810E+01  0.51280230991E+02  0.67296701770E+02  0.84666178326E+02  0.00000000000E+00 0.  1.
</event>
<event>
 7    1  0.6888431E-006  0.1261316E+03  0.7818608E-02  0.1267375E+00
          2   -1    0    0  502    0  0.00000000000E+00  0.00000000000E+00  0.79878620272E+02  0.79878620272E+02  0.00000000000E+00 0. -1.
          1   -1    0    0  501    0 -0.00000000000E+00 -0.00000000000E+00 -0.20797658849E+04  0.20797658849E+04  0.00000000000E+00 0. -1.
         25    2    1    2    0    0  0.21772343456E+02  0.10284070139E+03 -0.39800467758E+03  0.43022131381E+03  0.12502963922E+03 0.  0.
          2    1    1    2  501    0  0.67049235706E+02 -0.11581409819E+03 -0.16299029369E+04  0.16353874431E+04  0.00000000000E+00 0. -1.
          1    1    1    2  502    0 -0.88821579162E+02  0.12973396803E+02  0.28020349828E+02  0.94035748276E+02  0.00000000000E+00 0. -1.
         22    1    3    3    0    0 -0.49071329711E+01 -0.28529070997E+02 -0.81985273183E+02  0.86945804182E+02  0.00000000000E+00 0. -1.
         22    1    3    3    0    0  0.26679476427E+02  0.13136977238E+03 -0.31601940439E+03  0.34327550963E+03  0.00000000000E+00 0. -1.
</event>
<event>
 7    1  0.6888431E-006  0.8530028E+02  0.7818608E-02  0.1489063E+00
          2   -1    0    0  502    0  0.00000000000E+00  0.00000000000E+00  0.45741020049E+02  0.45741020049E+02  0.00000000000E+00 0. -1.
          1   -1    0    0  501    0 -0.00000000000E+00 -0.00000000000E+00 -0.70225118318E+03  0.70225118318E+03  0.00000000000E+00 0. -1.
         25    2    1    2    0    0  0.53440132217E+02 -0.42221012436E+02 -0.47951003685E+03  0.50019226230E+03  0.12499584874E+03 0.  0.
          2    1    1    2  501    0  0.78706228411E+01 -0.19900440958E+02 -0.15674462746E+03  0.15819877526E+03  0.00000000000E+00 0. -1.
          1    1    1    2  502    0 -0.61310755058E+02  0.62121453394E+02 -0.20255498818E+02  0.89601165673E+02  0.00000000000E+00 0. -1.
         22    1    3    3    0    0  0.76358052095E+02 -0.71829379109E+02 -0.36016873813E+03  0.37511535792E+03  0.00000000000E+00 0.  1.
         22    1    3    3    0    0 -0.22917919878E+02  0.29608366673E+02 -0.11934129872E+03  0.12507690437E+03  0.00000000000E+00 0.  1.
</event>
<event>
 7    1  0.6888431E-006  0.6440148E+02  0.7818608E-02  0.1456220E+00
          2   -1    0    0  502    0  0.00000000000E+00  0.00000000000E+00  0.52548718334E+03  0.52548718334E+03  0.00000000000E+00 0. -1.
          1   -1    0    0  501    0 -0.00000000000E+00 -0.00000000000E+00 -0.70721739112E+03  0.70721739112E+03  0.00000000000E+00 0. -1.
         25    2    1    2    0    0  0.74012898806E+02  0.84054823857E+01  0.95126525289E+02  0.17384910364E+03  0.12500357475E+03 0.  0.
          2    1    1    2  501    0 -0.59589246893E+02  0.24395711994E+02 -0.66547796899E+03  0.66858578830E+03  0.00000000000E+00 0. -1.
          1    1    1    2  502    0 -0.14423651913E+02 -0.32801194380E+02  0.38862123591E+03  0.39026968252E+03  0.00000000000E+00 0. -1.
         22    1    3    3    0    0  0.74094003930E+02  0.59068876715E+02  0.64929959576E+02  0.11486928774E+03  0.00000000000E+00 0.  1.
         22    1    3    3    0    0 -0.81105124401E-01 -0.50663394329E+02  0.30196565713E+02  0.58979815903E+02  0.00000000000E+00 0.  1.
</event>
<event>
 7    1  0.6888431E-006  0.5817404E+02  0.7818608E-02  0.1472393E+00
          2   -1    0    0  502    0  0.00000000000E+00  0.00000000000E+00  0.13898456952E+04  0.13898456952E+04  0.00000000000E+00 0. -1.
          1   -1    0    0  501    0 -0.00000000000E+00 -0.00000000000E+00 -0.82227312374E+03  0.82227312374E+03  0.00000000000E+00 0. -1.
         25    2    1    2    0    0  0.17449416561E+02 -0.66790026287E+02 -0.46473270599E+02  0.15016026512E+03  0.12499180210E+03 0.  0.
          2    1    1    2  501    0  0.16113538706E+02  0.55865067824E+02 -0.72255561130E+03  0.72489113897E+03  0.00000000000E+00 0. -1.
          1    1    1    2  502    0 -0.33562955267E+02  0.10924958463E+02  0.13366014533E+04  0.13370674148E+04  0.00000000000E+00 0. -1.
         22    1    3    3    0    0 -0.46728770336E+02 -0.32211598293E+02 -0.52100121112E+02  0.77042765148E+02  0.00000000000E+00 0. -1.
         22    1    3    3    0    0  0.64178186898E+02 -0.34578427994E+02  0.56268505130E+01  0.73117499976E+02  0.00000000000E+00 0. -1.
</event>
<event>
 7    1  0.6888431E-006  0.1626032E+03  0.7818608E-02  0.1291565E+00
          2   -1    0    0  502    0  0.00000000000E+00  0.00000000000E+00  0.66591959532E+03  0.66591959532E+03  0.00000000000E+00 0. -1.
          1   -1    0    0  501    0 -0.00000000000E+00 -0.00000000000E+00 -0.74919531343E+03  0.74919531343E+03  0.00000000000E+00 0. -1.
         25    2    1    2    0    0  0.17476495131E+02  0.13350059062E+03  0.21274548827E+03  0.28109377552E+03  0.12500092910E+03 0.  0.
          2    1    1    2  501    0 -0.70899727560E+02 -0.14779203586E+03 -0.70373529419E+03  0.72257360976E+03  0.00000000000E+00 0. -1.
          1    1    1    2  502    0  0.53423232429E+02  0.14291445242E+02  0.40771408780E+03  0.41144752346E+03  0.00000000000E+00 0. -1.
         22    1    3    3    0    0 -0.23382174247E+02  0.10911698408E+03  0.20426793811E+03  0.23276304008E+03  0.00000000000E+00 0.  1.
         22    1    3    3    0    0  0.40858669378E+02  0.24383606541E+02  0.84775501641E+01  0.48330735439E+02  0.00000000000E+00 0.  1.
</event>
<event>
 7    1  0.6888431E-006  0.4721190E+02  0.7818608E-02  0.1574385E+00
          2   -1    0    0  502    0  0.00000000000E+00  0.00000000000E+00  0.26141145924E+03  0.26141145924E+03  0.00000000000E+00 0. -1.
          1   -1    0    0  501    0 -0.00000000000E+00 -0.00000000000E+00 -0.33900820275E+03  0.33900820275E+03  0.00000000000E+00 0. -1.
         25    2    1    2    0    0 -0.52166478868E+02 -0.35821194598E+02 -0.59594926783E+02  0.15225417387E+03  0.12500111465E+03 0.  0.
          2    1    1    2  501    0  0.78271237350E+01  0.20605034311E+02 -0.22999622887E+03  0.23104998723E+03  0.00000000000E+00 0. -1.
          1    1    1    2  502    0  0.44339355133E+02  0.15216160287E+02  0.21199441214E+03  0.21711550089E+03  0.00000000000E+00 0. -1.
         22    1    3    3    0    0 -0.83296156399E+02 -0.18574374115E+02 -0.29936213890E+01  0.85394489364E+02  0.00000000000E+00 0. -1.
         22    1    3    3    0    0  0.31129677531E+02 -0.17246820483E+02 -0.56601305394E+02  0.66859684506E+02  0.00000000000E+00 0. -1.
</event>
<event>
 7    1  0.6888431E-006  0.1583254E+03  0.7818608E-02  0.1355341E+00
          2   -1    0    0  502    0  0.00000000000E+00  0.00000000000E+00  0.24678652756E+04  0.24678652756E+04  0.00000000000E+00 0. -1.
          1   -1    0    0  501    0 -0.00000000000E+00 -0.00000000000E+00 -0.11388031328E+03  0.11388031328E+03  0.00000000000E+00 0. -1.
         25    2    1    2    0    0  0.82581618394E+02 -0.16361588917E+03  0.18380082694E+03  0.28809354898E+03  0.12500106437E+03 0.  0.
          2    1    1    2  501    0 -0.27689103887E+02  0.16464283947E+02 -0.54565682417E+02  0.63365391324E+02  0.00000000000E+00 0. -1.
          1    1    1    2  502    0 -0.54892514507E+02  0.14715160523E+03  0.22247498178E+04  0.22302866486E+04  0.00000000000E+00 0. -1.
         22    1    3    3    0    0  0.11521682213E+03 -0.13520671631E+03  0.13680471633E+03  0.22421262821E+03  0.00000000000E+00 0.  1.
         22    1    3    3    0    0 -0.32635203740E+02 -0.28409172866E+02  0.46996110612E+02  0.63880920773E+02  0.00000000000E+00 0.  1.
</event>
<event>
 7    1  0.6888431E-006  0.7272681E+02  0.7818608E-02  0.1418275E+00
          2   -1    0    0  502    0  0.00000000000E+00  0.00000000000E+00  0.41309685630E+03  0.41309685630E+03  0.00000000000E+00 0. -1.
          1   -1    0    0  501    0 -0.00000000000E+00 -0.00000000000E+00 -0.72132590373E+03  0.72132590373E+03  0.00000000000E+00 0. -1.
         25    2    1    2    0    0  0.32353465858E+02 -0.17076649095E+02 -0.24470052434E+03  0.27719871846E+03  0.12498969639E+03 0.  0.
          2    1    1    2  501    0  0.40649943346E+02  0.11265521031E+02 -0.45601590891E+03  0.45796270486E+03  0.00000000000E+00 0. -1.
          1    1    1    2  502    0 -0.73003409205E+02  0.58111280636E+01  0.39248738583E+03  0.39926133672E+03  0.00000000000E+00 0. -1.
         22    1    3    3    0    0  0.36617934261E+02 -0.67619693054E+02 -0.17350850423E+03  0.18978539733E+03  0.00000000000E+00 0. -1.
         22    1    3    3    0    0 -0.42644684031E+01  0.50543043959E+02 -0.71192020113E+02  0.87413321132E+02  0.00000000000E+00 0. -1.
</event>
<event>
 7    1  0.6888431E-006  0.6907072E+02  0.7818608E-02  0.1390581E+00
          2   -1    0    0  502    0  0.00000000000E+00  0.00000000000E+00  0.80298276880E+03  0.80298276880E+03  0.00000000000E+00 0. -1.
          1   -1    0    0  501    0 -0.00000000000E+00 -0.00000000000E+00 -0.27246260841E+03  0.27246260841E+03  0.00000000000E+00 0. -1.
         25    2    1    2    0    0  0.17760854764E+02 -0.72614390511E+01  0.15941038245E+03  0.20348142265E+03  0.12499937148E+03 0.  0.
          2    1    1    2  501    0 -0.69471512150E+02 -0.12131392673E+02 -0.24420071089E+03  0.25417995374E+03  0.00000000000E+00 0. -1.
          1    1    1    2  502    0  0.51710657385E+02  0.19392831724E+02  0.61531048883E+03  0.61778400082E+03  0.00000000000E+00 0. -1.
         22    1    3    3    0    0  0.36773265244E+02  0.31092667302E+01  0.17367245446E+03  0.17755016760E+03  0.00000000000E+00 0.  1.
         22    1    3    3    0    0 -0.19012410480E+02 -0.10370705781E+02 -0.14262072004E+02  0.25931255051E+02  0.00000000000E+00 0.  1.
</event>
<event>
 7    1  0.6888431E-006  0.7403958E+02  0.7818608E-02  0.1384198E+00
          2   -1    0    0  502    0  0.00000000000E+00  0.00000000000E+00  0.34636884004E+02  0.34636884004E+02  0.00000000000E+00 0. -1.
          1   -1    0    0  501    0 -0.00000000000E+00 -0.00000000000E+00 -0.76123164085E+03  0.76123164085E+03  0.00000000000E+00 0. -1.
         25    2    1    2    0    0 -0.56329237507E+02 -0.55467212763E+02 -0.26624383013E+03  0.30456741899E+03  0.12500376369E+03 0.  0.
          2    1    1    2  501    0 -0.20995741740E+02  0.50015065039E+02 -0.36216067523E+03  0.36620033122E+03  0.00000000000E+00 0. -1.
          1    1    1    2  502    0  0.77324979247E+02  0.54521477242E+01 -0.98190251479E+02  0.12510077464E+03  0.00000000000E+00 0. -1.
         22    1    3    3    0    0 -0.59605974760E+02  0.31025962107E+01 -0.22519398503E+03  0.23296958862E+03  0.00000000000E+00 0. -1.
         22    1    3    3    0    0  0.32767372536E+01 -0.58569808974E+02 -0.41049845107E+02  0.71597830369E+02  0.00000000000E+00 0. -1.
</event>
<event>
 7    1  0.6888431E-006  0.6954936E+02  0.7818608E-02  0.1406939E+00
          2   -1    0    0  502    0  0.00000000000E+00  0.00000000000E+00  0.17643548749E+04  0.17643548749E+04  0.00000000000E+00 0. -1.
          1   -1    0    0  501    0 -0.00000000000E+00 -0.00000000000E+00 -0.21094465081E+02  0.21094465081E+02  0.00000000000E+00 0. -1.
         25    2    1    2    0    0  0.46191125223E+02 -0.87870145424E+02  0.13390687959E+04  0.13485489596E+04  0.12499709475E+03 0.  0.
          2    1    1    2  501    0 -0.21730161972E+01  0.68299255303E+02  0.65018841271E+02  0.94323697948E+02  0.00000000000E+00 0. -1.
          1    1    1    2  502    0 -0.44018109026E+02  0.19570890121E+02  0.33917277264E+03  0.34257668246E+03  0.00000000000E+00 0. -1.
         22    1    3    3    0    0  0.83985873332E+02 -0.87993932976E+02  0.99316265336E+03  0.10005841370E+04  0.00000000000E+00 0. -1.
         22    1    3    3    0    0 -0.37794748109E+02  0.12378755211E+00  0.34590614257E+03  0.34796482261E+03  0.00000000000E+00 0. -1.
</event>
<event>
 7    1  0.6888431E-006  0.5124699E+02  0.7818608E-02  0.1451257E+00
          2   -1    0    0  502    0  0.00000000000E+00  0.00000000000E+00  0.43863458786E+03  0.43863458786E+03  0.00000000000E+00 0. -1.
          1   -1    0    0  501    0 -0.00000000000E+00 -0.00000000000E+00 -0.61634282977E+03  0.61634282977E+03  0.00000000000E+00 0. -1.
         25    2    1    2    0    0  0.39735662995E+02  0.12132098556E+02 -0.53881855416E+02  0.14231735627E+03  0.12499945929E+03 0.  0.
          2    1    1    2  501    0 -0.11957276016E+01 -0.46682858790E+02 -0.51548509496E+03  0.51759598356E+03  0.00000000000E+00 0. -1.
          1    1    1    2  502    0 -0.38539935393E+02  0.34550760235E+02  0.39165870846E+03  0.39506407780E+03  0.00000000000E+00 0. -1.
         22    1    3    3    0    0  0.11265945818E+02  0.64893551376E+02 -0.70477091656E+01  0.66240204935E+02  0.00000000000E+00 0.  1.
         22    1    3    3    0    0  0.28469717176E+02 -0.52761452820E+02 -0.46834146251E+02  0.76077151332E+02  0.00000000000E+00 0.  1.
</event>
<event>
 7    1  0.6888431E-006  0.7549947E+02  0.7818608E-02  0.1390644E+00
          2   -1    0    0  502    0  0.00000000000E+00  0.00000000000E+00  0.29665838105E+03  0.29665838105E+03  0.00000000000E+00 0. -1.
          1   -1    0    0  501    0 -0.00000000000E+00 -0.00000000000E+00 -0.12597324958E+04  0.12597324958E+04  0.00000000000E+00 0. -1.
         25    2    1    2    0    0  0.10300329224E+03  0.45556422930E+02  0.32054656441E+02  0.17128232468E+03  0.12500027147E+03 0.  0.
          2    1    1    2  501    0 -0.75071872178E+02 -0.34849415359E+01 -0.11856392566E+04  0.11880186773E+04  0.00000000000E+00 0. -1.
          1    1    1    2  502    0 -0.27931420059E+02 -0.42071481394E+02  0.19051048534E+03  0.19708987493E+03  0.00000000000E+00 0. -1.
         22    1    3    3    0    0  0.50691107762E+02  0.85690392751E+02  0.40389443229E+01  0.99643087503E+02  0.00000000000E+00 0. -1.
         22    1    3    3    0    0  0.52312184475E+02 -0.40133969820E+02  0.28015712118E+02  0.71639237179E+02  0.00000000000E+00 0. -1.
</event>
<event>
 7    1  0.6888431E-006  0.3050130E+02  0.7818608E-02  0.1617076E+00
          2   -1    0    0  502    0  0.00000000000E+00  0.00000000000E+00  0.17463482998E+03  0.17463482998E+03  0.00000000000E+00 0. -1.
          1   -1    0    0  501    0 -0.00000000000E+00 -0.00000000000E+00 -0.66848102656E+02  0.66848102656E+02  0.00000000000E+00 0. -1.
         25    2    1    2    0    0  0.18828790646E+02  0.50363844615E+02  0.78796173861E+02  0.15723539903E+03  0.12499237373E+03 0.  0.
          2    1    1    2  501    0 -0.39752274442E+01 -0.28598462438E+02 -0.15325861162E+02  0.32688782593E+02  0.00000000000E+00 0. -1.
          1    1    1    2  502    0 -0.14853563202E+02 -0.21765382177E+02  0.44316414623E+02  0.51558751014E+02  0.00000000000E+00 0. -1.
         22    1    3    3    0    0 -0.57373474457E+01  0.67758376735E+02  0.99632450302E+02  0.12062644787E+03  0.00000000000E+00 0.  1.
         22    1    3    3    0    0  0.24566138092E+02 -0.17394532120E+02 -0.20836276442E+02  0.36608951151E+02  0.00000000000E+00 0.  1.
</event>
<event>
 7    1  0.6888431E-006  0.1180173E+03  0.7818608E-02  0.1373289E+00
          2   -1    0    0  502    0  0.00000000000E+00  0.00000000000E+00  0.41742547499E+03  0.41742547499E+03  0.00000000000E+00 0. -1.
          1   -1    0    0  501    0 -0.00000000000E+00 -0.00000000000E+00 -0.98193822706E+03  0.98193822706E+03  0.00000000000E+00 0. -1.
         25    2    1    2    0    0  0.79275255817E+02  0.29591525597E+02  0.82286519044E+02  0.17191935499E+03  0.12499987533E+03 0.  0.
          2    1    1    2  501    0 -0.10457366954E+03 -0.56868267916E+02 -0.93212928594E+03  0.93969923804E+03  0.00000000000E+00 0. -1.
          1    1    1    2  502    0  0.25298413721E+02  0.27276742319E+02  0.28533001482E+03  0.28774510902E+03  0.00000000000E+00 0. -1.
         22    1    3    3    0    0  0.10544818012E+02  0.70137626272E+02  0.43390080252E+02  0.83145528264E+02  0.00000000000E+00 0. -1.
         22    1    3    3    0    0  0.68730437805E+02 -0.40546100675E+02  0.38896438792E+02  0.88773826726E+02  0.00000000000E+00 0. -1.
</event>
<event>
 7    1  0.7344330E-006  0.4875347E+02  0.7818608E-02  0.1575261E+00
          2   -1    0    0  502    0  0.00000000000E+00  0.00000000000E+00  0.16486352383E+04  0.16486352383E+04  0.00000000000E+00 0. -1.
          1   -1    0    0  501    0 -0.00000000000E+00 -0.00000000000E+00 -0.12277886930E+04  0.12277886930E+04  0.00000000000E+00 0. -1.
         25    2    1    2    0    0 -0.97886721724E+01  0.65356644967E+02 -0.32993946594E+03  0.35896087746E+03  0.12500220486E+03 0.  0.
          2    1    1    2  501    0 -0.75924050089E+01 -0.19824525017E+02 -0.88284751030E+03  0.88310270233E+03  0.00000000000E+00 0. -1.
          1    1    1    2  502    0  0.17381077181E+02 -0.45532119950E+02  0.16336335215E+04  0.16343603514E+04  0.00000000000E+00 0. -1.
         22    1    3    3    0    0  0.31896261526E+02  0.76766560410E+02 -0.12928273364E+03  0.15370263991E+03  0.00000000000E+00 0.  1.
         22    1    3    3    0    0 -0.41684933699E+02 -0.11409915443E+02 -0.20065673230E+03  0.20525823755E+03  0.00000000000E+00 0.  1.
</event>
<event>
 7    1  0.6888431E-006  0.6030716E+02  0.7818608E-02  0.1410029E+00
          2   -1    0    0  502    0  0.00000000000E+00  0.00000000000E+00  0.24606247728E+03  0.24606247728E+03  0.00000000000E+00 0. -1.
          1   -1    0    0  501    0 -0.00000000000E+00 -0.00000000000E+00 -0.12116644286E+03  0.12116644286E+03  0.00000000000E+00 0. -1.
         25    2    1    2    0    0 -0.26813730373E+02  0.36229339762E+02  0.14979627492E+03  0.20023817852E+03  0.12499945184E+03 0.  0.
          2    1    1    2  501    0 -0.53319623782E+02 -0.98895128507E+01 -0.55182396275E+02  0.77368479391E+02  0.00000000000E+00 0. -1.
          1    1    1    2  502    0  0.80133354155E+02 -0.26339826912E+02  0.30282155771E+02  0.89622262234E+02  0.00000000000E+00 0. -1.
         22    1    3    3    0    0  0.11814295446E+02  0.33293348103E+02  0.15692148669E+03  0.16084892785E+03  0.00000000000E+00 0. -1.
         22    1    3    3    0    0 -0.38628025819E+02  0.29359916596E+01 -0.71252117660E+01  0.39389250671E+02  0.00000000000E+00 0. -1.
</event>
<event>
 7    1  0.6888431E-006  0.4160714E+02  0.7818608E-02  0.1511705E+00
          2   -1    0    0  502    0  0.00000000000E+00  0.00000000000E+00  0.96536874737E+03  0.96536874737E+03  0.00000000000E+00 0. -1.
          1   -1    0    0  501    0 -0.00000000000E+00 -0.00000000000E+00 -0.90592332330E+03  0.90592332330E+03  0.00000000000E+00 0. -1.
         25    2    1    2    0    0 -0.23292245007E+02 -0.15819692495E+02 -0.73195577524E+03  0.74308503490E+03  0.12499328318E+03 0.  0.
          2    1    1    2  501    0 -0.60059735733E-01  0.50255481923E+02 -0.16419075937E+03  0.17170970425E+03  0.00000000000E+00 0. -1.
          1    1    1    2  502    0  0.23352304743E+02 -0.34435789428E+02  0.95559195867E+03  0.95649733152E+03  0.00000000000E+00 0. -1.
         22    1    3    3    0    0 -0.47753124290E+02 -0.59807961505E+02 -0.38920182404E+03  0.39665528230E+03  0.00000000000E+00 0. -1.
         22    1    3    3    0    0  0.24460879283E+02  0.43988269010E+02 -0.34275395119E+03  0.34642975259E+03  0.00000000000E+00 0. -1.
</event>
<event>
 7    1  0.6888431E-006  0.3486726E+02  0.7818608E-02  0.1559761E+00
          2   -1    0    0  502    0  0.00000000000E+00  0.00000000000E+00  0.17356274553E+02  0.17356274553E+02  0.00000000000E+00 0. -1.
          1   -1    0    0  501    0 -0.00000000000E+00 -0.00000000000E+00 -0.21018299814E+04  0.21018299814E+04  0.00000000000E+00 0. -1.
         25    2    1    2    0    0 -0.23970791931E+02 -0.29575981839E+02 -0.10748103451E+04  0.10827244570E+04  0.12500253726E+03 0.  0.
          2    1    1    2  501    0 -0.11129488721E+02  0.30764744457E+02 -0.99931240400E+03  0.99984779632E+03  0.00000000000E+00 0. -1.
          1    1    1    2  502    0  0.35100280652E+02 -0.11887626176E+01 -0.10350957696E+02  0.36614002562E+02  0.00000000000E+00 0. -1.
         22    1    3    3    0    0 -0.28811740826E+02 -0.75248573074E+02 -0.54458515397E+03  0.55051380916E+03  0.00000000000E+00 0.  1.
         22    1    3    3    0    0  0.48409488951E+01  0.45672591235E+02 -0.53022519116E+03  0.53221064788E+03  0.00000000000E+00 0.  1.
</event>
<event>
 7    1  0.6888431E-006  0.7389246E+02  0.7818608E-02  0.1432143E+00
          2   -1    0    0  502    0  0.00000000000E+00  0.00000000000E+00  0.12715861236E+04  0.12715861236E+04  0.00000000000E+00 0. -1.
          1   -1    0    0  501    0 -0.00000000000E+00 -0.00000000000E+00 -0.20623797029E+02  0.20623797029E+02  0.00000000000E+00 0. -1.
         25    2    1    2    0    0 -0.35292002940E+02  0.67606901130E+02  0.67809937264E+03  0.69372831722E+03  0.12499600148E+03 0.  0.
          2    1    1    2  501    0 -0.27284181531E+02 -0.25501812295E+02  0.23850735199E+02  0.44312826153E+02  0.00000000000E+00 0. -1.
          1    1    1    2  502    0  0.62576184471E+02 -0.42105088835E+02  0.54901221870E+03  0.55416877722E+03  0.00000000000E+00 0. -1.
         22    1    3    3    0    0  0.23800862899E+02  0.77271911755E+02  0.48051961805E+03  0.48727459687E+03  0.00000000000E+00 0.  1.
         22    1    3    3    0    0 -0.59092865838E+02 -0.96650106245E+01  0.19757975459E+03  0.20645372035E+03  0.00000000000E+00 0.  1.
</event>
<event>
 7    1  0.6888431E-006  0.8220527E+02  0.7818608E-02  0.1325852E+00
          2   -1    0    0  502    0  0.00000000000E+00  0.00000000000E+00  0.16464848047E+04  0.16464848047E+04  0.00000000000E+00 0. -1.
          1   -1    0    0  501    0 -0.00000000000E+00 -0.00000000000E+00 -0.25781852305E+03  0.25781852305E+03  0.00000000000E+00 0. -1.
         25    2    1    2    0    0  0.25810713588E+02  0.76878498895E+02  0.10386813992E+04  0.10493099004E+04  0.12496288051E+03 0.  0.
          2    1    1    2  501    0  0.65692281102E+02 -0.49418928572E+02 -0.24188020662E+03  0.25546769004E+03  0.00000000000E+00 0. -1.
          1    1    1    2  502    0 -0.91502994690E+02 -0.27459570324E+02  0.59186508904E+03  0.59952573728E+03  0.00000000000E+00 0. -1.
         22    1    3    3    0    0  0.62612997978E+02  0.24893166141E+02  0.77990226434E+03  0.78280751092E+03  0.00000000000E+00 0.  1.
         22    1    3    3    0    0 -0.36802284391E+02  0.51985332754E+02  0.25877913487E+03  0.26650238948E+03  0.00000000000E+00 0.  1.
</event>
<event>
 7    1  0.6888431E-006  0.2822604E+02  0.7818608E-02  0.1625344E+00
          2   -1    0    0  502    0  0.00000000000E+00  0.00000000000E+00  0.31409520529E+03  0.31409520529E+03  0.00000000000E+00 0. -1.
          1   -1    0    0  501    0 -0.00000000000E+00 -0.00000000000E+00 -0.66653567694E+03  0.66653567694E+03  0.00000000000E+00 0. -1.
         25    2    1    2    0    0 -0.23126694519E+01 -0.37873030930E+02 -0.44931905530E+03  0.46792446720E+03  0.12500391451E+03 0.  0.
          2    1    1    2  501    0  0.21342942148E+02  0.18538152798E+02 -0.20634455766E+03  0.20827208350E+03  0.00000000000E+00 0. -1.
          1    1    1    2  502    0 -0.19030272696E+02  0.19334878132E+02  0.30322314130E+03  0.30443433153E+03  0.00000000000E+00 0. -1.
         22    1    3    3    0    0  0.59810480485E+02 -0.32835538738E+02 -0.22674705041E+03  0.23679039475E+03  0.00000000000E+00 0.  1.
         22    1    3    3    0    0 -0.62123149936E+02 -0.50374921922E+01 -0.22257200489E+03  0.23113407245E+03  0.00000000000E+00 0.  1.
</event>
<event>
 7    1  0.6888431E-006  0.8141308E+02  0.7818608E-02  0.1378759E+00
          2   -1    0    0  502    0  0.00000000000E+00  0.00000000000E+00  0.59831236346E+03  0.59831236346E+03  0.00000000000E+00 0. -1.
          1   -1    0    0  501    0 -0.00000000000E+00 -0.00000000000E+00 -0.56726414798E+03  0.56726414798E+03  0.00000000000E+00 0. -1.
         25    2    1    2    0    0 -0.94653150793E+02 -0.63725575099E+01  0.12286422753E+03  0.19930065436E+03  0.12500121591E+03 0.  0.
          2    1    1    2  501    0  0.71195833928E+02 -0.39545539498E+02 -0.52437135041E+03  0.53065809104E+03  0.00000000000E+00 0. -1.
          1    1    1    2  502    0  0.23457316865E+02  0.45918097008E+02  0.43255533836E+03  0.43561776604E+03  0.00000000000E+00 0. -1.
         22    1    3    3    0    0 -0.11648105063E+02 -0.53354246543E+02  0.74467006859E+02  0.92345487634E+02  0.00000000000E+00 0. -1.
         22    1    3    3    0    0 -0.83005045730E+02  0.46981689033E+02  0.48397220669E+02  0.10695516673E+03  0.00000000000E+00 0. -1.
</event>
<event>
 7    1  0.6888431E-006  0.2922755E+02  0.7818608E-02  0.1616196E+00
          2   -1    0    0  502    0  0.00000000000E+00  0.00000000000E+00  0.18840343350E+04  0.18840343350E+04  0.00000000000E+00 0. -1.
          1   -1    0    0  501    0 -0.00000000000E+00 -0.00000000000E+00 -0.11454919723E+03  0.11454919723E+03  0.00000000000E+00 0. -1.
         25    2    1    2    0    0  0.16110423309E+02  0.70090229892E+01  0.36366937610E+03  0.38495300925E+03  0.12499892830E+03 0.  0.
          2    1    1    2  501    0  0.16627564506E+00 -0.29350636981E+02 -0.10170542030E+03  0.10585594011E+03  0.00000000000E+00 0. -1.
          1    1    1    2  502    0 -0.16276698955E+02  0.22341613992E+02  0.15075211820E+04  0.15077745828E+04  0.00000000000E+00 0. -1.
         22    1    3    3    0    0  0.67076006313E+01  0.65666562649E+02  0.21306319464E+03  0.22305383715E+03  0.00000000000E+00 0.  1.
         22    1    3    3    0    0  0.94028226781E+01 -0.58657539659E+02  0.15060618146E+03  0.16189917210E+03  0.00000000000E+00 0.  1.
</event>
<event>
 7    1  0.6888431E-006  0.7712197E+02  0.7818608E-02  0.1457116E+00
          2   -1    0    0  502    0  0.00000000000E+00  0.00000000000E+00  0.89525651435E+02  0.89525651435E+02  0.00000000000E+00 0. -1.
          1   -1    0    0  501    0 -0.00000000000E+00 -0.00000000000E+00 -0.10422201888E+04  0.10422201888E+04  0.00000000000E+00 0. -1.
         25    2    1    2    0    0 -0.19953759895E+02  0.79322849983E+02 -0.53578243581E+03  0.55621887938E+03  0.12500542465E+03 0.  0.
          2    1    1    2  501    0 -0.96298183998E+01 -0.76403770005E+02 -0.49031884492E+03  0.49632936560E+03  0.00000000000E+00 0. -1.
          1    1    1    2  502    0  0.29583578295E+02 -0.29190799779E+01  0.73406743333E+02  0.79197595288E+02  0.00000000000E+00 0. -1.
         22    1    3    3    0    0 -0.11214110571E+01 -0.33284074493E+02 -0.87422441620E+02  0.93550897785E+02  0.00000000000E+00 0. -1.
         22    1    3    3    0    0 -0.18832348838E+02  0.11260692448E+03 -0.44835999419E+03  0.46266798159E+03  0.00000000000E+00 0. -1.
</event>
<event>
 7    1  0.6888431E-006  0.5059318E+02  0.7818608E-02  0.1531969E+00
          2   -1    0    0  502    0  0.00000000000E+00  0.00000000000E+00  0.13303042157E+04  0.13303042157E+04  0.00000000000E+00 0. -1.
          1   -1    0    0  501    0 -0.00000000000E+00 -0.00000000000E+00 -0.35638577004E+03  0.35638577004E+03  0.00000000000E+00 0. -1.
         25    2    1    2    0    0  0.39694396183E+02  0.66565480731E+01  0.16740293782E+03  0.21276432702E+03  0.12499984216E+03 0.  0.
          2    1    1    2  501    0 -0.46933202967E+02  0.19334243234E+02 -0.33161402723E+03  0.33547638003E+03  0.00000000000E+00 0. -1.
          1    1    1    2  502    0  0.72388067839E+01 -0.25990791307E+02  0.11381295351E+04  0.11384492787E+04  0.00000000000E+00 0. -1.
         22    1    3    3    0    0  0.34146938232E+02 -0.19951734448E+02 -0.35096778467E+01  0.39703941073E+02  0.00000000000E+00 0. -1.
         22    1    3    3    0    0  0.55474579514E+01  0.26608282521E+02  0.17091261567E+03  0.17306038595E+03  0.00000000000E+00 0. -1.
</event>
<event>
 7    1  0.6888431E-006  0.4634850E+02  0.7818608E-02  0.1531856E+00
          2   -1    0    0  502    0  0.00000000000E+00  0.00000000000E+00  0.10426659411E+02  0.10426659411E+02  0.00000000000E+00 0. -1.
          1   -1    0    0  501    0 -0.00000000000E+00 -0.00000000000E+00 -0.21341121916E+04  0.21341121916E+04  0.00000000000E+00 0. -1.
         25    2    1    2    0    0  0.51485384212E+02 -0.46589812010E+02 -0.92679115584E+03  0.93775777069E+03  0.12500573822E+03 0.  0.
          2    1    1    2  501    0 -0.12084194248E+02  0.26881515294E+02 -0.10994000512E+04  0.10997950337E+04  0.00000000000E+00 0. -1.
          1    1    1    2  502    0 -0.39401189964E+02  0.19708296716E+02 -0.97494325169E+02  0.10698604661E+03  0.00000000000E+00 0. -1.
         22    1    3    3    0    0 -0.15857840428E+02 -0.58995560691E+02 -0.24358838022E+03  0.25113193000E+03  0.00000000000E+00 0.  1.
         22    1    3    3    0    0  0.67343224640E+02  0.12405748681E+02 -0.68320277562E+03  0.68662584070E+03  0.00000000000E+00 0.  1.
</event>
<event>
 7    1  0.6888431E-006  0.8968905E+02  0.7818608E-02  0.1463432E+00
          2   -1    0    0  502    0  0.00000000000E+00  0.00000000000E+00  0.22907361935E+04  0.22907361935E+04  0.00000000000E+00 0. -1.
          1   -1    0    0  501    0 -0.00000000000E+00 -0.00000000000E+00 -0.64956993693E+03  0.64956993693E+03  0.00000000000E+00 0. -1.
         25    2    1    2    0    0  0.43416503277E+02  0.83327268153E+02  0.53917798849E+03  0.56139673508E+03  0.12499985803E+03 0.  0.
          2    1    1    2  501    0 -0.19371173582E+02 -0.87565904504E+02 -0.63522497037E+03  0.64152458486E+03  0.00000000000E+00 0. -1.
          1    1    1    2  502    0 -0.24045329694E+02  0.42386363508E+01  0.17372132385E+04  0.17373848105E+04  0.00000000000E+00 0. -1.
         22    1    3    3    0    0 -0.51177840976E+00  0.34692469271E+02  0.44673164115E+03  0.44807698953E+03  0.00000000000E+00 0.  1.
         22    1    3    3    0    0  0.43928281687E+02  0.48634798882E+02  0.92446347345E+02  0.11331974555E+03  0.00000000000E+00 0.  1.
</event>
<event>
 7    1  0.6888431E-006  0.3849219E+02  0.7818608E-02  0.1619129E+00
          2   -1    0    0  502    0  0.00000000000E+00  0.00000000000E+00  0.30131401557E+03  0.30131401557E+03  0.00000000000E+00 0. -1.
          1   -1    0    0  501    0 -0.00000000000E+00 -0.00000000000E+00 -0.17748850543E+03  0.17748850543E+03  0.00000000000E+00 0. -1.
         25    2    1    2    0    0 -0.14136729051E+02 -0.19166648674E+02 -0.45898285606E+02  0.13526719765E+03  0.12499341827E+03 0.  0.
          2    1    1    2  501    0 -0.20547823299E+02  0.18377571170E+01 -0.84188773398E+02  0.86679524456E+02  0.00000000000E+00 0. -1.
          1    1    1    2  502    0  0.34684552350E+02  0.17328891557E+02  0.25391256915E+03  0.25685579889E+03  0.00000000000E+00 0. -1.
         22    1    3    3    0    0 -0.31077816536E+02 -0.29591001484E+02 -0.82848910642E+02  0.93302733315E+02  0.00000000000E+00 0. -1.
         22    1    3    3    0    0  0.16941087486E+02  0.10424352810E+02  0.36950625036E+02  0.41964464339E+02  0.00000000000E+00 0. -1.
</event>
<event>
 7    1  0.6888431E-006  0.1695244E+03  0.7818608E-02  0.1249379E+00
          2   -1    0    0  502    0  0.00000000000E+00  0.00000000000E+00  0.12828044306E+04  0.12828044306E+04  0.00000000000E+00 0. -1.
          1   -1    0    0  501    0 -0.00000000000E+00 -0.00000000000E+00 -0.14690838162E+04  0.14690838162E+04  0.00000000000E+00 0. -1.
         25    2    1    2    0    0 -0.50978534968E+02 -0.84366535949E+02  0.12845339840E+03  0.20457385774E+03  0.12503465238E+03 0.  0.
          2    1    1    2  501    0  0.50859365083E+02  0.16411210632E+03 -0.14244305362E+04  0.14347549654E+04  0.00000000000E+00 0. -1.
          1    1    1    2  502    0  0.11916988498E+00 -0.79745570371E+02  0.11096977521E+04  0.11125594237E+04  0.00000000000E+00 0. -1.
         22    1    3    3    0    0 -0.92497947285E+02 -0.65599524606E+02  0.96785166546E+02  0.14908566780E+03  0.00000000000E+00 0.  1.
         22    1    3    3    0    0  0.41519412317E+02 -0.18767011343E+02  0.31668231857E+02  0.55488189940E+02  0.00000000000E+00 0.  1.
</event>
<event>
 7    1  0.6888431E-006  0.7399654E+02  0.7818608E-02  0.1506321E+00
          2   -1    0    0  502    0  0.00000000000E+00  0.00000000000E+00  0.36245615272E+03  0.36245615272E+03  0.00000000000E+00 0. -1.
          1   -1    0    0  501    0 -0.00000000000E+00 -0.00000000000E+00 -0.41843516112E+03  0.41843516112E+03  0.00000000000E+00 0. -1.
         25    2    1    2    0    0 -0.35292483086E+02  0.79335880712E+02  0.14050266356E+03  0.20714714992E+03  0.12501680656E+03 0.  0.
          2    1    1    2  501    0  0.19794541924E+02 -0.93752360583E+01 -0.37797925597E+03  0.37861330786E+03  0.00000000000E+00 0. -1.
          1    1    1    2  502    0  0.15497941162E+02 -0.69960644653E+02  0.18149758402E+03  0.19513085606E+03  0.00000000000E+00 0. -1.
         22    1    3    3    0    0  0.10102782107E+02 -0.25811953978E+02  0.25299967129E+01  0.27833865305E+02  0.00000000000E+00 0. -1.
         22    1    3    3    0    0 -0.45395265193E+02  0.10514783469E+03  0.13797266685E+03  0.17931328461E+03  0.00000000000E+00 0. -1.
</event>
<event>
 7    1  0.6888431E-006  0.1261151E+03  0.7818608E-02  0.1315380E+00
          2   -1    0    0  502    0  0.00000000000E+00  0.00000000000E+00  0.35137734678E+03  0.35137734678E+03  0.00000000000E+00 0. -1.
          1   -1    0    0  501    0 -0.00000000000E+00 -0.00000000000E+00 -0.78471957995E+03  0.78471957995E+03  0.00000000000E+00 0. -1.
         25    2    1    2    0    0 -0.47214825199E+02 -0.52187000223E+02  0.24663157237E+03  0.28531435341E+03  0.12499770022E+03 0.  0.
          2    1    1    2  501    0  0.92258258838E+02  0.87630265342E+02 -0.74975748678E+03  0.76047809877E+03  0.00000000000E+00 0. -1.
          1    1    1    2  502    0 -0.45043433639E+02 -0.35443265120E+02  0.69783681237E+02  0.90304474547E+02  0.00000000000E+00 0. -1.
         22    1    3    3    0    0  0.10272445414E+02  0.31407948666E+02  0.11176952247E+03  0.11655217084E+03  0.00000000000E+00 0.  1.
         22    1    3    3    0    0 -0.57487270613E+02 -0.83594948889E+02  0.13486204990E+03  0.16876218257E+03  0.00000000000E+00 0.  1.
</event>
<event>
 7    1  0.6888431E-006  0.8928832E+02  0.7818608E-02  0.1318939E+00
          2   -1    0    0  502    0  0.00000000000E+00  0.00000000000E+00  0.77299977031E+03  0.77299977031E+03  0.00000000000E+00 0. -1.
          1   -1    0    0  501    0 -0.00000000000E+00 -0.00000000000E+00 -0.12627245551E+03  0.12627245551E+03  0.00000000000E+00 0. -1.
         25    2    1    2    0    0 -0.19698198381E+02  0.68064238373E+01  0.38226103265E+02  0.13236495629E+03  0.12499960103E+03 0.  0.
          2    1    1    2  501    0  0.97932431625E+02  0.36226228535E+02 -0.40348850277E+02  0.11194253221E+03  0.00000000000E+00 0. -1.
          1    1    1    2  502    0 -0.78234233244E+02 -0.43032652373E+02  0.64885006181E+03  0.65496473732E+03  0.00000000000E+00 0. -1.
         22    1    3    3    0    0 -0.35357442057E+02  0.56933923942E+02 -0.65354689084E+00  0.67022738886E+02  0.00000000000E+00 0.  1.
         22    1    3    3    0    0  0.15659243676E+02 -0.50127500104E+02  0.38879650156E+02  0.65342217406E+02  0.00000000000E+00 0.  1.
</event>
<event>
 7    1  0.6888431E-006  0.8621338E+02  0.7818608E-02  0.1341785E+00
          2   -1    0    0  502    0  0.00000000000E+00  0.00000000000E+00  0.30438369891E+04  0.30438369891E+04  0.00000000000E+00 0. -1.
          1   -1    0    0  501    0 -0.00000000000E+00 -0.00000000000E+00 -0.16963614816E+02  0.16963614816E+02  0.00000000000E+00 0. -1.
         25    2    1    2    0    0  0.11523176896E+02 -0.31631008744E+02  0.12851752471E+04  0.12916787935E+04  0.12500154173E+03 0.  0.
          2    1    1    2  501    0  0.15433104488E+02  0.92345565556E+02  0.15534171163E+03  0.18137511286E+03  0.00000000000E+00 0. -1.
          1    1    1    2  502    0 -0.26956281384E+02 -0.60714556813E+02  0.15863564155E+04  0.15877466976E+04  0.00000000000E+00 0. -1.
         22    1    3    3    0    0 -0.43392946515E+02 -0.54438057176E+02  0.74181628760E+03  0.74507573738E+03  0.00000000000E+00 0.  1.
         22    1    3    3    0    0  0.54916123411E+02  0.22807048432E+02  0.54335895950E+03  0.54660305610E+03  0.00000000000E+00 0.  1.
</event>
<event>
 7    1  0.6888431E-006  0.3728389E+02  0.7818608E-02  0.1601544E+00
          2   -1    0    0  502    0  0.00000000000E+00  0.00000000000E+00  0.88775462761E+03  0.88775462761E+03  0.00000000000E+00 0. -1.
          1   -1    0    0  501    0 -0.00000000000E+00 -0.00000000000E+00 -0.25919907358E+02  0.25919907358E+02  0.00000000000E+00 0. -1.
         25    2    1    2    0    0 -0.17759391230E+02 -0.12525240003E+02  0.29747499036E+03  0.32339633249E+03  0.12498616070E+03 0.  0.
          2    1    1    2  501    0  0.15181272758E+02  0.36026559268E+02  0.17373218428E+02  0.42780985657E+02  0.00000000000E+00 0. -1.
          1    1    1    2  502    0  0.25781184724E+01 -0.23501319264E+02  0.54698651146E+03  0.54749721681E+03  0.00000000000E+00 0. -1.
         22    1    3    3    0    0  0.46772317811E+02 -0.25889518233E+02  0.18952560263E+03  0.19692097633E+03  0.00000000000E+00 0.  1.
         22    1    3    3    0    0 -0.64531709041E+02  0.13364278229E+02  0.10794938773E+03  0.12647535616E+03  0.00000000000E+00 0.  1.
</event>
<event>
 7    1  0.6888431E-006  0.9672197E+02  0.7818608E-02  0.1311458E+00
          2   -1    0    0  502    0  0.00000000000E+00  0.00000000000E+00  0.15058796581E+03  0.15058796581E+03  0.00000000000E+00 0. -1.
          1   -1    0    0  501    0 -0.00000000000E+00 -0.00000000000E+00 -0.18426093635E+04  0.18426093635E+04  0.00000000000E+00 0. -1.
         25    2    1    2    0    0  0.24903138402E+02 -0.60080563530E+02 -0.55636780873E+03  0.57393287279E+03  0.12499585377E+03 0.  0.
          2    1    1    2  501    0 -0.73002526317E+02 -0.25797957008E+02 -0.12590443943E+04  0.12614228832E+04  0.00000000000E+00 0. -1.
          1    1    1    2  502    0  0.48099387915E+02  0.85878520538E+02  0.12339080537E+03  0.15784157329E+03  0.00000000000E+00 0. -1.
         22    1    3    3    0    0  0.18486125556E+02  0.21279459135E+02 -0.36240414989E+03  0.36349872087E+03  0.00000000000E+00 0.  1.
         22    1    3    3    0    0  0.64170128459E+01 -0.81360022665E+02 -0.19396365884E+03  0.21043415192E+03  0.00000000000E+00 0.  1.
</event>
<event>
 7    1  0.6888431E-006  0.7067781E+02  0.7818608E-02  0.1403251E+00
          2   -1    0    0  502    0  0.00000000000E+00  0.00000000000E+00  0.59257154443E+02  0.59257154443E+02  0.00000000000E+00 0. -1.
          1   -1    0    0  501    0 -0.00000000000E+00 -0.00000000000E+00 -0.15902408757E+04  0.15902408757E+04  0.00000000000E+00 0. -1.
         25    2    1    2    0    0 -0.32484738986E+02 -0.63971722214E+02 -0.75620549254E+03  0.76981752165E+03  0.12499852072E+03 0.  0.
          2    1    1    2  501    0 -0.15651686989E+02  0.71977863690E+02 -0.81384467197E+03  0.81717130288E+03  0.00000000000E+00 0. -1.
          1    1    1    2  502    0  0.48136425975E+02 -0.80061414764E+01  0.39066443204E+02  0.62509205655E+02  0.00000000000E+00 0. -1.
         22    1    3    3    0    0  0.33177647523E+02 -0.52951395579E+02 -0.53970833871E+03  0.54331362717E+03  0.00000000000E+00 0. -1.
         22    1    3    3    0    0 -0.65662386509E+02 -0.11020326635E+02 -0.21649715382E+03  0.22650389448E+03  0.00000000000E+00 0. -1.
</event>
<event>
 7    1  0.6888431E-006  0.1758043E+03  0.7818608E-02  0.1366473E+00
          2   -1    0    0  502    0  0.00000000000E+00  0.00000000000E+00  0.84294561333E+03  0.84294561333E+03  0.00000000000E+00 0. -1.
          1   -1    0    0  501    0 -0.00000000000E+00 -0.00000000000E+00 -0.45159991654E+03  0.45159991654E+03  0.00000000000E+00 0. -1.
         25    2    1    2    0    0 -0.17216837191E+03  0.17749795853E+02  0.29479485476E+03  0.36398593473E+03  0.12499900299E+03 0.  0.
          2    1    1    2  501    0  0.17044579597E+03 -0.44117590127E+02 -0.39805215808E+03  0.43525125121E+03  0.00000000000E+00 0. -1.
          1    1    1    2  502    0  0.17225759365E+01  0.26367794274E+02  0.49460300012E+03  0.49530834394E+03  0.00000000000E+00 0. -1.
         22    1    3    3    0    0 -0.79123876590E+02 -0.35147676369E+02  0.21094675416E+03  0.22802298150E+03  0.00000000000E+00 0. -1.
         22    1    3    3    0    0 -0.93044495320E+02  0.52897472222E+02  0.83848100596E+02  0.13596295323E+03  0.00000000000E+00 0. -1.
</event>
<event>
 7    1  0.6888431E-006  0.5471866E+02  0.7818608E-02  0.1467297E+00
          2   -1    0    0  502    0  0.00000000000E+00  0.00000000000E+00  0.64229337590E+03  0.64229337590E+03  0.00000000000E+00 0. -1.
          1   -1    0    0  501    0 -0.00000000000E+00 -0.00000000000E+00 -0.19825379911E+04  0.19825379911E+04  0.00000000000E+00 0. -1.
         25    2    1    2    0    0  0.38719694885E+02  0.19232517879E+02  0.72995431247E+01  0.13246728169E+03  0.12500077149E+03 0.  0.
          2    1    1    2  501    0 -0.17629031767E+02 -0.51943302653E+02 -0.19189001477E+04  0.19196840017E+04  0.00000000000E+00 0. -1.
          1    1    1    2  502    0 -0.21090663117E+02  0.32710784774E+02  0.57135598941E+03  0.57268008359E+03  0.00000000000E+00 0. -1.
         22    1    3    3    0    0 -0.45879665770E+02  0.10877849792E+02  0.95344690077E-01  0.47151674815E+02  0.00000000000E+00 0.  1.
         22    1    3    3    0    0  0.84599360655E+02  0.83546680870E+01  0.72041984347E+01  0.85315606879E+02  0.00000000000E+00 0.  1.
</event>
<event>
 7    1  0.6888431E-006  0.8646037E+02  0.7818608E-02  0.1358930E+00
          2   -1    0    0  502    0  0.00000000000E+00  0.00000000000E+00  0.21042170876E+04  0.21042170876E+04  0.00000000000E+00 0. -1.
          1   -1    0    0  501    0 -0.00000000000E+00 -0.00000000000E+00 -0.31915158736E+03  0.31915158736E+03  0.00000000000E+00 0. -1.
         25    2    1    2    0    0 -0.29665720715E+02 -0.80922595164E+01  0.14102286450E+04  0.14160919662E+04  0.12500434289E+03 0.  0.
          2    1    1    2  501    0  0.86653042297E+02  0.28244728491E+01 -0.30905953150E+03  0.32098990856E+03  0.00000000000E+00 0. -1.
          1    1    1    2  502    0 -0.56987321582E+02  0.52677866673E+01  0.68389638673E+03  0.68628680023E+03  0.00000000000E+00 0. -1.
         22    1    3    3    0    0 -0.65337477551E+02 -0.91436015654E+01  0.41395522404E+03  0.41917957838E+03  0.00000000000E+00 0. -1.
         22    1    3    3    0    0  0.35671756836E+02  0.10513420490E+01  0.99627342098E+03  0.99691238778E+03  0.00000000000E+00 0. -1.
</event>
<event>
 7    1  0.6888431E-006  0.6700021E+02  0.7818608E-02  0.1487229E+00
          2   -1    0    0  502    0  0.00000000000E+00  0.00000000000E+00  0.19001641728E+04  0.19001641728E+04  0.00000000000E+00 0. -1.
          1   -1    0    0  501    0 -0.00000000000E+00 -0.00000000000E+00 -0.26132479021E+03  0.26132479021E+03  0.00000000000E+00 0. -1.
         25    2    1    2    0    0  0.14204837625E+02  0.53689402371E+02  0.50070685920E+02  0.14565734189E+03  0.12499863327E+03 0.  0.
          2    1    1    2  501    0  0.98892702082E+01 -0.67145159101E+02 -0.20802986301E+03  0.21882114606E+03  0.00000000000E+00 0. -1.
          1    1    1    2  502    0 -0.24094107833E+02  0.13455756729E+02  0.17967985597E+04  0.17970104751E+04  0.00000000000E+00 0. -1.
         22    1    3    3    0    0  0.31710169508E+02  0.61546906883E+02  0.82668483948E+02  0.10783151133E+03  0.00000000000E+00 0.  1.
         22    1    3    3    0    0 -0.17505331883E+02 -0.78575045115E+01 -0.32597798028E+02  0.37825830563E+02  0.00000000000E+00 0.  1.
</event>
<event>
 7    1  0.6888431E-006  0.8031578E+02  0.7818608E-02  0.1416071E+00
          2   -1    0    0  502    0  0.00000000000E+00  0.00000000000E+00  0.32024712926E+04  0.32024712926E+04  0.00000000000E+00 0. -1.
          1   -1    0    0  501    0 -0.00000000000E+00 -0.00000000000E+00 -0.16341140862E+02  0.16341140862E+02  0.00000000000E+00 0. -1.
         25    2    1    2    0    0 -0.41950373764E+02 -0.27688589103E+02  0.70204675315E+03  0.71485721856E+03  0.12499883000E+03 0.  0.
          2    1    1    2  501    0  0.71210561539E+02  0.53248728859E+02  0.19251550022E+03  0.21205798505E+03  0.00000000000E+00 0. -1.
          1    1    1    2  502    0 -0.29260187775E+02 -0.25560139755E+02  0.22915678984E+04  0.22918972299E+04  0.00000000000E+00 0. -1.
         22    1    3    3    0    0 -0.63170974757E+02  0.25730188786E+02  0.50539811750E+03  0.50998026613E+03  0.00000000000E+00 0. -1.
         22    1    3    3    0    0  0.21220600993E+02 -0.53418777890E+02  0.19664863565E+03  0.20487695244E+03  0.00000000000E+00 0. -1.
</event>
<event>
 7    1  0.8348617E-006  0.1413359E+03  0.7818608E-02  0.1272438E+00
          2   -1    0    0  502    0  0.00000000000E+00  0.00000000000E+00  0.22026982101E+04  0.22026982101E+04  0.00000000000E+00 0. -1.
          1   -1    0    0  501    0 -0.00000000000E+00 -0.00000000000E+00 -0.92194814070E+03  0.92194814070E+03  0.00000000000E+00 0. -1.
         25    2    1    2    0    0  0.18531150366E+02 -0.18271709822E+03 -0.16934582979E+03  0.27934084503E+03  0.12499742447E+03 0.  0.
          2    1    1    2  501    0 -0.59485217069E+02  0.47750449575E+02 -0.69319474574E+03  0.69737905906E+03  0.00000000000E+00 0. -1.
          1    1    1    2  502    0  0.40954066703E+02  0.13496664864E+03  0.21432906449E+04  0.21479264467E+04  0.00000000000E+00 0. -1.
         22    1    3    3    0    0  0.14508869287E+02 -0.10764855200E+03 -0.17277873116E+03  0.20408627581E+03  0.00000000000E+00 0. -1.
         22    1    3    3    0    0  0.40222810792E+01 -0.75068546219E+02  0.34329013715E+01  0.75254569219E+02  0.00000000000E+00 0. -1.
</event>
<event>
 7    1  0.6888431E-006  0.2277457E+03  0.7818608E-02  0.1355517E+00
          2   -1    0    0  502    0  0.00000000000E+00  0.00000000000E+00  0.22656985863E+04  0.22656985863E+04  0.00000000000E+00 0. -1.
          1   -1    0    0  501    0 -0.00000000000E+00 -0.00000000000E+00 -0.14393590809E+04  0.14393590809E+04  0.00000000000E+00 0. -1.
         25    2    1    2    0    0  0.52475679804E+02  0.23779585875E+03 -0.20751257318E+03  0.34349254976E+03  0.12500038523E+03 0.  0.
          2    1    1    2  501    0 -0.18214878533E+02 -0.12971401127E+02 -0.11578648924E+04  0.11580808038E+04  0.00000000000E+00 0. -1.
          1    1    1    2  502    0 -0.34260801271E+02 -0.22482445762E+03  0.21917169711E+04  0.22034843136E+04  0.00000000000E+00 0. -1.
         22    1    3    3    0    0  0.72234404476E+01  0.14920063299E+03 -0.50622439800E+02  0.15772012677E+03  0.00000000000E+00 0.  1.
         22    1    3    3    0    0  0.45252239357E+02  0.88595225754E+02 -0.15689013338E+03  0.18577242299E+03  0.00000000000E+00 0.  1.
</event>
<event>
 7    1  0.6888431E-006  0.5724211E+02  0.7818608E-02  0.1470511E+00
          2   -1    0    0  502    0  0.00000000000E+00  0.00000000000E+00  0.69258461220E+03  0.69258461220E+03  0.00000000000E+00 0. -1.
          1   -1    0    0  501    0 -0.00000000000E+00 -0.00000000000E+00 -0.43416167102E+03  0.43416167102E+03  0.00000000000E+00 0. -1.
         25    2    1    2    0    0 -0.31167485880E+02 -0.19993677135E+01 -0.43363433123E+02  0.13594416865E+03  0.12500008005E+03 0.  0.
          2    1    1    2  501    0 -0.18549906359E+02  0.31268455947E+02 -0.34225560780E+03  0.34418122615E+03  0.00000000000E+00 0. -1.
          1    1    1    2  502    0  0.49717392238E+02 -0.29269088233E+02  0.64404198210E+03  0.64662088841E+03  0.00000000000E+00 0. -1.
         22    1    3    3    0    0 -0.32523864835E+02  0.15671238396E+02 -0.84098825790E+02  0.91520500414E+02  0.00000000000E+00 0. -1.
         22    1    3    3    0    0  0.13563789549E+01 -0.17670606109E+02  0.40735392667E+02  0.44423668240E+02  0.00000000000E+00 0. -1.
</event>
<event>
 7    1  0.6888431E-006  0.7582088E+02  0.7818608E-02  0.1401464E+00
          2   -1    0    0  502    0  0.00000000000E+00  0.00000000000E+00  0.41334854222E+03  0.41334854222E+03  0.00000000000E+00 0. -1.
          1   -1    0    0  501    0 -0.00000000000E+00 -0.00000000000E+00 -0.22012478635E+03  0.22012478635E+03  0.00000000000E+00 0. -1.
         25    2    1    2    0    0  0.28620937637E+01  0.34642446722E+02 -0.42768808458E+02  0.13660851814E+03  0.12499770220E+03 0.  0.
          2    1    1    2  501    0  0.27614762255E+02  0.36955744458E+02 -0.12204264232E+03  0.13047110288E+03  0.00000000000E+00 0. -1.
          1    1    1    2  502    0 -0.30476856019E+02 -0.71598191180E+02  0.35803520665E+03  0.36639370755E+03  0.00000000000E+00 0. -1.
         22    1    3    3    0    0  0.21233201137E+02  0.29953876097E+02 -0.83755014099E+02  0.91449362548E+02  0.00000000000E+00 0.  1.
         22    1    3    3    0    0 -0.18371107374E+02  0.46885706253E+01  0.40986205641E+02  0.45159155589E+02  0.00000000000E+00 0.  1.
</event>
<event>
 7    1  0.6888431E-006  0.6056796E+02  0.7818608E-02  0.1459402E+00
          2   -1    0    0  502    0  0.00000000000E+00  0.00000000000E+00  0.59657793120E+02  0.59657793120E+02  0.00000000000E+00 0. -1.
          1   -1    0    0  501    0 -0.00000000000E+00 -0.00000000000E+00 -0.37489479819E+03  0.37489479819E+03  0.00000000000E+00 0. -1.
         25    2    1    2    0    0 -0.19674140319E+02 -0.59509288643E+02 -0.28091552097E+03  0.31379289452E+03  0.12499609394E+03 0.  0.
          2    1    1    2  501    0 -0.17495716864E+02  0.61576145413E+02 -0.49131518478E+02  0.80694658438E+02  0.00000000000E+00 0. -1.
          1    1    1    2  502    0  0.37169857182E+02 -0.20668567703E+01  0.14810034375E+02  0.40065038351E+02  0.00000000000E+00 0. -1.
         22    1    3    3    0    0 -0.68038732088E+02 -0.48275497784E+02 -0.12600275969E+03  0.15111746491E+03  0.00000000000E+00 0. -1.
         22    1    3    3    0    0  0.48364591769E+02 -0.11233790859E+02 -0.15491276128E+03  0.16267542962E+03  0.00000000000E+00 0. -1.
</event>
<event>
 7    1  0.6888431E-006  0.9542210E+02  0.7818608E-02  0.1455086E+00
          2   -1    0    0  502    0  0.00000000000E+00  0.00000000000E+00  0.78395033927E+03  0.78395033927E+03  0.00000000000E+00 0. -1.
          1   -1    0    0  501    0 -0.00000000000E+00 -0.00000000000E+00 -0.42982569560E+03  0.42982569560E+03  0.00000000000E+00 0. -1.
         25    2    1    2    0    0 -0.75611626288E+02 -0.72654314819E+02  0.51703648445E+03  0.54216934050E+03  0.12500040015E+03 0.  0.
          2    1    1    2  501    0  0.52279433770E+02  0.79742266353E+02 -0.41120674845E+03  0.42211723278E+03  0.00000000000E+00 0. -1.
          1    1    1    2  502    0  0.23332192519E+02 -0.70879515339E+01  0.24829490768E+03  0.24948946159E+03  0.00000000000E+00 0. -1.
         22    1    3    3    0    0  0.22199104676E+02 -0.47098890439E+02  0.96486135766E+02  0.10963886229E+03  0.00000000000E+00 0.  1.
         22    1    3    3    0    0 -0.97810730964E+02 -0.25555424380E+02  0.42055034868E+03  0.43253047821E+03  0.00000000000E+00 0.  1.
</event>
<event>
 7    1  0.6888431E-006  0.5276644E+02  0.7818608E-02  0.1500047E+00
          2   -1    0    0  502    0  0.00000000000E+00  0.00000000000E+00  0.22068554462E+04  0.22068554462E+04  0.00000000000E+00 0. -1.
          1   -1    0    0  501    0 -0.00000000000E+00 -0.00000000000E+00 -0.15654353301E+02  0.15654353301E+02  0.00000000000E+00 0. -1.
         25    2    1    2    0    0  0.49730965877E+02  0.23669174862E+02  0.16968973113E+04  0.17023862775E+04  0.12500061527E+03 0.  0.
          2    1    1    2  501    0 -0.26583501764E+02 -0.45853922702E+02  0.44578550926E+02  0.69256855226E+02  0.00000000000E+00 0. -1.
          1    1    1    2  502    0 -0.23147464113E+02  0.22184747840E+02  0.44972523065E+03  0.45086666678E+03  0.00000000000E+00 0. -1.
         22    1    3    3    0    0  0.69582680779E+02  0.40393368772E+02  0.62281634236E+03  0.62799169582E+03  0.00000000000E+00 0.  1.
         22    1    3    3    0    0 -0.19851714902E+02 -0.16724193911E+02  0.10740809689E+04  0.10743945817E+04  0.00000000000E+00 0.  1.
</event>
<event>
 7    1  0.6888431E-006  0.6250918E+02  0.7818608E-02  0.1409856E+00
          2   -1    0    0  502    0  0.00000000000E+00  0.00000000000E+00  0.15626163354E+04  0.15626163354E+04  0.00000000000E+00 0. -1.
          1   -1    0    0  501    0 -0.00000000000E+00 -0.00000000000E+00 -0.10232883462E+04  0.10232883462E+04  0.00000000000E+00 0. -1.
         25    2    1    2    0    0  0.38733383682E+02 -0.51721536047E+02 -0.14808587259E+03  0.20427850383E+03  0.12499955665E+03 0.  0.
          2    1    1    2  501    0 -0.63076186312E+02  0.53309302707E+01 -0.84547547242E+03  0.84784184761E+03  0.00000000000E+00 0. -1.
          1    1    1    2  502    0  0.24342802630E+02  0.46390605776E+02  0.15328893342E+04  0.15337843301E+04  0.00000000000E+00 0. -1.
         22    1    3    3    0    0  0.36595218429E+02 -0.90996112221E+02 -0.12421713132E+03  0.15827001663E+03  0.00000000000E+00 0. -1.
         22    1    3    3    0    0  0.21381652525E+01  0.39274576174E+02 -0.23868741269E+02  0.46008487196E+02  0.00000000000E+00 0. -1.
</event>
<event>
 7    1  0.6888431E-006  0.1077868E+03  0.7818608E-02  0.1266391E+00
          2   -1    0    0  502    0  0.00000000000E+00  0.00000000000E+00  0.31122416867E+03  0.31122416867E+03  0.00000000000E+00 0. -1.
          1   -1    0    0  501    0 -0.00000000000E+00 -0.00000000000E+00 -0.15182615723E+04  0.15182615723E+04  0.00000000000E+00 0. -1.
         25    2    1    2    0    0 -0.80376342570E+02  0.39961114881E+02 -0.12863466401E+03  0.20057348453E+03  0.12500239503E+03 0.  0.
          2    1    1    2  501    0  0.86950430649E+02  0.67625041798E+02 -0.13407595233E+04  0.13452767831E+04  0.00000000000E+00 0. -1.
          1    1    1    2  502    0 -0.65740880787E+01 -0.10758615668E+03  0.26235678376E+03  0.28363547333E+03  0.00000000000E+00 0. -1.
         22    1    3    3    0    0  0.11301628070E+01 -0.41963166666E+01  0.22695575030E+02  0.23107909197E+02  0.00000000000E+00 0. -1.
         22    1    3    3    0    0 -0.81506505377E+02  0.44157431548E+02 -0.15133023904E+03  0.17746557533E+03  0.00000000000E+00 0. -1.
</event>
<event>
 7    1  0.6888431E-006  0.8147611E+02  0.7818608E-02  0.1393882E+00
          2   -1    0    0  502    0  0.00000000000E+00  0.00000000000E+00  0.59336156483E+03  0.59336156483E+03  0.00000000000E+00 0. -1.
          1   -1    0    0  501    0 -0.00000000000E+00 -0.00000000000E+00 -0.10907105219E+04  0.10907105219E+04  0.00000000000E+00 0. -1.
         25    2    1    2    0    0 -0.95624252135E+01  0.10444915850E+03 -0.46194954194E+03  0.48992108742E+03  0.12499690361E+03 0.  0.
          2    1    1    2  501    0 -0.30699912021E+02 -0.33713807030E+02 -0.61106309702E+03  0.61276195535E+03  0.00000000000E+00 0. -1.
          1    1    1    2  502    0  0.40262337234E+02 -0.70735351470E+02  0.57566368191E+03  0.58138904394E+03  0.00000000000E+00 0. -1.
         22    1    3    3    0    0  0.57855246877E+02  0.46997116759E+02 -0.21757754287E+03  0.22999118622E+03  0.00000000000E+00 0. -1.
         22    1    3    3    0    0 -0.67417672091E+02  0.57452041740E+02 -0.24437199907E+03  0.25992990120E+03  0.00000000000E+00 0. -1.
</event>
<event>
 7    1  0.6888431E-006  0.6142461E+02  0.7818608E-02  0.1413297E+00
          2   -1    0    0  502    0  0.00000000000E+00  0.00000000000E+00  0.48329309564E+03  0.48329309564E+03  0.00000000000E+00 0. -1.
          1   -1    0    0  501    0 -0.00000000000E+00 -0.00000000000E+00 -0.15662340388E+04  0.15662340388E+04  0.00000000000E+00 0. -1.
         25    2    1    2    0    0 -0.87644130060E+02  0.57836523147E+02 -0.34976387752E+03  0.38598791354E+03  0.12500136976E+03 0.  0.
          2    1    1    2  501    0  0.36853313348E+02 -0.47139696812E+02 -0.11961600927E+04  0.11976557457E+04  0.00000000000E+00 0. -1.
          1    1    1    2  502    0  0.50790816712E+02 -0.10696826335E+02  0.46298302706E+03  0.46588347524E+03  0.00000000000E+00 0. -1.
         22    1    3    3    0    0 -0.11609502725E+03  0.23651514573E+02 -0.26441653186E+03  0.28974739311E+03  0.00000000000E+00 0. -1.
         22    1    3    3    0    0  0.28450897192E+02  0.34185008574E+02 -0.85347345652E+02  0.96240520427E+02  0.00000000000E+00 0. -1.
</event>
<event>
 7    1  0.6888431E-006  0.1135068E+03  0.7818608E-02  0.1438345E+00
          2   -1    0    0  502    0  0.00000000000E+00  0.00000000000E+00  0.22114189523E+03  0.22114189523E+03  0.00000000000E+00 0. -1.
          1   -1    0    0  501    0 -0.00000000000E+00 -0.00000000000E+00 -0.13940635555E+04  0.13940635555E+04  0.00000000000E+00 0. -1.
         25    2    1    2    0    0 -0.65913710838E+01 -0.10476434912E+03 -0.76890612490E+02  0.18043374112E+03  0.12500061450E+03 0.  0.
          2    1    1    2  501    0 -0.15093579590E+02  0.11302224985E+03 -0.12620240204E+04  0.12671647379E+04  0.00000000000E+00 0. -1.
          1    1    1    2  502    0  0.21684950674E+02 -0.82579007336E+01  0.16599297257E+03  0.16760697168E+03  0.00000000000E+00 0. -1.
         22    1    3    3    0    0 -0.12574740911E+02  0.68666407584E+01 -0.66652135237E+02  0.68174643350E+02  0.00000000000E+00 0. -1.
         22    1    3    3    0    0  0.59833698276E+01 -0.11163098987E+03 -0.10238477254E+02  0.11225909777E+03  0.00000000000E+00 0. -1.
</event>
<event>
 7    1  0.6888431E-006  0.5296652E+02  0.7818608E-02  0.1439583E+00
          2   -1    0    0  502    0  0.00000000000E+00  0.00000000000E+00  0.24655414858E+03  0.24655414858E+03  0.00000000000E+00 0. -1.
          1   -1    0    0  501    0 -0.00000000000E+00 -0.00000000000E+00 -0.58701218097E+03  0.58701218097E+03  0.00000000000E+00 0. -1.
         25    2    1    2    0    0 -0.21509072066E+02 -0.39322228722E+02 -0.15438983370E+03  0.20364284884E+03  0.12500124512E+03 0.  0.
          2    1    1    2  501    0 -0.31967864241E+02  0.37488097748E+02 -0.40324932162E+03  0.40624785194E+03  0.00000000000E+00 0. -1.
          1    1    1    2  502    0  0.53476936307E+02  0.18341309749E+01  0.21718112292E+03  0.22367562877E+03  0.00000000000E+00 0. -1.
         22    1    3    3    0    0 -0.56274247539E+01 -0.83954110790E+02 -0.84822511819E+02  0.11947727457E+03  0.00000000000E+00 0. -1.
         22    1    3    3    0    0 -0.15881647312E+02  0.44631882068E+02 -0.69567321877E+02  0.84165574265E+02  0.00000000000E+00 0. -1.
</event>
<event>
 7    1  0.6888431E-006  0.3436576E+02  0.7818608E-02  0.1582369E+00
          2   -1    0    0  502    0  0.00000000000E+00  0.00000000000E+00  0.44909162770E+03  0.44909162770E+03  0.00000000000E+00 0. -1.
          1   -1    0    0  501    0 -0.00000000000E+00 -0.00000000000E+00 -0.17871160105E+04  0.17871160105E+04  0.00000000000E+00 0. -1.
         25    2    1    2    0    0 -0.93999295779E+01 -0.39965068221E+01 -0.28350150784E+02  0.12857634504E+03  0.12499525876E+03 0.  0.
          2    1    1    2  501    0  0.10593823424E+02  0.32793021658E+02 -0.17079582239E+04  0.17083058584E+04  0.00000000000E+00 0. -1.
          1    1    1    2  502    0 -0.11938938466E+01 -0.28796514836E+02  0.39828399186E+03  0.39932543473E+03  0.00000000000E+00 0. -1.
         22    1    3    3    0    0 -0.56409045607E+02 -0.14790208032E+02 -0.48942420889E+02  0.76132064482E+02  0.00000000000E+00 0.  1.
         22    1    3    3    0    0  0.47009116029E+02  0.10793701210E+02  0.20592270105E+02  0.52444280562E+02  0.00000000000E+00 0.  1.
</event>
<event>
 7    1  0.6888431E-006  0.1373117E+03  0.7818608E-02  0.1243207E+00
          2   -1    0    0  502    0  0.00000000000E+00  0.00000000000E+00  0.73596462699E+03  0.73596462699E+03  0.00000000000E+00 0. -1.
          1   -1    0    0  501    0 -0.00000000000E+00 -0.00000000000E+00 -0.56709064133E+03  0.56709064133E+03  0.00000000000E+00 0. -1.
         25    2    1    2    0    0  0.12740031074E+03  0.10378786273E+03  0.24388192065E+03  0.31954015416E+03  0.12499903709E+03 0.  0.
          2    1    1    2  501    0 -0.13760105711E+03  0.46845707383E+00 -0.51405042835E+03  0.53214858194E+03  0.00000000000E+00 0. -1.
          1    1    1    2  502    0  0.10200746372E+02 -0.10425631981E+03  0.43904249335E+03  0.45136653223E+03  0.00000000000E+00 0. -1.
         22    1    3    3    0    0  0.70213304201E+02 -0.17480139680E+02  0.82803097635E+02  0.10996279529E+03  0.00000000000E+00 0. -1.
         22    1    3    3    0    0  0.57187006536E+02  0.12126800241E+03  0.16107882302E+03  0.20957735887E+03  0.00000000000E+00 0. -1.
</event>
<event>
 7    1  0.6888431E-006  0.2883897E+03  0.7818608E-02  0.1232190E+00
          2   -1    0    0  502    0  0.00000000000E+00  0.00000000000E+00  0.74324003222E+03  0.74324003222E+03  0.00000000000E+00 0. -1.
          1   -1    0    0  501    0 -0.00000000000E+00 -0.00000000000E+00 -0.10225143900E+04  0.10225143900E+04  0.00000000000E+00 0. -1.
         25    2    1    2    0    0 -0.30015912603E+03  0.13403682895E+03 -0.79444558535E+02  0.36055165861E+03  0.12499875274E+03 0.  0.
          2    1    1    2  501    0  0.31723884592E+02 -0.45910559934E+02 -0.76833701039E+03  0.77036091924E+03  0.00000000000E+00 0. -1.
          1    1    1    2  502    0  0.26843524144E+03 -0.88126269015E+02  0.56850721118E+03  0.63484184433E+03  0.00000000000E+00 0. -1.
         22    1    3    3    0    0  0.92098103387E+01  0.17797435210E+02  0.21160816408E+01  0.20150610612E+02  0.00000000000E+00 0.  1.
         22    1    3    3    0    0 -0.30936893637E+03  0.11623939374E+03 -0.81560640176E+02  0.34040104799E+03  0.00000000000E+00 0.  1.
</event>
<event>
 7    1  0.6888431E-006  0.1369670E+03  0.7818608E-02  0.1244881E+00
          2   -1    0    0  502    0  0.00000000000E+00  0.00000000000E+00  0.15672770064E+04  0.15672770064E+04  0.00000000000E+00 0. -1.
          1   -1    0    0  501    0 -0.00000000000E+00 -0.00000000000E+00 -0.20916053488E+04  0.20916053488E+04  0.00000000000E+00 0. -1.
         25    2    1    2    0    0 -0.13474505608E+03  0.57199584704E+02  0.21950577350E+01  0.19250417776E+03  0.12500007019E+03 0.  0.
          2    1    1    2  501    0  0.47127933153E+01 -0.10315227710E+03 -0.19918756190E+04  0.19945503463E+04  0.00000000000E+00 0. -1.
          1    1    1    2  502    0  0.13003226277E+03  0.45952692398E+02  0.14653522188E+04  0.14718278311E+04  0.00000000000E+00 0. -1.
         22    1    3    3    0    0 -0.60755827998E+01 -0.31261780290E+02  0.16203971156E+02  0.35732062555E+02  0.00000000000E+00 0. -1.
         22    1    3    3    0    0 -0.12866947328E+03  0.88461364994E+02 -0.14008913421E+02  0.15677211521E+03  0.00000000000E+00 0. -1.
</event>
<event>
 7    1  0.6888431E-006  0.1127512E+03  0.7818608E-02  0.1377693E+00
          2   -1    0    0  502    0  0.00000000000E+00  0.00000000000E+00  0.21569261171E+03  0.21569261171E+03  0.00000000000E+00 0. -1.
          1   -1    0    0  501    0 -0.00000000000E+00 -0.00000000000E+00 -0.13070290546E+04  0.13070290546E+04  0.00000000000E+00 0. -1.
         25    2    1    2    0    0  0.74496397515E+02 -0.36800344337E+02 -0.17778161910E+03  0.23268664189E+03  0.12503115867E+03 0.  0.
          2    1    1    2  501    0 -0.11173604195E+03  0.31925259773E+02 -0.10968210882E+04  0.11029599561E+04  0.00000000000E+00 0. -1.
          1    1    1    2  502    0  0.37239644432E+02  0.48750845645E+01  0.18326626433E+03  0.18707506838E+03  0.00000000000E+00 0. -1.
         22    1    3    3    0    0  0.92353428188E+02 -0.31357778834E+02 -0.62356874925E+02  0.11576202245E+03  0.00000000000E+00 0.  1.
         22    1    3    3    0    0 -0.17857030672E+02 -0.54425655027E+01 -0.11542474417E+03  0.11692461944E+03  0.00000000000E+00 0.  1.
</event>
<event>
 7    1  0.6888431E-006  0.1971274E+03  0.7818608E-02  0.1245969E+00
          2   -1    0    0  502    0  0.00000000000E+00  0.00000000000E+00  0.24609987073E+04  0.24609987073E+04  0.00000000000E+00 0. -1.
          1   -1    0    0  501    0 -0.00000000000E+00 -0.00000000000E+00 -0.10948295572E+04  0.10948295572E+04  0.00000000000E+00 0. -1.
         25    2    1    2    0    0  0.33584157898E+02 -0.12781618254E+03  0.34517008245E+02  0.18515454753E+03  0.12500364167E+03 0.  0.
          2    1    1    2  501    0 -0.52574909182E+02  0.19619274462E+03 -0.10088511063E+04  0.10290948784E+04  0.00000000000E+00 0. -1.
          1    1    1    2  502    0  0.18990751284E+02 -0.68376562083E+02  0.23405032481E+04  0.23415788385E+04  0.00000000000E+00 0. -1.
         22    1    3    3    0    0 -0.35521945494E+02 -0.83803221231E+00  0.17449519759E+02  0.39585308505E+02  0.00000000000E+00 0.  1.
         22    1    3    3    0    0  0.69106103392E+02 -0.12697815033E+03  0.17067488486E+02  0.14556923902E+03  0.00000000000E+00 0.  1.
</event>
<event>
 7    1  0.6888431E-006  0.6242740E+02  0.7818608E-02  0.1428747E+00
          2   -1    0    0  502    0  0.00000000000E+00  0.00000000000E+00  0.43120452357E+03  0.43120452357E+03  0.00000000000E+00 0. -1.
          1   -1    0    0  501    0 -0.00000000000E+00 -0.00000000000E+00 -0.15115230917E+03  0.15115230917E+03  0.00000000000E+00 0. -1.
         25    2    1    2    0    0 -0.36765943524E+02  0.48543701270E+02 -0.92882606979E+02  0.16721313674E+03  0.12499931552E+03 0.  0.
          2    1    1    2  501    0  0.72192048407E+02 -0.20218844103E+02  0.52523857924E+02  0.91538238793E+02  0.00000000000E+00 0. -1.
          1    1    1    2  502    0 -0.35426104883E+02 -0.28324857166E+02  0.32041096345E+03  0.32360545722E+03  0.00000000000E+00 0. -1.
         22    1    3    3    0    0  0.19595573065E+02  0.63870229406E+02 -0.85248124062E+02  0.10830805761E+03  0.00000000000E+00 0.  1.
         22    1    3    3    0    0 -0.56361516589E+02 -0.15326528136E+02 -0.76344829166E+01  0.58905079121E+02  0.00000000000E+00 0.  1.
</event>
<event>
 7    1  0.6888431E-006  0.5368650E+02  0.7818608E-02  0.1461314E+00
          2   -1    0    0  502    0  0.00000000000E+00  0.00000000000E+00  0.41589102413E+03  0.41589102413E+03  0.00000000000E+00 0. -1.
          1   -1    0    0  501    0 -0.00000000000E+00 -0.00000000000E+00 -0.20375233597E+03  0.20375233597E+03  0.00000000000E+00 0. -1.
         25    2    1    2    0    0 -0.61163207952E+02  0.57893911709E+02  0.24882315369E+03  0.29091130355E+03  0.12499512670E+03 0.  0.
          2    1    1    2  501    0  0.38584661359E+02 -0.15061383294E+02 -0.17622628361E+03  0.18102851818E+03  0.00000000000E+00 0. -1.
          1    1    1    2  502    0  0.22578546593E+02 -0.42832528415E+02  0.13954181808E+03  0.14770353838E+03  0.00000000000E+00 0. -1.
         22    1    3    3    0    0  0.23502665219E+02 -0.28517711876E+01  0.29372218700E+01  0.23856553473E+02  0.00000000000E+00 0. -1.
         22    1    3    3    0    0 -0.84665873171E+02  0.60745682896E+02  0.24588593182E+03  0.26705475007E+03  0.00000000000E+00 0. -1.
</event>
<event>
 7    1  0.6888431E-006  0.5741181E+02  0.7818608E-02  0.1451987E+00
          2   -1    0    0  502    0  0.00000000000E+00  0.00000000000E+00  0.49649685916E+02  0.49649685916E+02  0.00000000000E+00 0. -1.
          1   -1    0    0  501    0 -0.00000000000E+00 -0.00000000000E+00 -0.49724290191E+03  0.49724290191E+03  0.00000000000E+00 0. -1.
         25    2    1    2    0    0  0.45970992268E+02  0.77965914660E+02 -0.36859022605E+03  0.39959648477E+03  0.12500631953E+03 0.  0.
          2    1    1    2  501    0 -0.33892157462E+02 -0.23880910722E+02 -0.81907003111E+02  0.91802687286E+02  0.00000000000E+00 0. -1.
          1    1    1    2  502    0 -0.12078834806E+02 -0.54085003938E+02  0.29040131673E+01  0.55493415769E+02  0.00000000000E+00 0. -1.
         22    1    3    3    0    0  0.40616130256E+02 -0.11446341344E+02 -0.23498457114E+03  0.23874345528E+03  0.00000000000E+00 0. -1.
         22    1    3    3    0    0  0.53548620119E+01  0.89412256004E+02 -0.13360565491E+03  0.16085302949E+03  0.00000000000E+00 0. -1.
</event>
<event>
 7    1  0.6888431E-006  0.1743855E+03  0.7818608E-02  0.1280869E+00
          2   -1    0    0  502    0  0.00000000000E+00  0.00000000000E+00  0.44463313377E+03  0.44463313377E+03  0.00000000000E+00 0. -1.
          1   -1    0    0  501    0 -0.00000000000E+00 -0.00000000000E+00 -0.41187830756E+03  0.41187830756E+03  0.00000000000E+00 0. -1.
         25    2    1    2    0    0 -0.10539132709E+03  0.73760344568E+02 -0.24513959276E+03  0.30375356115E+03  0.12499954286E+03 0.  0.
          2    1    1    2  501    0 -0.18143878150E+02  0.54069679150E+02 -0.11120276036E+03  0.12497513525E+03  0.00000000000E+00 0. -1.
          1    1    1    2  502    0  0.12353520524E+03 -0.12783002372E+03  0.38909717933E+03  0.42778274493E+03  0.00000000000E+00 0. -1.
         22    1    3    3    0    0 -0.10201934632E+03  0.29573345275E+02 -0.23557937461E+03  0.25841859747E+03  0.00000000000E+00 0. -1.
         22    1    3    3    0    0 -0.33719807631E+01  0.44186999293E+02 -0.95602181491E+01  0.45334963680E+02  0.00000000000E+00 0. -1.
</event>
<event>
 7    1  0.6888431E-006  0.2741917E+03  0.7818608E-02  0.1327607E+00
          2   -1    0    0  502    0  0.00000000000E+00  0.00000000000E+00  0.31513231374E+04  0.31513231374E+04  0.00000000000E+00 0. -1.
          1   -1    0    0  501    0 -0.00000000000E+00 -0.00000000000E+00 -0.76146474638E+03  0.76146474638E+03  0.00000000000E+00 0. -1.
         25    2    1    2    0    0  0.49493543230E+01  0.27952396463E+03  0.50683717562E+03  0.59217243925E+03  0.12500452912E+03 0.  0.
          2    1    1    2  501    0 -0.22678334685E+02 -0.66759254849E+01 -0.71141675838E+03  0.71180944006E+03  0.00000000000E+00 0. -1.
          1    1    1    2  502    0  0.17728980362E+02 -0.27284803915E+03  0.25944379738E+04  0.26088060045E+04  0.00000000000E+00 0. -1.
         22    1    3    3    0    0  0.17654312775E+02  0.24996163528E+03  0.34059245251E+03  0.42284242050E+03  0.00000000000E+00 0. -1.
         22    1    3    3    0    0 -0.12704958452E+02  0.29562329355E+02  0.16624472311E+03  0.16933001874E+03  0.00000000000E+00 0. -1.
</event>
<event>
 7    1  0.6888431E-006  0.9951653E+02  0.7818608E-02  0.1284545E+00
          2   -1    0    0  502    0  0.00000000000E+00  0.00000000000E+00  0.13422843770E+04  0.13422843770E+04  0.00000000000E+00 0. -1.
          1   -1    0    0  501    0 -0.00000000000E+00 -0.00000000000E+00 -0.82935623911E+02  0.82935623911E+02  0.00000000000E+00 0. -1.
         25    2    1    2    0    0 -0.74335869536E+02  0.23271990029E+02  0.27086000975E+03  0.30831452626E+03  0.12500118080E+03 0.  0.
          2    1    1    2  501    0  0.50280117541E+02  0.82388329652E+02 -0.23331502266E+02  0.99298973211E+02  0.00000000000E+00 0. -1.
          1    1    1    2  502    0  0.24055751995E+02 -0.10566031968E+03  0.10118202457E+04  0.10176065015E+04  0.00000000000E+00 0. -1.
         22    1    3    3    0    0 -0.99903134626E+02 -0.82643253387E+01  0.14664760615E+03  0.17763573901E+03  0.00000000000E+00 0. -1.
         22    1    3    3    0    0  0.25567265089E+02  0.31536315367E+02  0.12421240359E+03  0.13067878725E+03  0.00000000000E+00 0. -1.
</event>
<event>
 7    1  0.6888431E-006  0.6302358E+02  0.7818608E-02  0.1486359E+00
          2   -1    0    0  502    0  0.00000000000E+00  0.00000000000E+00  0.27513250738E+04  0.27513250738E+04  0.00000000000E+00 0. -1.
          1   -1    0    0  501    0 -0.00000000000E+00 -0.00000000000E+00 -0.33567410234E+02  0.33567410234E+02  0.00000000000E+00 0. -1.
         25    2    1    2    0    0  0.79096125036E+01 -0.82171110270E+02  0.19982304615E+04  0.20038358541E+04  0.12497399530E+03 0.  0.
          2    1    1    2  501    0 -0.24529048344E+02  0.57777302296E+02  0.18738523451E+01  0.62796514202E+02  0.00000000000E+00 0. -1.
          1    1    1    2  502    0  0.16619435841E+02  0.24393807974E+02  0.71765334974E+03  0.71826011577E+03  0.00000000000E+00 0. -1.
         22    1    3    3    0    0  0.59672493596E+02 -0.14004953052E+02  0.64685215269E+03  0.64974968461E+03  0.00000000000E+00 0.  1.
         22    1    3    3    0    0 -0.51762881092E+02 -0.68166157219E+02  0.13513783088E+04  0.13540861695E+04  0.00000000000E+00 0.  1.
</event>
<event>
 7    1  0.6888431E-006  0.6631704E+02  0.7818608E-02  0.1426535E+00
          2   -1    0    0  502    0  0.00000000000E+00  0.00000000000E+00  0.84944243756E+03  0.84944243756E+03  0.00000000000E+00 0. -1.
          1   -1    0    0  501    0 -0.00000000000E+00 -0.00000000000E+00 -0.89035674443E+03  0.89035674443E+03  0.00000000000E+00 0. -1.
         25    2    1    2    0    0  0.53129637406E+02 -0.69295395145E+01  0.18272731441E+03  0.22778230122E+03  0.12499891371E+03 0.  0.
          2    1    1    2  501    0 -0.64963928560E+01 -0.42932939848E+02 -0.86547459874E+03  0.86656316648E+03  0.00000000000E+00 0. -1.
          1    1    1    2  502    0 -0.46633244550E+02  0.49862479362E+02  0.64183297745E+03  0.64545371429E+03  0.00000000000E+00 0. -1.
         22    1    3    3    0    0  0.73806989563E+02 -0.15210070437E-01  0.19076492524E+03  0.20454517507E+03  0.00000000000E+00 0.  1.
         22    1    3    3    0    0 -0.20677352156E+02 -0.69143294440E+01 -0.80376108345E+01  0.23237126151E+02  0.00000000000E+00 0.  1.
</event>
<event>
 7    1  0.6888431E-006  0.1102234E+03  0.7818608E-02  0.1376716E+00
          2   -1    0    0  502    0  0.00000000000E+00  0.00000000000E+00  0.11063755182E+04  0.11063755182E+04  0.00000000000E+00 0. -1.
          1   -1    0    0  501    0 -0.00000000000E+00 -0.00000000000E+00 -0.73287632447E+03  0.73287632447E+03  0.00000000000E+00 0. -1.
         25    2    1    2    0    0 -0.86236759119E+02 -0.13481086819E+02  0.81835884568E+02  0.17303391624E+03  0.12500042336E+03 0.  0.
          2    1    1    2  501    0 -0.24662673322E+02  0.29858823839E+02 -0.68351807761E+03  0.68461431422E+03  0.00000000000E+00 0. -1.
          1    1    1    2  502    0  0.11089943244E+03 -0.16377737020E+02  0.97518138673E+03  0.98160361216E+03  0.00000000000E+00 0. -1.
         22    1    3    3    0    0  0.31275660266E+02 -0.64362611340E+00  0.40923154948E+01  0.31548822890E+02  0.00000000000E+00 0. -1.
         22    1    3    3    0    0 -0.11751241939E+03 -0.12837460706E+02  0.77743569073E+02  0.14148509335E+03  0.00000000000E+00 0. -1.
</event>
<event>
 7    1  0.6888431E-006  0.1912540E+03  0.7818608E-02  0.1261475E+00
          2   -1    0    0  502    0  0.00000000000E+00  0.00000000000E+00  0.37207751648E+03  0.37207751648E+03  0.00000000000E+00 0. -1.
          1   -1    0    0  501    0 -0.00000000000E+00 -0.00000000000E+00 -0.15282114898E+04  0.15282114898E+04  0.00000000000E+00 0. -1.
         25    2    1    2    0    0  0.17134354222E+03 -0.11526777861E+03 -0.76976321608E+02  0.25336946757E+03  0.12500185102E+03 0.  0.
          2    1    1    2  501    0 -0.11870466329E+03  0.14934607086E+03 -0.13527993390E+04  0.13661848694E+04  0.00000000000E+00 0. -1.
          1    1    1    2  502    0 -0.52638878938E+02 -0.34078292254E+02  0.27364168721E+03  0.28073466932E+03  0.00000000000E+00 0. -1.
         22    1    3    3    0    0  0.10888893639E+03 -0.11374781888E+03 -0.10028687518E+03  0.18668911083E+03  0.00000000000E+00 0. -1.
         22    1    3    3    0    0  0.62454605832E+02 -0.15199597313E+01  0.23310553569E+02  0.66680356740E+02  0.00000000000E+00 0. -1.
</event>
<event>
 7    1  0.6888431E-006  0.1304440E+03  0.7818608E-02  0.1427489E+00
          2   -1    0    0  502    0  0.00000000000E+00  0.00000000000E+00  0.46293915459E+03  0.46293915459E+03  0.00000000000E+00 0. -1.
          1   -1    0    0  501    0 -0.00000000000E+00 -0.00000000000E+00 -0.33220745869E+03  0.33220745869E+03  0.00000000000E+00 0. -1.
         25    2    1    2    0    0  0.11181792605E+03  0.11938742750E+02 -0.86680219005E+00  0.16813601949E+03  0.12499274994E+03 0.  0.
          2    1    1    2  501    0 -0.13360077209E+03 -0.14347855983E+02 -0.22912675759E+03  0.26562021444E+03  0.00000000000E+00 0. -1.
          1    1    1    2  502    0  0.21782846039E+02  0.24091132334E+01  0.36072525568E+03  0.36139037936E+03  0.00000000000E+00 0. -1.
         22    1    3    3    0    0 -0.11285334872E+02 -0.33002908821E+02  0.10941175491E+02  0.36554891533E+02  0.00000000000E+00 0.  1.
         22    1    3    3    0    0  0.12310326093E+03  0.44941651571E+02 -0.11807977681E+02  0.13158112795E+03  0.00000000000E+00 0.  1.
</event>
<event>
 7    1  0.6888431E-006  0.8813216E+02  0.7818608E-02  0.1420445E+00
          2   -1    0    0  502    0  0.00000000000E+00  0.00000000000E+00  0.19066765216E+04  0.19066765216E+04  0.00000000000E+00 0. -1.
          1   -1    0    0  501    0 -0.00000000000E+00 -0.00000000000E+00 -0.17757551995E+02  0.17757551995E+02  0.00000000000E+00 0. -1.
         25    2    1    2    0    0  0.29253252911E+01  0.70952239501E+02  0.44990839510E+03  0.47231937383E+03  0.12500099636E+03 0.  0.
          2    1    1    2  501    0 -0.30411290983E+02  0.15716014325E+02  0.52803035909E+02  0.62928533486E+02  0.00000000000E+00 0. -1.
          1    1    1    2  502    0  0.27485965691E+02 -0.86668253826E+02  0.13862075386E+04  0.13891861663E+04  0.00000000000E+00 0. -1.
         22    1    3    3    0    0 -0.31440817011E+01 -0.11457086084E+02  0.30708213237E+03  0.30731187106E+03  0.00000000000E+00 0. -1.
         22    1    3    3    0    0  0.60694069923E+01  0.82409325585E+02  0.14282626273E+03  0.16500750277E+03  0.00000000000E+00 0. -1.
</event>
<event>
 7    1  0.6888431E-006  0.8276477E+02  0.7818608E-02  0.1393248E+00
          2   -1    0    0  502    0  0.00000000000E+00  0.00000000000E+00  0.65827394716E+03  0.65827394716E+03  0.00000000000E+00 0. -1.
          1   -1    0    0  501    0 -0.00000000000E+00 -0.00000000000E+00 -0.43862943083E+03  0.43862943083E+03  0.00000000000E+00 0. -1.
         25    2    1    2    0    0  0.91530068427E+02 -0.33896517201E+02  0.70666282721E+02  0.17362505841E+03  0.12500084035E+03 0.  0.
          2    1    1    2  501    0 -0.81977378535E+02 -0.10195680309E+02 -0.38177541210E+03  0.39061068569E+03  0.00000000000E+00 0. -1.
          1    1    1    2  502    0 -0.95526898916E+01  0.44092197510E+02  0.53075364571E+03  0.53266763389E+03  0.00000000000E+00 0. -1.
         22    1    3    3    0    0  0.95786526094E+02  0.22903269481E+02  0.27791134947E+02  0.10233262195E+03  0.00000000000E+00 0. -1.
         22    1    3    3    0    0 -0.42564576674E+01 -0.56799786682E+02  0.42875147773E+02  0.71292436454E+02  0.00000000000E+00 0. -1.
</event>
<event>
 7    1  0.6888431E-006  0.6280601E+02  0.7818608E-02  0.1416519E+00
          2   -1    0    0  502    0  0.00000000000E+00  0.00000000000E+00  0.11790490790E+04  0.11790490790E+04  0.00000000000E+00 0. -1.
          1   -1    0    0  501    0 -0.00000000000E+00 -0.00000000000E+00 -0.34844881783E+03  0.34844881783E+03  0.00000000000E+00 0. -1.
         25    2    1    2    0    0  0.41857190072E+02 -0.10327385735E+03  0.69643369343E+03  0.71628390023E+03  0.12500088963E+03 0.  0.
          2    1    1    2  501    0 -0.29103026936E+02  0.55432795973E+02 -0.33431320095E+03  0.34012512017E+03  0.00000000000E+00 0. -1.
          1    1    1    2  502    0 -0.12754163136E+02  0.47841061375E+02  0.46847976867E+03  0.47108887642E+03  0.00000000000E+00 0. -1.
         22    1    3    3    0    0  0.35402424619E+02 -0.92963330426E+02  0.24146929153E+03  0.26115690921E+03  0.00000000000E+00 0.  1.
         22    1    3    3    0    0  0.64547654528E+01 -0.10310526922E+02  0.45496440190E+03  0.45512699102E+03  0.00000000000E+00 0.  1.
</event>
<event>
 7    1  0.6888431E-006  0.6453476E+02  0.7818608E-02  0.1443139E+00
          2   -1    0    0  502    0  0.00000000000E+00  0.00000000000E+00  0.32664478328E+03  0.32664478328E+03  0.00000000000E+00 0. -1.
          1   -1    0    0  501    0 -0.00000000000E+00 -0.00000000000E+00 -0.47901694716E+03  0.47901694716E+03  0.00000000000E+00 0. -1.
         25    2    1    2    0    0  0.13236334556E+02 -0.27107736995E+02 -0.23809433236E+02  0.13077199144E+03  0.12499757868E+03 0.  0.
          2    1    1    2  501    0 -0.59735653860E+01 -0.38921920754E+02 -0.39669849500E+03  0.39864808457E+03  0.00000000000E+00 0. -1.
          1    1    1    2  502    0 -0.72627691698E+01  0.66029657748E+02  0.26813576436E+03  0.27624165444E+03  0.00000000000E+00 0. -1.
         22    1    3    3    0    0 -0.44965547265E+02 -0.45633486926E+02 -0.27197399306E+02  0.69598951852E+02  0.00000000000E+00 0. -1.
         22    1    3    3    0    0  0.58201881820E+02  0.18525749932E+02  0.33879660707E+01  0.61173039585E+02  0.00000000000E+00 0. -1.
</event>
<event>
 7    1  0.6888431E-006  0.5394439E+02  0.7818608E-02  0.1429443E+00
          2   -1    0    0  502    0  0.00000000000E+00  0.00000000000E+00  0.48004530864E+03  0.48004530864E+03  0.00000000000E+00 0. -1.
          1   -1    0    0  501    0 -0.00000000000E+00 -0.00000000000E+00 -0.35913929125E+03  0.35913929125E+03  0.00000000000E+00 0. -1.
         25    2    1    2    0    0 -0.12360132627E+02  0.64566389336E+01 -0.55288216584E+02  0.13739171012E+03  0.12500093621E+03 0.  0.
          2    1    1    2  501    0  0.21410685124E+02  0.47622163367E+02 -0.25846635365E+03  0.26368758759E+03  0.00000000000E+00 0. -1.
          1    1    1    2  502    0 -0.90505524972E+01 -0.54078802300E+02  0.43466058762E+03  0.43810530217E+03  0.00000000000E+00 0. -1.
         22    1    3    3    0    0 -0.45052267453E+02 -0.15533746223E+02 -0.78375096215E+02  0.91726003844E+02  0.00000000000E+00 0. -1.
         22    1    3    3    0    0  0.32692134826E+02  0.21990385157E+02  0.23086879631E+02  0.45665706278E+02  0.00000000000E+00 0. -1.
</event>
<event>
 7    1  0.6888431E-006  0.4209349E+02  0.7818608E-02  0.1566039E+00
          2   -1    0    0  502    0  0.00000000000E+00  0.00000000000E+00  0.17696335256E+04  0.17696335256E+04  0.00000000000E+00 0. -1.
          1   -1    0    0  501    0 -0.00000000000E+00 -0.00000000000E+00 -0.53351929454E+02  0.53351929454E+02  0.00000000000E+00 0. -1.
         25    2    1    2    0    0 -0.51885294590E+02  0.38645379843E+02  0.10201994385E+04  0.10298628747E+04  0.12500038801E+03 0.  0.
          2    1    1    2  501    0  0.17022675332E+02 -0.19713883016E+02 -0.44455120136E+02  0.51523454517E+02  0.00000000000E+00 0. -1.
          1    1    1    2  502    0  0.34862619258E+02 -0.18931496828E+02  0.74053727772E+03  0.74159912587E+03  0.00000000000E+00 0. -1.
         22    1    3    3    0    0  0.26168327737E+02  0.54886006482E+01  0.62941333769E+03  0.62998099636E+03  0.00000000000E+00 0. -1.
         22    1    3    3    0    0 -0.78053622327E+02  0.33156779195E+02  0.39078610086E+03  0.39988187829E+03  0.00000000000E+00 0. -1.
</event>
<event>
 7    1  0.6888431E-006  0.7236982E+02  0.7818608E-02  0.1465466E+00
          2   -1    0    0  502    0  0.00000000000E+00  0.00000000000E+00  0.48472949425E+03  0.48472949425E+03  0.00000000000E+00 0. -1.
          1   -1    0    0  501    0 -0.00000000000E+00 -0.00000000000E+00 -0.76191607388E+02  0.76191607388E+02  0.00000000000E+00 0. -1.
         25    2    1    2    0    0  0.46841560816E+02 -0.79993445620E+02  0.16008098112E+03  0.22325858057E+03  0.12500156047E+03 0.  0.
          2    1    1    2  501    0 -0.48393474210E+02  0.50215750450E+02 -0.15982636331E+02  0.71547149513E+02  0.00000000000E+00 0. -1.
          1    1    1    2  502    0  0.15519133936E+01  0.29777695169E+02  0.26443954208E+03  0.26611537156E+03  0.00000000000E+00 0. -1.
         22    1    3    3    0    0  0.12786205705E+02  0.11993920013E+02  0.11318680030E+03  0.11453642624E+03  0.00000000000E+00 0.  1.
         22    1    3    3    0    0  0.34055355111E+02 -0.91987365633E+02  0.46894180820E+02  0.10872215433E+03  0.00000000000E+00 0.  1.
</event>
<event>
 7    1  0.6888431E-006  0.7560436E+02  0.7818608E-02  0.1487114E+00
          2   -1    0    0  502    0  0.00000000000E+00  0.00000000000E+00  0.38599663052E+03  0.38599663052E+03  0.00000000000E+00 0. -1.
          1   -1    0    0  501    0 -0.00000000000E+00 -0.00000000000E+00 -0.32500165767E+03  0.32500165767E+03  0.00000000000E+00 0. -1.
         25    2    1    2    0    0 -0.38760646654E+02  0.40025368381E+02  0.37620798124E+02  0.14193653995E+03  0.12500495622E+03 0.  0.
          2    1    1    2  501    0 -0.52535614462E+01  0.23905340975E+02 -0.26719039580E+03  0.26830909944E+03  0.00000000000E+00 0. -1.
          1    1    1    2  502    0  0.44014208100E+02 -0.63930709356E+02  0.29056457052E+03  0.30075264879E+03  0.00000000000E+00 0. -1.
         22    1    3    3    0    0 -0.70014928863E+02  0.37779117460E+02 -0.14744451486E+02  0.80911994348E+02  0.00000000000E+00 0.  1.
         22    1    3    3    0    0  0.31254282209E+02  0.22462509205E+01  0.52365249610E+02  0.61024545605E+02  0.00000000000E+00 0.  1.
</event>
<event>
 7    1  0.6888431E-006  0.1412507E+03  0.7818608E-02  0.1317901E+00
          2   -1    0    0  502    0  0.00000000000E+00  0.00000000000E+00  0.26680346667E+04  0.26680346667E+04  0.00000000000E+00 0. -1.
          1   -1    0    0  501    0 -0.00000000000E+00 -0.00000000000E+00 -0.10419807648E+04  0.10419807648E+04  0.00000000000E+00 0. -1.
         25    2    1    2    0    0  0.82247829994E+02 -0.56389748633E+02 -0.56158334543E+02  0.16947850937E+03  0.12499878923E+03 0.  0.
          2    1    1    2  501    0 -0.10474580287E+03  0.10107451933E+03 -0.92321996652E+03  0.93462444236E+03  0.00000000000E+00 0. -1.
          1    1    1    2  502    0  0.22497972879E+02 -0.44684770693E+02  0.26054322030E+04  0.26059124797E+04  0.00000000000E+00 0. -1.
         22    1    3    3    0    0  0.60953645432E+02 -0.83935486753E+02 -0.38934515788E+00  0.10373362241E+03  0.00000000000E+00 0. -1.
         22    1    3    3    0    0  0.21294184562E+02  0.27545738120E+02 -0.55768989385E+02  0.65744886963E+02  0.00000000000E+00 0. -1.
</event>
<event>
 7    1  0.6888431E-006  0.1045896E+03  0.7818608E-02  0.1271228E+00
          2   -1    0    0  502    0  0.00000000000E+00  0.00000000000E+00  0.15233933476E+04  0.15233933476E+04  0.00000000000E+00 0. -1.
          1   -1    0    0  501    0 -0.00000000000E+00 -0.00000000000E+00 -0.23235709898E+04  0.23235709898E+04  0.00000000000E+00 0. -1.
         25    2    1    2    0    0 -0.69998298516E+02  0.42226434782E+02  0.59894558323E+02  0.16092070427E+03  0.12500112542E+03 0.  0.
          2    1    1    2  501    0 -0.18174040078E+02 -0.10299845387E+03 -0.22698230320E+04  0.22722314085E+04  0.00000000000E+00 0. -1.
          1    1    1    2  502    0  0.88172338594E+02  0.60772019084E+02  0.14097508315E+04  0.14138122246E+04  0.00000000000E+00 0. -1.
         22    1    3    3    0    0 -0.27119346153E+01  0.11855588424E+02  0.82751293856E+02  0.83640218801E+02  0.00000000000E+00 0. -1.
         22    1    3    3    0    0 -0.67286363900E+02  0.30370846358E+02 -0.22856735533E+02  0.77280485471E+02  0.00000000000E+00 0. -1.
</event>
<event>
 7    1  0.6888431E-006  0.1512922E+03  0.7818608E-02  0.1266173E+00
          2   -1    0    0  502    0  0.00000000000E+00  0.00000000000E+00  0.28586235591E+03  0.28586235591E+03  0.00000000000E+00 0. -1.
          1   -1    0    0  501    0 -0.00000000000E+00 -0.00000000000E+00 -0.55397501073E+03  0.55397501073E+03  0.00000000000E+00 0. -1.
         25    2    1    2    0    0  0.20631715229E+03 -0.46101648591E+02 -0.16565282947E+03  0.29624063213E+03  0.12500209150E+03 0.  0.
          2    1    1    2  501    0 -0.13064968310E+03  0.43408558540E+02 -0.30106434855E+03  0.33104891575E+03  0.00000000000E+00 0. -1.
          1    1    1    2  502    0 -0.75667469193E+02  0.26930900512E+01  0.19860452319E+03  0.21254781876E+03  0.00000000000E+00 0. -1.
         22    1    3    3    0    0 -0.12377778245E+02 -0.22234822628E+02 -0.14044791205E+02  0.29066353256E+02  0.00000000000E+00 0. -1.
         22    1    3    3    0    0  0.21869493054E+03 -0.23866825963E+02 -0.15160803826E+03  0.26717427887E+03  0.00000000000E+00 0. -1.
</event>
<event>
 7    1  0.6888431E-006  0.6916302E+02  0.7818608E-02  0.1405610E+00
          2   -1    0    0  502    0  0.00000000000E+00  0.00000000000E+00  0.47788892892E+03  0.47788892892E+03  0.00000000000E+00 0. -1.
          1   -1    0    0  501    0 -0.00000000000E+00 -0.00000000000E+00 -0.17461873714E+04  0.17461873714E+04  0.00000000000E+00 0. -1.
         25    2    1    2    0    0 -0.36912870313E+02 -0.40136931034E+02 -0.37037443459E+03  0.39468402432E+03  0.12499889610E+03 0.  0.
          2    1    1    2  501    0  0.71182430308E+02  0.51848242906E+01 -0.13614346501E+04  0.13633041214E+04  0.00000000000E+00 0. -1.
          1    1    1    2  502    0 -0.34269559995E+02  0.34952106744E+02  0.46351064219E+03  0.46608815467E+03  0.00000000000E+00 0. -1.
         22    1    3    3    0    0 -0.17472013815E+02  0.41494230978E+02 -0.73641186996E+02  0.86313770010E+02  0.00000000000E+00 0.  1.
         22    1    3    3    0    0 -0.19440856498E+02 -0.81631162013E+02 -0.29673324760E+03  0.30837025431E+03  0.00000000000E+00 0.  1.
</event>
<event>
 7    1  0.6888431E-006  0.3385314E+02  0.7818608E-02  0.1632778E+00
          2   -1    0    0  502    0  0.00000000000E+00  0.00000000000E+00  0.44298927548E+03  0.44298927548E+03  0.00000000000E+00 0. -1.
          1   -1    0    0  501    0 -0.00000000000E+00 -0.00000000000E+00 -0.14116174691E+03  0.14116174691E+03  0.00000000000E+00 0. -1.
         25    2    1    2    0    0 -0.17749959518E+02  0.34674384217E+02  0.13026459718E+03  0.18468839053E+03  0.12499424920E+03 0.  0.
          2    1    1    2  501    0  0.21642334599E+02 -0.10009489481E+01 -0.11190101597E+03  0.11397907668E+03  0.00000000000E+00 0. -1.
          1    1    1    2  502    0 -0.38923750812E+01 -0.33673435269E+02  0.28346394736E+03  0.28548355519E+03  0.00000000000E+00 0. -1.
         22    1    3    3    0    0 -0.64873278341E+02  0.72050997104E+01  0.32920464551E+02  0.73104122255E+02  0.00000000000E+00 0. -1.
         22    1    3    3    0    0  0.47123318823E+02  0.27469284506E+02  0.97344132630E+02  0.11158426827E+03  0.00000000000E+00 0. -1.
</event>
<event>
 7    1  0.6888431E-006  0.5018189E+02  0.7818608E-02  0.1459933E+00
          2   -1    0    0  502    0  0.00000000000E+00  0.00000000000E+00  0.24628578854E+04  0.24628578854E+04  0.00000000000E+00 0. -1.
          1   -1    0    0  501    0 -0.00000000000E+00 -0.00000000000E+00 -0.18258022245E+02  0.18258022245E+02  0.00000000000E+00 0. -1.
         25    2    1    2    0    0 -0.79248871069E+02 -0.37146383214E+02  0.12751092160E+04  0.12842104549E+04  0.12503096511E+03 0.  0.
          2    1    1    2  501    0  0.34551679058E+02  0.34797118611E+02  0.32044647795E+02  0.58579155351E+02  0.00000000000E+00 0. -1.
          1    1    1    2  502    0  0.44697192011E+02  0.23492646031E+01  0.11374459994E+04  0.11383262975E+04  0.00000000000E+00 0. -1.
         22    1    3    3    0    0 -0.32175539679E+01 -0.18160326792E+02  0.22238172329E+02  0.28890940297E+02  0.00000000000E+00 0.  1.
         22    1    3    3    0    0 -0.76031317101E+02 -0.18986056422E+02  0.12528710437E+04  0.12553195146E+04  0.00000000000E+00 0.  1.
</event>
<event>
 7    1  0.6888431E-006  0.7823050E+02  0.7818608E-02  0.1492122E+00
          2   -1    0    0  502    0  0.00000000000E+00  0.00000000000E+00  0.28509810565E+04  0.28509810565E+04  0.00000000000E+00 0. -1.
          1   -1    0    0  501    0 -0.00000000000E+00 -0.00000000000E+00 -0.39080906095E+03  0.39080906095E+03  0.00000000000E+00 0. -1.
         25    2    1    2    0    0  0.32757768373E+02 -0.54736750044E+02  0.14672864672E+03  0.20303199522E+03  0.12499404834E+03 0.  0.
          2    1    1    2  501    0  0.22829186404E+02 -0.78431509617E+00 -0.36172040757E+03  0.36244094713E+03  0.00000000000E+00 0. -1.
          1    1    1    2  502    0 -0.55586954776E+02  0.55521065140E+02  0.26751637564E+04  0.26763171751E+04  0.00000000000E+00 0. -1.
         22    1    3    3    0    0 -0.30529616456E+02 -0.64317544818E+01 -0.50821094531E+01  0.31610959859E+02  0.00000000000E+00 0. -1.
         22    1    3    3    0    0  0.63287384829E+02 -0.48304995562E+02  0.15181075617E+03  0.17142103536E+03  0.00000000000E+00 0. -1.
</event>
<event>
 7    1  0.6888431E-006  0.6783184E+02  0.7818608E-02  0.1409758E+00
          2   -1    0    0  502    0  0.00000000000E+00  0.00000000000E+00  0.19106223234E+02  0.19106223234E+02  0.00000000000E+00 0. -1.
          1   -1    0    0  501    0 -0.00000000000E+00 -0.00000000000E+00 -0.28617840797E+04  0.28617840797E+04  0.00000000000E+00 0. -1.
         25    2    1    2    0    0 -0.16266339671E+02 -0.95714488866E+02 -0.64018233069E+03  0.65945381821E+03  0.12498025699E+03 0.  0.
          2    1    1    2  501    0  0.34193413589E+02  0.34134928679E+02 -0.20998202325E+04  0.21003760120E+04  0.00000000000E+00 0. -1.
          1    1    1    2  502    0 -0.17927073918E+02  0.61579560187E+02 -0.10267529328E+03  0.12106047275E+03  0.00000000000E+00 0. -1.
         22    1    3    3    0    0  0.19312768151E+02 -0.10905583877E+03 -0.55836840229E+03  0.56924637167E+03  0.00000000000E+00 0.  1.
         22    1    3    3    0    0 -0.35579107823E+02  0.13341349904E+02 -0.81813928396E+02  0.90207446535E+02  0.00000000000E+00 0.  1.
</event>
<event>
 7    1  0.6888431E-006  0.1454275E+03  0.7818608E-02  0.1286321E+00
          2   -1    0    0  502    0  0.00000000000E+00  0.00000000000E+00  0.11680808260E+04  0.11680808260E+04  0.00000000000E+00 0. -1.
          1   -1    0    0  501    0 -0.00000000000E+00 -0.00000000000E+00 -0.27618126831E+03  0.27618126831E+03  0.00000000000E+00 0. -1.
         25    2    1    2    0    0 -0.73569081809E+02  0.47690301065E+02 -0.51640177858E+02  0.16118011958E+03  0.12500219343E+03 0.  0.
          2    1    1    2  501    0 -0.64705205821E+02  0.56473321030E+01 -0.15841105690E+03  0.17120957616E+03  0.00000000000E+00 0. -1.
          1    1    1    2  502    0  0.13827428763E+03 -0.53337633168E+02  0.11019507924E+04  0.11118723985E+04  0.00000000000E+00 0. -1.
         22    1    3    3    0    0 -0.68290043108E+02 -0.42163616682E+01 -0.77137148177E+02  0.10310891000E+03  0.00000000000E+00 0. -1.
         22    1    3    3    0    0 -0.52790387017E+01  0.51906662733E+02  0.25496970319E+02  0.58071209572E+02  0.00000000000E+00 0. -1.
</event>
<event>
 7    1  0.6888431E-006  0.9322185E+02  0.7818608E-02  0.1483139E+00
          2   -1    0    0  502    0  0.00000000000E+00  0.00000000000E+00  0.41801695479E+03  0.41801695479E+03  0.00000000000E+00 0. -1.
          1   -1    0    0  501    0 -0.00000000000E+00 -0.00000000000E+00 -0.44056845092E+03  0.44056845092E+03  0.00000000000E+00 0. -1.
         25    2    1    2    0    0  0.38242426033E+02  0.86112128829E+02  0.36022249546E+02  0.16062497461E+03  0.12499999251E+03 0.  0.
          2    1    1    2  501    0 -0.18535041320E+02 -0.91426655107E+02 -0.37217878556E+03  0.38369184177E+03  0.00000000000E+00 0. -1.
          1    1    1    2  502    0 -0.19707384714E+02  0.53145262775E+01  0.31360503988E+03  0.31426858933E+03  0.00000000000E+00 0. -1.
         22    1    3    3    0    0 -0.25300842325E+02  0.65640454593E+02  0.57113269791E+02  0.90613064663E+02  0.00000000000E+00 0.  1.
         22    1    3    3    0    0  0.63543268359E+02  0.20471674236E+02 -0.21091020244E+02  0.70011909949E+02  0.00000000000E+00 0.  1.
</event>
<event>
 7    1  0.6888431E-006  0.8405168E+02  0.7818608E-02  0.1362011E+00
          2   -1    0    0  502    0  0.00000000000E+00  0.00000000000E+00  0.12284441084E+03  0.12284441084E+03  0.00000000000E+00 0. -1.
          1   -1    0    0  501    0 -0.00000000000E+00 -0.00000000000E+00 -0.13578506823E+04  0.13578506823E+04  0.00000000000E+00 0. -1.
         25    2    1    2    0    0  0.79472173157E+02  0.13078346409E+02 -0.59447486809E+03  0.61279082078E+03  0.12500140716E+03 0.  0.
          2    1    1    2  501    0 -0.59298647591E+02 -0.66781127580E+02 -0.74413680932E+03  0.74947691064E+03  0.00000000000E+00 0. -1.
          1    1    1    2  502    0 -0.20173525566E+02  0.53702781172E+02  0.10360540600E+03  0.11842736167E+03  0.00000000000E+00 0. -1.
         22    1    3    3    0    0  0.37841472042E+02  0.59771172400E+02 -0.17631744930E+03  0.18998003312E+03  0.00000000000E+00 0. -1.
         22    1    3    3    0    0  0.41630701115E+02 -0.46692825992E+02 -0.41815741879E+03  0.42281078767E+03  0.00000000000E+00 0. -1.
</event>
<event>
 7    1  0.6888431E-006  0.1521797E+03  0.7818608E-02  0.1297559E+00
          2   -1    0    0  502    0  0.00000000000E+00  0.00000000000E+00  0.26502649069E+03  0.26502649069E+03  0.00000000000E+00 0. -1.
          1   -1    0    0  501    0 -0.00000000000E+00 -0.00000000000E+00 -0.14044633496E+04  0.14044633496E+04  0.00000000000E+00 0. -1.
         25    2    1    2    0    0  0.10994043242E+03  0.54685064556E+02 -0.50749247597E+03  0.53688995715E+03  0.12499943183E+03 0.  0.
          2    1    1    2  501    0 -0.29257238821E+01  0.55810307393E+02 -0.85764609347E+03  0.85946504986E+03  0.00000000000E+00 0. -1.
          1    1    1    2  502    0 -0.10701470854E+03 -0.11049537195E+03  0.22570171048E+03  0.27313483333E+03  0.00000000000E+00 0. -1.
         22    1    3    3    0    0  0.89740477187E+02  0.62419641640E+02 -0.50307347410E+03  0.51481305855E+03  0.00000000000E+00 0.  1.
         22    1    3    3    0    0  0.20199955236E+02 -0.77345770844E+01 -0.44190018618E+01  0.22076898598E+02  0.00000000000E+00 0.  1.
</event>
<event>
 7    1  0.6888431E-006  0.7345038E+02  0.7818608E-02  0.1357580E+00
          2   -1    0    0  502    0  0.00000000000E+00  0.00000000000E+00  0.22726920440E+03  0.22726920440E+03  0.00000000000E+00 0. -1.
          1   -1    0    0  501    0 -0.00000000000E+00 -0.00000000000E+00 -0.16266296500E+04  0.16266296500E+04  0.00000000000E+00 0. -1.
         25    2    1    2    0    0  0.72343623126E+00 -0.33704148461E+02 -0.33503607463E+02  0.13373015219E+03  0.12499907563E+03 0.  0.
          2    1    1    2  501    0 -0.68691919534E+02  0.28903559185E+02 -0.15355236580E+04  0.15373310963E+04  0.00000000000E+00 0. -1.
          1    1    1    2  502    0  0.67968483302E+02  0.48005892758E+01  0.16966681983E+03  0.18283760590E+03  0.00000000000E+00 0. -1.
         22    1    3    3    0    0  0.13866455631E+02  0.34171011847E+02  0.23836215730E+02  0.43910156259E+02  0.00000000000E+00 0. -1.
         22    1    3    3    0    0 -0.13143019399E+02 -0.67875160308E+02 -0.57339823193E+02  0.89819995934E+02  0.00000000000E+00 0. -1.
</event>
<event>
 7    1  0.6888431E-006  0.1983214E+03  0.7818608E-02  0.1294976E+00
          2   -1    0    0  502    0  0.00000000000E+00  0.00000000000E+00  0.22167985513E+04  0.22167985513E+04  0.00000000000E+00 0. -1.
          1   -1    0    0  501    0 -0.00000000000E+00 -0.00000000000E+00 -0.13390536193E+03  0.13390536193E+03  0.00000000000E+00 0. -1.
         25    2    1    2    0    0  0.19026781701E+03 -0.50011523085E+02  0.29076445956E+03  0.37265497326E+03  0.12499905409E+03 0.  0.
          2    1    1    2  501    0  0.86893189556E+01  0.43055753176E+02 -0.82188264961E+02  0.93189125131E+02  0.00000000000E+00 0. -1.
          1    1    1    2  502    0 -0.19895713596E+03  0.69557699097E+01  0.18743169948E+04  0.18848598149E+04  0.00000000000E+00 0. -1.
         22    1    3    3    0    0  0.16237120523E+03  0.59469593325E+01  0.24949289078E+03  0.29773558263E+03  0.00000000000E+00 0. -1.
         22    1    3    3    0    0  0.27896611778E+02 -0.55958482418E+02  0.41271568778E+02  0.74919390631E+02  0.00000000000E+00 0. -1.
</event>
<event>
 7    1  0.6888431E-006  0.1048750E+03  0.7818608E-02  0.1286840E+00
          2   -1    0    0  502    0  0.00000000000E+00  0.00000000000E+00  0.16314153302E+03  0.16314153302E+03  0.00000000000E+00 0. -1.
          1   -1    0    0  501    0 -0.00000000000E+00 -0.00000000000E+00 -0.89643301144E+03  0.89643301144E+03  0.00000000000E+00 0. -1.
         25    2    1    2    0    0 -0.70806945951E+01  0.10719709537E+03 -0.68594338880E+03  0.70546772501E+03  0.12500009959E+03 0.  0.
          2    1    1    2  501    0  0.83110513446E+02 -0.33549816518E+02 -0.16994832503E+03  0.19213375761E+03  0.00000000000E+00 0. -1.
          1    1    1    2  502    0 -0.76029818851E+02 -0.73647278856E+02  0.12260023541E+03  0.16197306184E+03  0.00000000000E+00 0. -1.
         22    1    3    3    0    0  0.44265335139E+02  0.64435618271E+02 -0.19642640483E+03  0.21141121378E+03  0.00000000000E+00 0. -1.
         22    1    3    3    0    0 -0.51346029734E+02  0.42761477102E+02 -0.48951698397E+03  0.49405651123E+03  0.00000000000E+00 0. -1.
</event>
<event>
 7    1  0.6888431E-006  0.1704627E+03  0.7818608E-02  0.1389663E+00
          2   -1    0    0  502    0  0.00000000000E+00  0.00000000000E+00  0.32464012650E+03  0.32464012650E+03  0.00000000000E+00 0. -1.
          1   -1    0    0  501    0 -0.00000000000E+00 -0.00000000000E+00 -0.15323160700E+04  0.15323160700E+04  0.00000000000E+00 0. -1.
         25    2    1    2    0    0  0.13198093637E+03  0.71012123290E+02 -0.71222188643E+03  0.73847586110E+03  0.12499957080E+03 0.  0.
          2    1    1    2  501    0  0.14769140660E+02  0.17031844146E+02 -0.78328869799E+03  0.78361303948E+03  0.00000000000E+00 0. -1.
          1    1    1    2  502    0 -0.14675007703E+03 -0.88043967436E+02  0.28783464096E+03  0.33486729588E+03  0.00000000000E+00 0. -1.
         22    1    3    3    0    0  0.37025967744E+02  0.56137799033E+01 -0.34183563118E+02  0.50704563893E+02  0.00000000000E+00 0. -1.
         22    1    3    3    0    0  0.94954968631E+02  0.65398343387E+02 -0.67803832331E+03  0.68777129721E+03  0.00000000000E+00 0. -1.
</event>
<event>
 7    1  0.6888431E-006  0.8769374E+02  0.7818608E-02  0.1310190E+00
          2   -1    0    0  502    0  0.00000000000E+00  0.00000000000E+00  0.41997831352E+03  0.41997831352E+03  0.00000000000E+00 0. -1.
          1   -1    0    0  501    0 -0.00000000000E+00 -0.00000000000E+00 -0.10801534701E+03  0.10801534701E+03  0.00000000000E+00 0. -1.
         25    2    1    2    0    0  0.19939450128E+02 -0.34929037139E+02  0.11417517437E+03  0.17400895089E+03  0.12500210094E+03 0.  0.
          2    1    1    2  501    0 -0.44787348363E+02 -0.73868156611E+02 -0.37037347666E+02  0.93990298737E+02  0.00000000000E+00 0. -1.
          1    1    1    2  502    0  0.24847898235E+02  0.10879719375E+03  0.23482513981E+03  0.25999441090E+03  0.00000000000E+00 0. -1.
         22    1    3    3    0    0  0.27882507573E+02 -0.34941222660E+02 -0.13024614349E+02  0.46561398696E+02  0.00000000000E+00 0.  1.
         22    1    3    3    0    0 -0.79430574448E+01  0.12185521079E-01  0.12719978872E+03  0.12744755220E+03  0.00000000000E+00 0.  1.
</event>
<event>
 7    1  0.6888431E-006  0.1867225E+03  0.7818608E-02  0.1282227E+00
          2   -1    0    0  502    0  0.00000000000E+00  0.00000000000E+00  0.73965251738E+03  0.73965251738E+03  0.00000000000E+00 0. -1.
          1   -1    0    0  501    0 -0.00000000000E+00 -0.00000000000E+00 -0.98556582541E+03  0.98556582541E+03  0.00000000000E+00 0. -1.
         25    2    1    2    0    0  0.12546204699E+02 -0.20693907865E+03 -0.39497982414E+02  0.24526800445E+03  0.12496044922E+03 0.  0.
          2    1    1    2  501    0  0.43057978320E+02  0.30180839376E+02 -0.82885175009E+03  0.83051796862E+03  0.00000000000E+00 0. -1.
          1    1    1    2  502    0 -0.55604183019E+02  0.17675823927E+03  0.62243642448E+03  0.64943236972E+03  0.00000000000E+00 0. -1.
         22    1    3    3    0    0  0.61216846452E+02 -0.57090386540E+02 -0.42252889871E+01  0.83813290066E+02  0.00000000000E+00 0.  1.
         22    1    3    3    0    0 -0.48670641753E+02 -0.14984869211E+03 -0.35272693426E+02  0.16145471439E+03  0.00000000000E+00 0.  1.
</event>
<event>
 7    1  0.6888431E-006  0.7564319E+02  0.7818608E-02  0.1433756E+00
          2   -1    0    0  502    0  0.00000000000E+00  0.00000000000E+00  0.68530314409E+02  0.68530314409E+02  0.00000000000E+00 0. -1.
          1   -1    0    0  501    0 -0.00000000000E+00 -0.00000000000E+00 -0.41391402843E+04  0.41391402843E+04  0.00000000000E+00 0. -1.
         25    2    1    2    0    0 -0.73355780112E+02 -0.72116997301E+02 -0.23266242502E+04  0.23322494529E+04  0.12500070923E+03 0.  0.
          2    1    1    2  501    0  0.56565290957E+02  0.40226268644E+02 -0.18040439880E+04  0.18053787679E+04  0.00000000000E+00 0. -1.
          1    1    1    2  502    0  0.16790489155E+02  0.31890728657E+02  0.60058268350E+02  0.70042377869E+02  0.00000000000E+00 0. -1.
         22    1    3    3    0    0 -0.11053857114E+02 -0.54451529577E+02 -0.33529103441E+03  0.33986355289E+03  0.00000000000E+00 0.  1.
         22    1    3    3    0    0 -0.62301922998E+02 -0.17665467724E+02 -0.19913332158E+04  0.19923859000E+04  0.00000000000E+00 0.  1.
</event>
<event>
 7    1  0.6888431E-006  0.6292512E+02  0.7818608E-02  0.1505696E+00
          2   -1    0    0  502    0  0.00000000000E+00  0.00000000000E+00  0.19707440076E+03  0.19707440076E+03  0.00000000000E+00 0. -1.
          1   -1    0    0  501    0 -0.00000000000E+00 -0.00000000000E+00 -0.16316896107E+04  0.16316896107E+04  0.00000000000E+00 0. -1.
         25    2    1    2    0    0  0.88928549987E+01  0.54251700459E+02 -0.52727162552E+03  0.54466740135E+03  0.12499952460E+03 0.  0.
          2    1    1    2  501    0 -0.34757929918E+02 -0.54022107119E+02 -0.10938854393E+04  0.10957699832E+04  0.00000000000E+00 0. -1.
          1    1    1    2  502    0  0.25865074919E+02 -0.22959334023E+00  0.18654185484E+03  0.18832662695E+03  0.00000000000E+00 0. -1.
         22    1    3    3    0    0  0.63978384313E+02  0.48449985152E+02 -0.28043718480E+03  0.29169444516E+03  0.00000000000E+00 0. -1.
         22    1    3    3    0    0 -0.55085529315E+02  0.58017153075E+01 -0.24683444072E+03  0.25297295619E+03  0.00000000000E+00 0. -1.
</event>
<event>
 7    1  0.6888431E-006  0.1426575E+03  0.7818608E-02  0.1360856E+00
          2   -1    0    0  502    0  0.00000000000E+00  0.00000000000E+00  0.76396130656E+03  0.76396130656E+03  0.00000000000E+00 0. -1.
          1   -1    0    0  501    0 -0.00000000000E+00 -0.00000000000E+00 -0.65372435070E+03  0.65372435070E+03  0.00000000000E+00 0. -1.
         25    2    1    2    0    0 -0.13396382035E+03 -0.38905230726E+02  0.11318399471E+03  0.21885061110E+03  0.12500020473E+03 0.  0.
          2    1    1    2  501    0  0.14289206164E+03  0.59651265744E+01 -0.59188026939E+03  0.60891376837E+03  0.00000000000E+00 0. -1.
          1    1    1    2  502    0 -0.89282412978E+01  0.32940104151E+02  0.58893323053E+03  0.58992127778E+03  0.00000000000E+00 0. -1.
         22    1    3    3    0    0 -0.75250479986E+02 -0.76992782920E+02  0.10137467227E+03  0.14787612227E+03  0.00000000000E+00 0.  1.
         22    1    3    3    0    0 -0.58713340360E+02  0.38087552194E+02  0.11809322442E+02  0.70974488832E+02  0.00000000000E+00 0.  1.
</event>
<event>
 7    1  0.6888431E-006  0.6987435E+02  0.7818608E-02  0.1376965E+00
          2   -1    0    0  502    0  0.00000000000E+00  0.00000000000E+00  0.61763151180E+03  0.61763151180E+03  0.00000000000E+00 0. -1.
          1   -1    0    0  501    0 -0.00000000000E+00 -0.00000000000E+00 -0.52171907216E+03  0.52171907216E+03  0.00000000000E+00 0. -1.
         25    2    1    2    0    0  0.34571501023E+02 -0.50808613815E+02 -0.18302103508E+03  0.22999680019E+03  0.12500049957E+03 0.  0.
          2    1    1    2  501    0 -0.59094821064E+02 -0.14989181979E+02 -0.31015744945E+03  0.31609257647E+03  0.00000000000E+00 0. -1.
          1    1    1    2  502    0  0.24523320041E+02  0.65797795794E+02  0.58909092416E+03  0.59326120730E+03  0.00000000000E+00 0. -1.
         22    1    3    3    0    0  0.43644663684E+02 -0.77730961153E+02 -0.18069874217E+03  0.20149192146E+03  0.00000000000E+00 0. -1.
         22    1    3    3    0    0 -0.90731626610E+01  0.26922347339E+02 -0.23222929055E+01  0.28504878727E+02  0.00000000000E+00 0. -1.
</event>
<event>
 7    1  0.6888431E-006  0.2500776E+03  0.7818608E-02  0.1185384E+00
          2   -1    0    0  502    0  0.00000000000E+00  0.00000000000E+00  0.94025691510E+03  0.94025691510E+03  0.00000000000E+00 0. -1.
          1   -1    0    0  501    0 -0.00000000000E+00 -0.00000000000E+00 -0.17290683047E+04  0.17290683047E+04  0.00000000000E+00 0. -1.
         25    2    1    2    0    0 -0.22991207829E+03  0.13715791480E+03 -0.16935510855E+03  0.34056897869E+03  0.12503687102E+03 0.  0.
          2    1    1    2  501    0  0.14652572830E+03 -0.20293049476E+03 -0.14601159182E+04  0.14814145501E+04  0.00000000000E+00 0. -1.
          1    1    1    2  502    0  0.83386349997E+02  0.65772579962E+02  0.84065963718E+03  0.84734169095E+03  0.00000000000E+00 0. -1.
         22    1    3    3    0    0 -0.65918514898E+02 -0.15681369528E+02 -0.62699597283E+02  0.92316821089E+02  0.00000000000E+00 0. -1.
         22    1    3    3    0    0 -0.16399356340E+03  0.15283928433E+03 -0.10665551127E+03  0.24825215760E+03  0.00000000000E+00 0. -1.
</event>
<event>
 7    1  0.6888431E-006  0.1626092E+03  0.7818608E-02  0.1254782E+00
          2   -1    0    0  502    0  0.00000000000E+00  0.00000000000E+00  0.37860095607E+03  0.37860095607E+03  0.00000000000E+00 0. -1.
          1   -1    0    0  501    0 -0.00000000000E+00 -0.00000000000E+00 -0.20692444988E+04  0.20692444988E+04  0.00000000000E+00 0. -1.
         25    2    1    2    0    0 -0.16664631680E+03  0.32716374646E+02 -0.28566245825E+03  0.35506234066E+03  0.12499947850E+03 0.  0.
          2    1    1    2  501    0  0.98489085805E+01 -0.78165858631E+02 -0.17285600934E+04  0.17303545588E+04  0.00000000000E+00 0. -1.
          1    1    1    2  502    0  0.15679740822E+03  0.45449483985E+02  0.32357900892E+03  0.36242855549E+03  0.00000000000E+00 0. -1.
         22    1    3    3    0    0 -0.11319623842E+03  0.17723998777E+02 -0.74362292166E+02  0.13659165063E+03  0.00000000000E+00 0.  1.
         22    1    3    3    0    0 -0.53450078379E+02  0.14992375869E+02 -0.21130016609E+03  0.21847069003E+03  0.00000000000E+00 0.  1.
</event>
<event>
 7    1  0.6888431E-006  0.3770221E+02  0.7818608E-02  0.1607108E+00
          2   -1    0    0  502    0  0.00000000000E+00  0.00000000000E+00  0.52591550836E+02  0.52591550836E+02  0.00000000000E+00 0. -1.
          1   -1    0    0  501    0 -0.00000000000E+00 -0.00000000000E+00 -0.60194830532E+03  0.60194830532E+03  0.00000000000E+00 0. -1.
         25    2    1    2    0    0  0.11162688864E+02  0.15270506478E+02 -0.20897542135E+03  0.24424292187E+03  0.12500433658E+03 0.  0.
          2    1    1    2  501    0 -0.26703986373E+01  0.22456351186E+02 -0.36418544342E+03  0.36488690842E+03  0.00000000000E+00 0. -1.
          1    1    1    2  502    0 -0.84922902266E+01 -0.37726857664E+02  0.23804110287E+02  0.45410025865E+02  0.00000000000E+00 0. -1.
         22    1    3    3    0    0 -0.44992041002E+02 -0.18898219899E+02 -0.14305578869E+03  0.15115020723E+03  0.00000000000E+00 0. -1.
         22    1    3    3    0    0  0.56154729866E+02  0.34168726377E+02 -0.65919632662E+02  0.93092714639E+02  0.00000000000E+00 0. -1.
</event>
<event>
 7    1  0.6888431E-006  0.2727736E+03  0.7818608E-02  0.1176300E+00
          2   -1    0    0  502    0  0.00000000000E+00  0.00000000000E+00  0.56298588919E+03  0.56298588919E+03  0.00000000000E+00 0. -1.
          1   -1    0    0  501    0 -0.00000000000E+00 -0.00000000000E+00 -0.11490358340E+04  0.11490358340E+04  0.00000000000E+00 0. -1.
         25    2    1    2    0    0 -0.11054171218E+03 -0.13905826245E+03  0.13726273801E+03  0.25694952536E+03  0.12500131540E+03 0.  0.
          2    1    1    2  501    0  0.20151328886E+03  0.19692731760E+03 -0.10624670512E+04  0.10991925259E+04  0.00000000000E+00 0. -1.
          1    1    1    2  502    0 -0.90971576686E+02 -0.57869055151E+02  0.33915436840E+03  0.35587967196E+03  0.00000000000E+00 0. -1.
         22    1    3    3    0    0  0.12915122005E+02  0.10600171246E+02 -0.37306660828E+01  0.17119634233E+02  0.00000000000E+00 0.  1.
         22    1    3    3    0    0 -0.12345683418E+03 -0.14965843369E+03  0.14099340409E+03  0.23982989113E+03  0.00000000000E+00 0.  1.
</event>
<event>
 7    1  0.6888431E-006  0.8461261E+02  0.7818608E-02  0.1319306E+00
          2   -1    0    0  502    0  0.00000000000E+00  0.00000000000E+00  0.93058555926E+03  0.93058555926E+03  0.00000000000E+00 0. -1.
          1   -1    0    0  501    0 -0.00000000000E+00 -0.00000000000E+00 -0.35062797789E+03  0.35062797789E+03  0.00000000000E+00 0. -1.
         25    2    1    2    0    0  0.33085460920E+02  0.22682816528E+02  0.24435085355E+03  0.27738671700E+03  0.12500757274E+03 0.  0.
          2    1    1    2  501    0 -0.33756931305E+02  0.75248234681E+02 -0.32535703425E+03  0.33564717632E+03  0.00000000000E+00 0. -1.
          1    1    1    2  502    0  0.67147038490E+00 -0.97931051209E+02  0.66096376207E+03  0.66817964384E+03  0.00000000000E+00 0. -1.
         22    1    3    3    0    0  0.36337082160E+02 -0.12031707518E+02  0.23907921454E+03  0.24212396897E+03  0.00000000000E+00 0.  1.
         22    1    3    3    0    0 -0.32516212402E+01  0.34714524046E+02  0.52716390157E+01  0.35262748026E+02  0.00000000000E+00 0.  1.
</event>
<event>
 7    1  0.6888431E-006  0.5733120E+02  0.7818608E-02  0.1410064E+00
          2   -1    0    0  502    0  0.00000000000E+00  0.00000000000E+00  0.29104988218E+04  0.29104988218E+04  0.00000000000E+00 0. -1.
          1   -1    0    0  501    0 -0.00000000000E+00 -0.00000000000E+00 -0.13002513274E+03  0.13002513274E+03  0.00000000000E+00 0. -1.
         25    2    1    2    0    0  0.91275778975E+02  0.34428074389E+02  0.88432655884E+01  0.15880833810E+03  0.12500129907E+03 0.  0.
          2    1    1    2  501    0 -0.35031041598E+02 -0.45000877191E+02 -0.39901300858E+02  0.69601484421E+02  0.00000000000E+00 0. -1.
          1    1    1    2  502    0 -0.56244737376E+02  0.10572802802E+02  0.28115317243E+04  0.28121141320E+04  0.00000000000E+00 0. -1.
         22    1    3    3    0    0  0.70336391590E+02  0.37228440648E+02 -0.51555461998E+02  0.94821571580E+02  0.00000000000E+00 0.  1.
         22    1    3    3    0    0  0.20939387384E+02 -0.28003662592E+01  0.60398727586E+02  0.63986766517E+02  0.00000000000E+00 0.  1.
</event>
<event>
 7    1  0.6888431E-006  0.1024604E+03  0.7818608E-02  0.1286821E+00
          2   -1    0    0  502    0  0.00000000000E+00  0.00000000000E+00  0.34519927862E+02  0.34519927862E+02  0.00000000000E+00 0. -1.
          1   -1    0    0  501    0 -0.00000000000E+00 -0.00000000000E+00 -0.22818791340E+04  0.22818791340E+04  0.00000000000E+00 0. -1.
         25    2    1    2    0    0  0.12991296153E+02  0.29216993943E+02 -0.30585936599E+03  0.33195982482E+03  0.12499986809E+03 0.  0.
          2    1    1    2  501    0  0.26585062601E+02  0.98951368307E+02 -0.17360822358E+04  0.17391031218E+04  0.00000000000E+00 0. -1.
          1    1    1    2  502    0 -0.39576358754E+02 -0.12816836225E+03 -0.20541760431E+03  0.24533611519E+03  0.00000000000E+00 0. -1.
         22    1    3    3    0    0 -0.20582607082E+01 -0.41792215693E+01 -0.29315012566E+03  0.29318713905E+03  0.00000000000E+00 0.  1.
         22    1    3    3    0    0  0.15049556861E+02  0.33396215512E+02 -0.12709240327E+02  0.38772685772E+02  0.00000000000E+00 0.  1.
</event>
<event>
 7    1  0.6888431E-006  0.6376430E+02  0.7818608E-02  0.1387922E+00
          2   -1    0    0  502    0  0.00000000000E+00  0.00000000000E+00  0.38069585494E+02  0.38069585494E+02  0.00000000000E+00 0. -1.
          1   -1    0    0  501    0 -0.00000000000E+00 -0.00000000000E+00 -0.64632508906E+03  0.64632508906E+03  0.00000000000E+00 0. -1.
         25    2    1    2    0    0  0.11864790449E+02 -0.17324565347E+02 -0.25651204474E+03  0.28612420473E+03  0.12501086999E+03 0.  0.
          2    1    1    2  501    0 -0.74791116885E+02  0.70210059249E+01 -0.31674862565E+03  0.32553447981E+03  0.00000000000E+00 0. -1.
          1    1    1    2  502    0  0.62926326437E+02  0.10303559422E+02 -0.34994833165E+02  0.72735990017E+02  0.00000000000E+00 0. -1.
         22    1    3    3    0    0 -0.30385710140E+02 -0.18006902677E+02 -0.23693552301E+03  0.23955371420E+03  0.00000000000E+00 0. -1.
         22    1    3    3    0    0  0.42250500589E+02  0.68233732996E+00 -0.19576521733E+02  0.46570490521E+02  0.00000000000E+00 0. -1.
</event>
<event>
 7    1  0.6888431E-006  0.1591238E+03  0.7818608E-02  0.1382008E+00
          2   -1    0    0  502    0  0.00000000000E+00  0.00000000000E+00  0.16640249007E+04  0.16640249007E+04  0.00000000000E+00 0. -1.
          1   -1    0    0  501    0 -0.00000000000E+00 -0.00000000000E+00 -0.64777150379E+03  0.64777150379E+03  0.00000000000E+00 0. -1.
         25    2    1    2    0    0 -0.45692193226E+02 -0.12717970188E+03 -0.58795522802E+03  0.61609644451E+03  0.12498410176E+03 0.  0.
          2    1    1    2  501    0  0.91501638258E+00 -0.25675618435E+02 -0.37953359648E+02  0.45831562766E+02  0.00000000000E+00 0. -1.
          1    1    1    2  502    0  0.44777176843E+02  0.15285532031E+03  0.16421619846E+04  0.16498683972E+04  0.00000000000E+00 0. -1.
         22    1    3    3    0    0  0.34492761824E+02 -0.83058358155E+02 -0.23972582693E+03  0.25604084357E+03  0.00000000000E+00 0.  1.
         22    1    3    3    0    0 -0.80184955050E+02 -0.44121343723E+02 -0.34822940109E+03  0.36005560094E+03  0.00000000000E+00 0.  1.
</event>
<event>
 7    1  0.6888431E-006  0.3479214E+02  0.7818608E-02  0.1577858E+00
          2   -1    0    0  502    0  0.00000000000E+00  0.00000000000E+00  0.79713268553E+02  0.79713268553E+02  0.00000000000E+00 0. -1.
          1   -1    0    0  501    0 -0.00000000000E+00 -0.00000000000E+00 -0.17841771383E+04  0.17841771383E+04  0.00000000000E+00 0. -1.
         25    2    1    2    0    0  0.22928375227E+02  0.48817815569E+02 -0.11956079009E+04  0.12033333986E+04  0.12499650363E+03 0.  0.
          2    1    1    2  501    0  0.17448577598E+01 -0.33067364472E+02 -0.58139360142E+03  0.58233582656E+03  0.00000000000E+00 0. -1.
          1    1    1    2  502    0 -0.24673232987E+02 -0.15750451096E+02  0.72537632556E+02  0.78221181739E+02  0.00000000000E+00 0. -1.
         22    1    3    3    0    0  0.13719403326E+02  0.78856719850E+02 -0.10952850390E+04  0.10982057735E+04  0.00000000000E+00 0.  1.
         22    1    3    3    0    0  0.92089719015E+01 -0.30038904281E+02 -0.10032286194E+03  0.10512762511E+03  0.00000000000E+00 0.  1.
</event>
<event>
 7    1  0.6888431E-006  0.3371403E+02  0.7818608E-02  0.1640546E+00
          2   -1    0    0  502    0  0.00000000000E+00  0.00000000000E+00  0.72722721634E+03  0.72722721634E+03  0.00000000000E+00 0. -1.
          1   -1    0    0  501    0 -0.00000000000E+00 -0.00000000000E+00 -0.32692731581E+02  0.32692731581E+02  0.00000000000E+00 0. -1.
         25    2    1    2    0    0 -0.19305901401E+02  0.34595133862E+02  0.22271080602E+03  0.25844704339E+03  0.12500092000E+03 0.  0.
          2    1    1    2  501    0  0.29408319340E+02 -0.16406490079E+02  0.48345374360E+01  0.34020507276E+02  0.00000000000E+00 0. -1.
          1    1    1    2  502    0 -0.10102417939E+02 -0.18188643783E+02  0.46698914130E+03  0.46745239726E+03  0.00000000000E+00 0. -1.
         22    1    3    3    0    0 -0.50773129111E+02 -0.21551613385E+02  0.51205452456E+02  0.75262082355E+02  0.00000000000E+00 0.  1.
         22    1    3    3    0    0  0.31467227710E+02  0.56146747247E+02  0.17150535357E+03  0.18318496103E+03  0.00000000000E+00 0.  1.
</event>
<event>
 7    1  0.6888431E-006  0.9829964E+02  0.7818608E-02  0.1367335E+00
          2   -1    0    0  502    0  0.00000000000E+00  0.00000000000E+00  0.29102097974E+04  0.29102097974E+04  0.00000000000E+00 0. -1.
          1   -1    0    0  501    0 -0.00000000000E+00 -0.00000000000E+00 -0.51001482311E+02  0.51001482311E+02  0.00000000000E+00 0. -1.
         25    2    1    2    0    0  0.85138965826E+02 -0.18718759013E+02  0.18893532790E+04  0.18954890813E+04  0.12499603463E+03 0.  0.
          2    1    1    2  501    0 -0.95085374690E+02 -0.27135169991E+02  0.42446622396E+01  0.98972537039E+02  0.00000000000E+00 0. -1.
          1    1    1    2  502    0  0.99464088643E+01  0.45853929004E+02  0.96561037383E+03  0.96674966144E+03  0.00000000000E+00 0. -1.
         22    1    3    3    0    0 -0.18982989448E+02 -0.25374548410E+02  0.16709462939E+03  0.17007303362E+03  0.00000000000E+00 0. -1.
         22    1    3    3    0    0  0.10412195527E+03  0.66557893975E+01  0.17222586497E+04  0.17254160476E+04  0.00000000000E+00 0. -1.
</event>
<event>
 7    1  0.6888431E-006  0.4145972E+02  0.7818608E-02  0.1544596E+00
          2   -1    0    0  502    0  0.00000000000E+00  0.00000000000E+00  0.19135358440E+04  0.19135358440E+04  0.00000000000E+00 0. -1.
          1   -1    0    0  501    0 -0.00000000000E+00 -0.00000000000E+00 -0.18563549149E+04  0.18563549149E+04  0.00000000000E+00 0. -1.
         25    2    1    2    0    0  0.61260567495E+02  0.11085235868E+02  0.74762823771E+02  0.15840044206E+03  0.12500192256E+03 0.  0.
          2    1    1    2  501    0 -0.33805107224E+02 -0.23950131501E+02 -0.18141716959E+04  0.18146446859E+04  0.00000000000E+00 0. -1.
          1    1    1    2  502    0 -0.27455460271E+02  0.12864895633E+02  0.17965898011E+04  0.17968456309E+04  0.00000000000E+00 0. -1.
         22    1    3    3    0    0  0.22262666307E+01  0.28668861084E+02 -0.27001740251E+02  0.39445580684E+02  0.00000000000E+00 0. -1.
         22    1    3    3    0    0  0.59034300864E+02 -0.17583625216E+02  0.10176456402E+03  0.11895486138E+03  0.00000000000E+00 0. -1.
</event>
<event>
 7    1  0.6888431E-006  0.7893537E+02  0.7818608E-02  0.1346993E+00
          2   -1    0    0  502    0  0.00000000000E+00  0.00000000000E+00  0.15166401785E+04  0.15166401785E+04  0.00000000000E+00 0. -1.
          1   -1    0    0  501    0 -0.00000000000E+00 -0.00000000000E+00 -0.53303358307E+03  0.53303358307E+03  0.00000000000E+00 0. -1.
         25    2    1    2    0    0 -0.37284044434E+02  0.69006865833E+02 -0.22528228122E+02  0.14928365511E+03  0.12500416441E+03 0.  0.
          2    1    1    2  501    0  0.69282977646E+02  0.35730828730E+01 -0.44334572315E+03  0.44874082514E+03  0.00000000000E+00 0. -1.
          1    1    1    2  502    0 -0.31998933212E+02 -0.72579948707E+02  0.14494805467E+04  0.14516492813E+04  0.00000000000E+00 0. -1.
         22    1    3    3    0    0  0.21680472953E+02  0.83941746536E+02 -0.11303774700E+02  0.87430172375E+02  0.00000000000E+00 0. -1.
         22    1    3    3    0    0 -0.58964517387E+02 -0.14934880703E+02 -0.11224453421E+02  0.61853482738E+02  0.00000000000E+00 0. -1.
</event>
<event>
 7    1  0.6888431E-006  0.5538779E+02  0.7818608E-02  0.1473193E+00
          2   -1    0    0  502    0  0.00000000000E+00  0.00000000000E+00  0.14848871754E+04  0.14848871754E+04  0.00000000000E+00 0. -1.
          1   -1    0    0  501    0 -0.00000000000E+00 -0.00000000000E+00 -0.29334525944E+03  0.29334525944E+03  0.00000000000E+00 0. -1.
         25    2    1    2    0    0  0.13155552996E+02 -0.89552645576E+02 -0.91001995065E+02  0.17916157985E+03  0.12499905474E+03 0.  0.
          2    1    1    2  501    0  0.30648058520E+01  0.36733196772E+02 -0.15557942771E+03  0.15988645692E+03  0.00000000000E+00 0. -1.
          1    1    1    2  502    0 -0.16220358848E+02  0.52819448804E+02  0.14381233387E+04  0.14391843980E+04  0.00000000000E+00 0. -1.
         22    1    3    3    0    0  0.29962738424E+02  0.64495911341E+01 -0.74174495494E+02  0.80257203423E+02  0.00000000000E+00 0. -1.
         22    1    3    3    0    0 -0.16807185428E+02 -0.96002236710E+02 -0.16827499571E+02  0.98904376431E+02  0.00000000000E+00 0. -1.
</event>
<event>
 7    1  0.6888431E-006  0.1347027E+03  0.7818608E-02  0.1265427E+00
          2   -1    0    0  502    0  0.00000000000E+00  0.00000000000E+00  0.19236454736E+04  0.19236454736E+04  0.00000000000E+00 0. -1.
          1   -1    0    0  501    0 -0.00000000000E+00 -0.00000000000E+00 -0.32569352764E+03  0.32569352764E+03  0.00000000000E+00 0. -1.
         25    2    1    2    0    0 -0.42926981459E+02 -0.19898553774E+03 -0.53962942534E+02  0.24489548075E+03  0.12499530935E+03 0.  0.
          2    1    1    2  501    0  0.54844808981E+02  0.65800611194E+02 -0.16325056585E+03  0.18435948784E+03  0.00000000000E+00 0. -1.
          1    1    1    2  502    0 -0.11917827522E+02  0.13318492654E+03  0.18151654544E+04  0.18200840327E+04  0.00000000000E+00 0. -1.
         22    1    3    3    0    0  0.41093468575E+02 -0.10388890173E+03 -0.30950478273E+02  0.11592889703E+03  0.00000000000E+00 0. -1.
         22    1    3    3    0    0 -0.84020450034E+02 -0.95096636009E+02 -0.23012464261E+02  0.12896658372E+03  0.00000000000E+00 0. -1.
</event>
<event>
 7    1  0.6888431E-006  0.2111908E+03  0.7818608E-02  0.1373574E+00
          2   -1    0    0  502    0  0.00000000000E+00  0.00000000000E+00  0.61134353835E+03  0.61134353835E+03  0.00000000000E+00 0. -1.
          1   -1    0    0  501    0 -0.00000000000E+00 -0.00000000000E+00 -0.21323390751E+04  0.21323390751E+04  0.00000000000E+00 0. -1.
         25    2    1    2    0    0 -0.18845304916E+03 -0.11455201457E+03 -0.12337276719E+03  0.28192594314E+03  0.12499872779E+03 0.  0.
          2    1    1    2  501    0  0.17006958145E+03  0.12415540416E+03 -0.19237405629E+04  0.19352302138E+04  0.00000000000E+00 0. -1.
          1    1    1    2  502    0  0.18383467710E+02 -0.96033895947E+01  0.52611779334E+03  0.52652645655E+03  0.00000000000E+00 0. -1.
         22    1    3    3    0    0 -0.77260079850E+02 -0.81378945921E+02 -0.12217115533E+03  0.16588382674E+03  0.00000000000E+00 0. -1.
         22    1    3    3    0    0 -0.11119296931E+03 -0.33173068647E+02 -0.12016118601E+01  0.11604211640E+03  0.00000000000E+00 0. -1.
</event>
<event>
 7    1  0.6888431E-006  0.2591056E+02  0.7818608E-02  0.1682505E+00
          2   -1    0    0  502    0  0.00000000000E+00  0.00000000000E+00  0.57748390298E+03  0.57748390298E+03  0.00000000000E+00 0. -1.
          1   -1    0    0  501    0 -0.00000000000E+00 -0.00000000000E+00 -0.30241256668E+03  0.30241256668E+03  0.00000000000E+00 0. -1.
         25    2    1    2    0    0 -0.44271828182E+02 -0.16589071682E+01  0.21996498357E+02  0.13443110736E+03  0.12500051977E+03 0.  0.
          2    1    1    2  501    0  0.19495023456E+02  0.89051251836E+01 -0.24539417389E+03  0.24632835357E+03  0.00000000000E+00 0. -1.
          1    1    1    2  502    0  0.24776804726E+02 -0.72462180154E+01  0.49846901183E+03  0.49913700873E+03  0.00000000000E+00 0. -1.
         22    1    3    3    0    0 -0.82909662204E+02 -0.25379474231E+02  0.20349380762E+02  0.89063051241E+02  0.00000000000E+00 0.  1.
         22    1    3    3    0    0  0.38637834022E+02  0.23720567063E+02  0.16471175953E+01  0.45368056119E+02  0.00000000000E+00 0.  1.
</event>
<event>
 7    1  0.6888431E-006  0.7632104E+02  0.7818608E-02  0.1406862E+00
          2   -1    0    0  502    0  0.00000000000E+00  0.00000000000E+00  0.86941804651E+03  0.86941804651E+03  0.00000000000E+00 0. -1.
          1   -1    0    0  501    0 -0.00000000000E+00 -0.00000000000E+00 -0.27009000439E+03  0.27009000439E+03  0.00000000000E+00 0. -1.
         25    2    1    2    0    0  0.34386971128E+02  0.35855829504E+02  0.22879770632E+03  0.26541178614E+03  0.12500768582E+03 0.  0.
          2    1    1    2  501    0 -0.74833360676E+02 -0.18723681675E+02 -0.24507352035E+03  0.25692730198E+03  0.00000000000E+00 0. -1.
          1    1    1    2  502    0  0.40446389548E+02 -0.17132147829E+02  0.61560385615E+03  0.61716896278E+03  0.00000000000E+00 0. -1.
         22    1    3    3    0    0  0.11196160572E+02  0.23891707406E+02 -0.76946482813E+01  0.27484091881E+02  0.00000000000E+00 0.  1.
         22    1    3    3    0    0  0.23190810556E+02  0.11964122098E+02  0.23649235460E+03  0.23792769426E+03  0.00000000000E+00 0.  1.
</event>
<event>
 7    1  0.6888431E-006  0.1556838E+03  0.7818608E-02  0.1199517E+00
          2   -1    0    0  502    0  0.00000000000E+00  0.00000000000E+00  0.72119544010E+03  0.72119544010E+03  0.00000000000E+00 0. -1.
          1   -1    0    0  501    0 -0.00000000000E+00 -0.00000000000E+00 -0.73804533276E+03  0.73804533276E+03  0.00000000000E+00 0. -1.
         25    2    1    2    0    0 -0.22002203951E+03 -0.42765611377E+02 -0.19077328116E+03  0.31977702990E+03  0.12499723461E+03 0.  0.
          2    1    1    2  501    0  0.94562030209E+02  0.11749779415E+03 -0.46251582037E+03  0.48648596412E+03  0.00000000000E+00 0. -1.
          1    1    1    2  502    0  0.12546000930E+03 -0.74732182774E+02  0.63643920887E+03  0.65297777885E+03  0.00000000000E+00 0. -1.
         22    1    3    3    0    0 -0.20295167773E+03  0.32322818300E+01 -0.17567612603E+03  0.26844353670E+03  0.00000000000E+00 0.  1.
         22    1    3    3    0    0 -0.17070361775E+02 -0.45997893207E+02 -0.15097155130E+02  0.51333493196E+02  0.00000000000E+00 0.  1.
</event>
<event>
 7    1  0.6888431E-006  0.1376410E+03  0.7818608E-02  0.1272822E+00
          2   -1    0    0  502    0  0.00000000000E+00  0.00000000000E+00  0.37135578918E+03  0.37135578918E+03  0.00000000000E+00 0. -1.
          1   -1    0    0  501    0 -0.00000000000E+00 -0.00000000000E+00 -0.17048874947E+04  0.17048874947E+04  0.00000000000E+00 0. -1.
         25    2    1    2    0    0  0.16731938771E+03 -0.13242075970E+03 -0.42260976179E+03  0.48964719637E+03  0.12499732416E+03 0.  0.
          2    1    1    2  501    0 -0.59942195106E+02  0.49969293975E+02 -0.12339138728E+04  0.12363791662E+04  0.00000000000E+00 0. -1.
          1    1    1    2  502    0 -0.10737719261E+03  0.82451465729E+02  0.32299192910E+03  0.35021692129E+03  0.00000000000E+00 0. -1.
         22    1    3    3    0    0  0.80026814071E+02 -0.78726613121E+01 -0.23353791656E+03  0.24699438908E+03  0.00000000000E+00 0. -1.
         22    1    3    3    0    0  0.87292573640E+02 -0.12454809839E+03 -0.18907184523E+03  0.24265280729E+03  0.00000000000E+00 0. -1.
</event>
<event>
 7    1  0.6888431E-006  0.7104714E+02  0.7818608E-02  0.1404347E+00
          2   -1    0    0  502    0  0.00000000000E+00  0.00000000000E+00  0.26213503208E+04  0.26213503208E+04  0.00000000000E+00 0. -1.
          1   -1    0    0  501    0 -0.00000000000E+00 -0.00000000000E+00 -0.91754253538E+02  0.91754253538E+02  0.00000000000E+00 0. -1.
         25    2    1    2    0    0  0.75688303232E+02 -0.47895539868E+02  0.12454827354E+04  0.12549400518E+04  0.12499835014E+03 0.  0.
          2    1    1    2  501    0 -0.45726563292E+02 -0.15009736109E+02 -0.79413526156E+02  0.92858596291E+02  0.00000000000E+00 0. -1.
          1    1    1    2  502    0 -0.29961739940E+02  0.62905275977E+02  0.13635268581E+04  0.13653059263E+04  0.00000000000E+00 0. -1.
         22    1    3    3    0    0  0.35379374624E+02 -0.16656745512E+02  0.87564537473E+02  0.95899403245E+02  0.00000000000E+00 0. -1.
         22    1    3    3    0    0  0.40308928609E+02 -0.31238794356E+02  0.11579181979E+04  0.11590406486E+04  0.00000000000E+00 0. -1.
</event>
<event>
 7    1  0.6888431E-006  0.3685110E+02  0.7818608E-02  0.1533569E+00
          2   -1    0    0  502    0  0.00000000000E+00  0.00000000000E+00  0.12401621177E+04  0.12401621177E+04  0.00000000000E+00 0. -1.
          1   -1    0    0  501    0 -0.00000000000E+00 -0.00000000000E+00 -0.23008625700E+04  0.23008625700E+04  0.00000000000E+00 0. -1.
         25    2    1    2    0    0 -0.33493775301E+02  0.68262702523E+01  0.12145456263E+03  0.17760842424E+03  0.12500044250E+03 0.  0.
          2    1    1    2  501    0  0.23236605245E+02  0.28601816543E+02 -0.22723243709E+04  0.22726231651E+04  0.00000000000E+00 0. -1.
          1    1    1    2  502    0  0.10257170056E+02 -0.35428086795E+02  0.10901693559E+04  0.10907930984E+04  0.00000000000E+00 0. -1.
         22    1    3    3    0    0 -0.55907470647E+02  0.43535351901E+02  0.30790418808E+02  0.77259446217E+02  0.00000000000E+00 0. -1.
         22    1    3    3    0    0  0.22413695346E+02 -0.36709081649E+02  0.90664143822E+02  0.10034897802E+03  0.00000000000E+00 0. -1.
</event>
<event>
 7    1  0.6888431E-006  0.9156824E+02  0.7818608E-02  0.1338929E+00
          2   -1    0    0  502    0  0.00000000000E+00  0.00000000000E+00  0.29145511244E+04  0.29145511244E+04  0.00000000000E+00 0. -1.
          1   -1    0    0  501    0 -0.00000000000E+00 -0.00000000000E+00 -0.87953325354E+03  0.87953325354E+03  0.00000000000E+00 0. -1.
         25    2    1    2    0    0  0.46077112050E+02  0.14804407354E+03  0.11296349121E+04  0.11470570520E+04  0.12499879191E+03 0.  0.
          2    1    1    2  501    0 -0.21275242524E+02 -0.88925417526E+02 -0.86784116553E+03  0.87264463237E+03  0.00000000000E+00 0. -1.
          1    1    1    2  502    0 -0.24801869526E+02 -0.59118656019E+02  0.17732241243E+04  0.17743826936E+04  0.00000000000E+00 0. -1.
         22    1    3    3    0    0  0.57173980410E+02  0.10263872644E+03  0.42698290885E+03  0.44285209343E+03  0.00000000000E+00 0. -1.
         22    1    3    3    0    0 -0.11096868359E+02  0.45405347105E+02  0.70265200327E+03  0.70420495861E+03  0.00000000000E+00 0. -1.
</event>
<event>
 7    1  0.6888431E-006  0.1175221E+03  0.7818608E-02  0.1444668E+00
          2   -1    0    0  502    0  0.00000000000E+00  0.00000000000E+00  0.88452620094E+03  0.88452620094E+03  0.00000000000E+00 0. -1.
          1   -1    0    0  501    0 -0.00000000000E+00 -0.00000000000E+00 -0.62288102417E+02  0.62288102417E+02  0.00000000000E+00 0. -1.
         25    2    1    2    0    0  0.12770022759E+03  0.37479274620E+02  0.35159342025E+03  0.39617604340E+03  0.12500192018E+03 0.  0.
          2    1    1    2  501    0 -0.10659947362E+03 -0.40918769901E+02  0.42309413862E+02  0.12176978282E+03  0.00000000000E+00 0. -1.
          1    1    1    2  502    0 -0.21100753973E+02  0.34394952816E+01  0.42833526441E+03  0.42886847714E+03  0.00000000000E+00 0. -1.
         22    1    3    3    0    0  0.75382722783E+02 -0.41563616856E+02  0.19454843837E+03  0.21274205981E+03  0.00000000000E+00 0. -1.
         22    1    3    3    0    0  0.52317504809E+02  0.79042891475E+02  0.15704498188E+03  0.18343398359E+03  0.00000000000E+00 0. -1.
</event>
<event>
 7    1  0.6888431E-006  0.1198203E+03  0.7818608E-02  0.1268775E+00
          2   -1    0    0  502    0  0.00000000000E+00  0.00000000000E+00  0.16018442625E+04  0.16018442625E+04  0.00000000000E+00 0. -1.
          1   -1    0    0  501    0 -0.00000000000E+00 -0.00000000000E+00 -0.10076312314E+03  0.10076312314E+03  0.00000000000E+00 0. -1.
         25    2    1    2    0    0 -0.47096527376E+02 -0.72944682987E+02  0.50985087090E+03  0.53208050897E+03  0.12499099087E+03 0.  0.
          2    1    1    2  501    0 -0.87573542675E+02  0.31945328452E+02 -0.59382042959E+02  0.11052536547E+03  0.00000000000E+00 0. -1.
          1    1    1    2  502    0  0.13467007005E+03  0.40999354536E+02  0.10506123114E+04  0.10600015112E+04  0.00000000000E+00 0. -1.
         22    1    3    3    0    0  0.21001666908E+02 -0.49639523233E+01  0.11359837436E+02  0.24387635026E+02  0.00000000000E+00 0. -1.
         22    1    3    3    0    0 -0.68098194284E+02 -0.67980730664E+02  0.49849103346E+03  0.50769287394E+03  0.00000000000E+00 0. -1.
</event>
<event>
 7    1  0.6888431E-006  0.1359778E+03  0.7818608E-02  0.1298515E+00
          2   -1    0    0  502    0  0.00000000000E+00  0.00000000000E+00  0.51808619310E+03  0.51808619310E+03  0.00000000000E+00 0. -1.
          1   -1    0    0  501    0 -0.00000000000E+00 -0.00000000000E+00 -0.14696762247E+04  0.14696762247E+04  0.00000000000E+00 0. -1.
         25    2    1    2    0    0  0.87382359148E+02 -0.11061548742E+03  0.82640235183E+02  0.20573017642E+03  0.12499613703E+03 0.  0.
          2    1    1    2  501    0 -0.12248389795E+03  0.59514702562E+02 -0.14022401448E+04  0.14088370128E+04  0.00000000000E+00 0. -1.
          1    1    1    2  502    0  0.35101538801E+02  0.51100784854E+02  0.36800987805E+03  0.37319522850E+03  0.00000000000E+00 0. -1.
         22    1    3    3    0    0  0.85075374303E+02 -0.94506383621E+02  0.11375611965E+03  0.17061573965E+03  0.00000000000E+00 0. -1.
         22    1    3    3    0    0  0.23069848451E+01 -0.16109103795E+02 -0.31115884464E+02  0.35114436776E+02  0.00000000000E+00 0. -1.
</event>
<event>
 7    1  0.6888431E-006  0.7048004E+02  0.7818608E-02  0.1436742E+00
          2   -1    0    0  502    0  0.00000000000E+00  0.00000000000E+00  0.21778534814E+04  0.21778534814E+04  0.00000000000E+00 0. -1.
          1   -1    0    0  501    0 -0.00000000000E+00 -0.00000000000E+00 -0.11043371311E+04  0.11043371311E+04  0.00000000000E+00 0. -1.
         25    2    1    2    0    0 -0.99705492078E+02  0.25208821914E+02  0.37393535457E+03  0.40746674517E+03  0.12499931668E+03 0.  0.
          2    1    1    2  501    0  0.70381033996E+02 -0.13224027892E+01 -0.10862319311E+04  0.10885104717E+04  0.00000000000E+00 0. -1.
          1    1    1    2  502    0  0.29324458081E+02 -0.23886419125E+02  0.17858129269E+04  0.17862133956E+04  0.00000000000E+00 0. -1.
         22    1    3    3    0    0  0.37299591195E+01 -0.22636778339E+02  0.81626427662E+01  0.24350874020E+02  0.00000000000E+00 0.  1.
         22    1    3    3    0    0 -0.10343545120E+03  0.47845600253E+02  0.36577271180E+03  0.38311587115E+03  0.00000000000E+00 0.  1.
</event>
<event>
 7    1  0.6888431E-006  0.1065449E+03  0.7818608E-02  0.1355467E+00
          2   -1    0    0  502    0  0.00000000000E+00  0.00000000000E+00  0.10508343533E+04  0.10508343533E+04  0.00000000000E+00 0. -1.
          1   -1    0    0  501    0 -0.00000000000E+00 -0.00000000000E+00 -0.84877798946E+03  0.84877798946E+03  0.00000000000E+00 0. -1.
         25    2    1    2    0    0  0.10683382497E+03 -0.10072659933E+03  0.25767213392E+03  0.32183729919E+03  0.12500001834E+03 0.  0.
          2    1    1    2  501    0 -0.90178956780E+02  0.55901294603E+02 -0.81249170602E+03  0.81938999954E+03  0.00000000000E+00 0. -1.
          1    1    1    2  502    0 -0.16654868185E+02  0.44825304730E+02  0.75687593597E+03  0.75838504405E+03  0.00000000000E+00 0. -1.
         22    1    3    3    0    0  0.12222186084E+03 -0.74301980315E+02  0.25337224700E+03  0.29095783732E+03  0.00000000000E+00 0. -1.
         22    1    3    3    0    0 -0.15388035874E+02 -0.26424619018E+02  0.42998869163E+01  0.30879461877E+02  0.00000000000E+00 0. -1.
</event>
<event>
 7    1  0.6888431E-006  0.3278380E+02  0.7818608E-02  0.1637650E+00
          2   -1    0    0  502    0  0.00000000000E+00  0.00000000000E+00  0.12674087308E+04  0.12674087308E+04  0.00000000000E+00 0. -1.
          1   -1    0    0  501    0 -0.00000000000E+00 -0.00000000000E+00 -0.13309319092E+03  0.13309319092E+03  0.00000000000E+00 0. -1.
         25    2    1    2    0    0  0.39914070145E+02 -0.10813902075E+01  0.17807031671E+01  0.13123489144E+03  0.12500049370E+03 0.  0.
          2    1    1    2  501    0 -0.12912593649E+02 -0.17507107846E+02 -0.66405860047E+02  0.69878266639E+02  0.00000000000E+00 0. -1.
          1    1    1    2  502    0 -0.27001476496E+02  0.18588498053E+02  0.11989406968E+04  0.11993887636E+04  0.00000000000E+00 0. -1.
         22    1    3    3    0    0  0.54155601236E+02 -0.53679951104E+02  0.65575753065E+01  0.76533444255E+02  0.00000000000E+00 0.  1.
         22    1    3    3    0    0 -0.14241531090E+02  0.52598560896E+02 -0.47768721394E+01  0.54701447180E+02  0.00000000000E+00 0.  1.
</event>
<event>
 7    1  0.6888431E-006  0.9871269E+02  0.7818608E-02  0.1403915E+00
          2   -1    0    0  502    0  0.00000000000E+00  0.00000000000E+00  0.52237774212E+03  0.52237774212E+03  0.00000000000E+00 0. -1.
          1   -1    0    0  501    0 -0.00000000000E+00 -0.00000000000E+00 -0.45408739776E+03  0.45408739776E+03  0.00000000000E+00 0. -1.
         25    2    1    2    0    0 -0.51911867939E+01  0.10276438111E+03 -0.16224986333E+03  0.22920932120E+03  0.12499771330E+03 0.  0.
          2    1    1    2  501    0 -0.28599279329E+02 -0.94626001327E+02 -0.24824887172E+03  0.26720685099E+03  0.00000000000E+00 0. -1.
          1    1    1    2  502    0  0.33790466123E+02 -0.81383797846E+01  0.47878907940E+03  0.48004896769E+03  0.00000000000E+00 0. -1.
         22    1    3    3    0    0 -0.18478262058E+02  0.12924800029E+03 -0.14415085502E+03  0.19448897334E+03  0.00000000000E+00 0. -1.
         22    1    3    3    0    0  0.13287075264E+02 -0.26483619178E+02 -0.18099008308E+02  0.34720347860E+02  0.00000000000E+00 0. -1.
</event>
<event>
 7    1  0.6888431E-006  0.1075853E+03  0.7818608E-02  0.1385740E+00
          2   -1    0    0  502    0  0.00000000000E+00  0.00000000000E+00  0.32680311075E+03  0.32680311075E+03  0.00000000000E+00 0. -1.
          1   -1    0    0  501    0 -0.00000000000E+00 -0.00000000000E+00 -0.47650586088E+03  0.47650586088E+03  0.00000000000E+00 0. -1.
         25    2    1    2    0    0 -0.74141003886E+02  0.39406731011E+02  0.86967657026E+02  0.17389013820E+03  0.12499851154E+03 0.  0.
          2    1    1    2  501    0 -0.19887081205E+02  0.31042781719E+02 -0.41457900929E+03  0.41621497479E+03  0.00000000000E+00 0. -1.
          1    1    1    2  502    0  0.94028085091E+02 -0.70449512730E+02  0.17790860213E+03  0.21320385864E+03  0.00000000000E+00 0. -1.
         22    1    3    3    0    0 -0.70249228896E+01  0.49904349907E+02 -0.13901599419E+02  0.52278562984E+02  0.00000000000E+00 0. -1.
         22    1    3    3    0    0 -0.67116080996E+02 -0.10497618897E+02  0.10086925644E+03  0.12161157522E+03  0.00000000000E+00 0. -1.
</event>
<event>
 7    1  0.6888431E-006  0.1081878E+03  0.7818608E-02  0.1308362E+00
          2   -1    0    0  502    0  0.00000000000E+00  0.00000000000E+00  0.39534020595E+03  0.39534020595E+03  0.00000000000E+00 0. -1.
          1   -1    0    0  501    0 -0.00000000000E+00 -0.00000000000E+00 -0.72906452832E+03  0.72906452832E+03  0.00000000000E+00 0. -1.
         25    2    1    2    0    0  0.15059466047E+02 -0.16274571546E+03 -0.49133667054E+02  0.21155943953E+03  0.12502129338E+03 0.  0.
          2    1    1    2  501    0 -0.37822623544E+02  0.60315746955E+02 -0.58774715704E+03  0.59204329300E+03  0.00000000000E+00 0. -1.
          1    1    1    2  502    0  0.22763157497E+02  0.10242996851E+03  0.30315650172E+03  0.32080200174E+03  0.00000000000E+00 0. -1.
         22    1    3    3    0    0 -0.74250533553E+01 -0.68966219327E+02 -0.84067386776E+02  0.10898989102E+03  0.00000000000E+00 0. -1.
         22    1    3    3    0    0  0.22484519403E+02 -0.93779496134E+02  0.34933719723E+02  0.10256954851E+03  0.00000000000E+00 0. -1.
</event>
<event>
 7    1  0.6888431E-006  0.5691338E+02  0.7818608E-02  0.1445323E+00
          2   -1    0    0  502    0  0.00000000000E+00  0.00000000000E+00  0.13949314642E+04  0.13949314642E+04  0.00000000000E+00 0. -1.
          1   -1    0    0  501    0 -0.00000000000E+00 -0.00000000000E+00 -0.92194158686E+03  0.92194158686E+03  0.00000000000E+00 0. -1.
         25    2    1    2    0    0  0.60344510081E+01 -0.63792634624E+02  0.71236505588E+03  0.72608186652E+03  0.12499995685E+03 0.  0.
          2    1    1    2  501    0 -0.40512336110E+02  0.16994653617E+02 -0.91330410195E+03  0.91436013160E+03  0.00000000000E+00 0. -1.
          1    1    1    2  502    0  0.34477885102E+02  0.46797981007E+02  0.67392892343E+03  0.67643105297E+03  0.00000000000E+00 0. -1.
         22    1    3    3    0    0  0.37619740331E+02 -0.86959949708E+02  0.59114900079E+03  0.59869392752E+03  0.00000000000E+00 0. -1.
         22    1    3    3    0    0 -0.31585289323E+02  0.23167315084E+02  0.12121605509E+03  0.12738793900E+03  0.00000000000E+00 0. -1.
</event>
<event>
 7    1  0.6888431E-006  0.1028709E+03  0.7818608E-02  0.1325056E+00
          2   -1    0    0  502    0  0.00000000000E+00  0.00000000000E+00  0.18602441631E+03  0.18602441631E+03  0.00000000000E+00 0. -1.
          1   -1    0    0  501    0 -0.00000000000E+00 -0.00000000000E+00 -0.10876989216E+04  0.10876989216E+04  0.00000000000E+00 0. -1.
         25    2    1    2    0    0  0.47915494630E+02  0.13857434004E+03  0.13975626845E+02  0.19318077969E+03  0.12499901262E+03 0.  0.
          2    1    1    2  501    0 -0.66928330081E+02 -0.76993168620E+02 -0.98244298964E+03  0.98772545642E+03  0.00000000000E+00 0. -1.
          1    1    1    2  502    0  0.19012835451E+02 -0.61581171415E+02  0.66792857462E+02  0.92817101833E+02  0.00000000000E+00 0. -1.
         22    1    3    3    0    0  0.78065671266E+02  0.65489883148E+02  0.40702054118E+02  0.10972616386E+03  0.00000000000E+00 0.  1.
         22    1    3    3    0    0 -0.30150176636E+02  0.73084456887E+02 -0.26726427273E+02  0.83454615837E+02  0.00000000000E+00 0.  1.
</event>
<event>
 7    1  0.6888431E-006  0.1918748E+03  0.7818608E-02  0.1243930E+00
          2   -1    0    0  502    0  0.00000000000E+00  0.00000000000E+00  0.49625669217E+03  0.49625669217E+03  0.00000000000E+00 0. -1.
          1   -1    0    0  501    0 -0.00000000000E+00 -0.00000000000E+00 -0.10521344069E+04  0.10521344069E+04  0.00000000000E+00 0. -1.
         25    2    1    2    0    0 -0.14901502247E+03 -0.41690120242E+02  0.58896346191E+02  0.20745332075E+03  0.12499823058E+03 0.  0.
          2    1    1    2  501    0  0.15738246086E+03  0.11563870138E+03 -0.96414620870E+03  0.98372733010E+03  0.00000000000E+00 0. -1.
          1    1    1    2  502    0 -0.83674383855E+01 -0.73948581136E+02  0.34937214778E+03  0.35721044822E+03  0.00000000000E+00 0. -1.
         22    1    3    3    0    0 -0.33523668112E+01 -0.39863772010E+02  0.46370042428E+02  0.61241648548E+02  0.00000000000E+00 0.  1.
         22    1    3    3    0    0 -0.14566265566E+03 -0.18263482321E+01  0.12526303763E+02  0.14621167220E+03  0.00000000000E+00 0.  1.
</event>
<event>
 7    1  0.6888431E-006  0.3067727E+02  0.7818608E-02  0.1596794E+00
          2   -1    0    0  502    0  0.00000000000E+00  0.00000000000E+00  0.23674823904E+04  0.23674823904E+04  0.00000000000E+00 0. -1.
          1   -1    0    0  501    0 -0.00000000000E+00 -0.00000000000E+00 -0.12771358204E+04  0.12771358204E+04  0.00000000000E+00 0. -1.
         25    2    1    2    0    0  0.26501428297E+02 -0.14234136491E+02  0.19313759469E+03  0.23201924197E+03  0.12500344722E+03 0.  0.
          2    1    1    2  501    0 -0.26585250559E+02 -0.15333634339E+02 -0.12574063194E+04  0.12577808028E+04  0.00000000000E+00 0. -1.
          1    1    1    2  502    0  0.83822262664E-01  0.29567770830E+02  0.21546152947E+04  0.21548181660E+04  0.00000000000E+00 0. -1.
         22    1    3    3    0    0  0.75324244488E+02 -0.74948142485E+01  0.89208585356E+02  0.11699609288E+03  0.00000000000E+00 0.  1.
         22    1    3    3    0    0 -0.48822816191E+02 -0.67393222425E+01  0.10392900933E+03  0.11502314909E+03  0.00000000000E+00 0.  1.
</event>
<event>
 7    1  0.8384597E-006  0.1336081E+03  0.7818608E-02  0.1235974E+00
          2   -1    0    0  502    0  0.00000000000E+00  0.00000000000E+00  0.16307211930E+04  0.16307211930E+04  0.00000000000E+00 0. -1.
          1   -1    0    0  501    0 -0.00000000000E+00 -0.00000000000E+00 -0.18479040919E+04  0.18479040919E+04  0.00000000000E+00 0. -1.
         25    2    1    2    0    0 -0.10469937196E+03  0.50864454310E+02 -0.42605485472E+03  0.45901685582E+03  0.12499833397E+03 0.  0.
          2    1    1    2  501    0  0.82543625252E+02  0.81314684800E+02 -0.14001892693E+04  0.14049752731E+04  0.00000000000E+00 0. -1.
          1    1    1    2  502    0  0.22155746708E+02 -0.13217913911E+03  0.16090612252E+04  0.16146331560E+04  0.00000000000E+00 0. -1.
         22    1    3    3    0    0 -0.74346580427E+02 -0.21939402413E+01 -0.36543741177E+03  0.37292992547E+03  0.00000000000E+00 0.  1.
         22    1    3    3    0    0 -0.30352791533E+02  0.53058394551E+02 -0.60617442950E+02  0.86086930344E+02  0.00000000000E+00 0.  1.
</event>
<event>
 7    1  0.6888431E-006  0.5549326E+02  0.7818608E-02  0.1545445E+00
          2   -1    0    0  502    0  0.00000000000E+00  0.00000000000E+00  0.19677503183E+04  0.19677503183E+04  0.00000000000E+00 0. -1.
          1   -1    0    0  501    0 -0.00000000000E+00 -0.00000000000E+00 -0.66670465635E+03  0.66670465635E+03  0.00000000000E+00 0. -1.
         25    2    1    2    0    0 -0.77874089532E+02 -0.54286297582E+00  0.13267824830E+04  0.13349310484E+04  0.12499791310E+03 0.  0.
          2    1    1    2  501    0  0.55450005460E+02 -0.16236020548E+01 -0.66126940619E+03  0.66359216899E+03  0.00000000000E+00 0. -1.
          1    1    1    2  502    0  0.22424084071E+02  0.21664650307E+01  0.63553258515E+03  0.63593175727E+03  0.00000000000E+00 0. -1.
         22    1    3    3    0    0  0.11893973370E+02  0.58444565998E+01  0.82728011129E+03  0.82738625007E+03  0.00000000000E+00 0. -1.
         22    1    3    3    0    0 -0.89768062902E+02 -0.63873195756E+01  0.49950237170E+03  0.50754479832E+03  0.00000000000E+00 0. -1.
</event>
<event>
 7    1  0.6888431E-006  0.4307789E+02  0.7818608E-02  0.1510763E+00
          2   -1    0    0  502    0  0.00000000000E+00  0.00000000000E+00  0.33477875877E+03  0.33477875877E+03  0.00000000000E+00 0. -1.
          1   -1    0    0  501    0 -0.00000000000E+00 -0.00000000000E+00 -0.66578713731E+03  0.66578713731E+03  0.00000000000E+00 0. -1.
         25    2    1    2    0    0 -0.61502682159E+01 -0.84880701538E+01 -0.35939597900E+02  0.13049094010E+03  0.12500543035E+03 0.  0.
          2    1    1    2  501    0 -0.42399948768E+01  0.43483059432E+02 -0.58058903086E+03  0.58223051859E+03  0.00000000000E+00 0. -1.
          1    1    1    2  502    0  0.10390263093E+02 -0.34994989278E+02  0.28552025023E+03  0.28784443738E+03  0.00000000000E+00 0. -1.
         22    1    3    3    0    0  0.14702547552E+02 -0.18414721267E+02  0.42569040978E+02  0.48655833296E+02  0.00000000000E+00 0.  1.
         22    1    3    3    0    0 -0.20852815768E+02  0.99266511134E+01 -0.78508638879E+02  0.81835106809E+02  0.00000000000E+00 0.  1.
</event>
<event>
 7    1  0.6888431E-006  0.1023235E+03  0.7818608E-02  0.1290541E+00
          2   -1    0    0  502    0  0.00000000000E+00  0.00000000000E+00  0.86014280061E+03  0.86014280061E+03  0.00000000000E+00 0. -1.
          1   -1    0    0  501    0 -0.00000000000E+00 -0.00000000000E+00 -0.27616065875E+04  0.27616065875E+04  0.00000000000E+00 0. -1.
         25    2    1    2    0    0 -0.13874937842E+03 -0.88121098279E+02 -0.48281488844E+03  0.52512028165E+03  0.12499750290E+03 0.  0.
          2    1    1    2  501    0  0.99614817534E+02  0.84916878395E+01 -0.22541821419E+04  0.22563980920E+04  0.00000000000E+00 0. -1.
          1    1    1    2  502    0  0.39134560886E+02  0.79629410440E+02  0.83553324342E+03  0.84023101450E+03  0.00000000000E+00 0. -1.
         22    1    3    3    0    0 -0.45356937598E+02 -0.97637173099E+02 -0.31422331847E+03  0.33215442678E+03  0.00000000000E+00 0. -1.
         22    1    3    3    0    0 -0.93392440823E+02  0.95160748202E+01 -0.16859156997E+03  0.19296585487E+03  0.00000000000E+00 0. -1.
</event>
<event>
 7    1  0.6888431E-006  0.6606812E+02  0.7818608E-02  0.1407610E+00
          2   -1    0    0  502    0  0.00000000000E+00  0.00000000000E+00  0.16866008534E+03  0.16866008534E+03  0.00000000000E+00 0. -1.
          1   -1    0    0  501    0 -0.00000000000E+00 -0.00000000000E+00 -0.26498528276E+04  0.26498528276E+04  0.00000000000E+00 0. -1.
         25    2    1    2    0    0 -0.78752724124E+02  0.82728815775E+02  0.17471308213E+02  0.17022015849E+03  0.12499442879E+03 0.  0.
          2    1    1    2  501    0  0.52651828520E+02 -0.39561183862E+02 -0.25645039427E+04  0.25653494449E+04  0.00000000000E+00 0. -1.
          1    1    1    2  502    0  0.26100895604E+02 -0.43167631913E+02  0.65839892214E+02  0.82943309574E+02  0.00000000000E+00 0. -1.
         22    1    3    3    0    0 -0.85600868238E+02  0.26686796332E+02 -0.31949720681E+02  0.95186545232E+02  0.00000000000E+00 0. -1.
         22    1    3    3    0    0  0.68481441146E+01  0.56042019443E+02  0.49421028894E+02  0.75033613254E+02  0.00000000000E+00 0. -1.
</event>
<event>
 7    1  0.6888431E-006  0.5186577E+02  0.7818608E-02  0.1501111E+00
          2   -1    0    0  502    0  0.00000000000E+00  0.00000000000E+00  0.32601934792E+04  0.32601934792E+04  0.00000000000E+00 0. -1.
          1   -1    0    0  501    0 -0.00000000000E+00 -0.00000000000E+00 -0.25305809166E+02  0.25305809166E+02  0.00000000000E+00 0. -1.
         25    2    1    2    0    0 -0.44095174400E+02 -0.70388012597E+02  0.11709095590E+04  0.11804885224E+04  0.12500039765E+03 0.  0.
          2    1    1    2  501    0  0.30152475757E+02  0.41162175339E+02  0.11534792840E+02  0.52312024610E+02  0.00000000000E+00 0. -1.
          1    1    1    2  502    0  0.13942698643E+02  0.29225837258E+02  0.20524433182E+04  0.20526987414E+04  0.00000000000E+00 0. -1.
         22    1    3    3    0    0 -0.55968525729E+02 -0.89033084370E+02  0.59966566839E+03  0.60881711525E+03  0.00000000000E+00 0. -1.
         22    1    3    3    0    0  0.11873351329E+02  0.18645071773E+02  0.57124389058E+03  0.57167140711E+03  0.00000000000E+00 0. -1.
</event>
<event>
 7    1  0.6888431E-006  0.8719287E+02  0.7818608E-02  0.1407885E+00
          2   -1    0    0  502    0  0.00000000000E+00  0.00000000000E+00  0.18953130814E+04  0.18953130814E+04  0.00000000000E+00 0. -1.
          1   -1    0    0  501    0 -0.00000000000E+00 -0.00000000000E+00 -0.18068742579E+04  0.18068742579E+04  0.00000000000E+00 0. -1.
         25    2    1    2    0    0  0.98048438753E+02  0.23907537870E+02  0.66442780705E+03  0.68357530782E+03  0.12500329582E+03 0.  0.
          2    1    1    2  501    0 -0.70915256897E+02 -0.50713417519E+02 -0.17959450311E+04  0.17980598930E+04  0.00000000000E+00 0. -1.
          1    1    1    2  502    0 -0.27133181856E+02  0.26805879649E+02  0.12199560476E+04  0.12205521385E+04  0.00000000000E+00 0. -1.
         22    1    3    3    0    0  0.96667983330E+02 -0.32596698212E+02  0.47813270292E+03  0.48889479987E+03  0.00000000000E+00 0.  1.
         22    1    3    3    0    0  0.13804554221E+01  0.56504236082E+02  0.18629510414E+03  0.19468050795E+03  0.00000000000E+00 0.  1.
</event>
<event>
 7    1  0.6888431E-006  0.1103766E+03  0.7818608E-02  0.1399326E+00
          2   -1    0    0  502    0  0.00000000000E+00  0.00000000000E+00  0.13943465516E+04  0.13943465516E+04  0.00000000000E+00 0. -1.
          1   -1    0    0  501    0 -0.00000000000E+00 -0.00000000000E+00 -0.25402858630E+04  0.25402858630E+04  0.00000000000E+00 0. -1.
         25    2    1    2    0    0  0.96610647258E+02 -0.88461363595E+02  0.25729487646E+03  0.31461832818E+03  0.12500003584E+03 0.  0.
          2    1    1    2  501    0 -0.64397836742E+02  0.89550050201E+02 -0.25101784539E+04  0.25126006773E+04  0.00000000000E+00 0. -1.
          1    1    1    2  502    0 -0.32212810515E+02 -0.10886866064E+01  0.11069442661E+04  0.11074134091E+04  0.00000000000E+00 0. -1.
         22    1    3    3    0    0  0.45843006052E+02 -0.84880331255E+02  0.24346249155E+03  0.26187828591E+03  0.00000000000E+00 0. -1.
         22    1    3    3    0    0  0.50767641205E+02 -0.35810323399E+01  0.13832384906E+02  0.52740042267E+02  0.00000000000E+00 0. -1.
</event>
<event>
 7    1  0.6888431E-006  0.8879442E+02  0.7818608E-02  0.1365228E+00
          2   -1    0    0  502    0  0.00000000000E+00  0.00000000000E+00  0.10732869670E+04  0.10732869670E+04  0.00000000000E+00 0. -1.
          1   -1    0    0  501    0 -0.00000000000E+00 -0.00000000000E+00 -0.22771958003E+03  0.22771958003E+03  0.00000000000E+00 0. -1.
         25    2    1    2    0    0 -0.56370925094E+02  0.62809143901E+01 -0.36784550193E+02  0.14211840722E+03  0.12500962945E+03 0.  0.
          2    1    1    2  501    0  0.89551824378E+02 -0.47432614764E+02 -0.11890887104E+03  0.15623284483E+03  0.00000000000E+00 0. -1.
          1    1    1    2  502    0 -0.33180899284E+02  0.41151700374E+02  0.10012608082E+04  0.10026552950E+04  0.00000000000E+00 0. -1.
         22    1    3    3    0    0 -0.35347238998E+02 -0.53098607932E+02  0.87601196832E+01  0.64386560445E+02  0.00000000000E+00 0.  1.
         22    1    3    3    0    0 -0.21023686095E+02  0.59379522322E+02 -0.45544669876E+02  0.77731846770E+02  0.00000000000E+00 0.  1.
</event>
<event>
 7    1  0.6888431E-006  0.1110268E+03  0.7818608E-02  0.1337955E+00
          2   -1    0    0  502    0  0.00000000000E+00  0.00000000000E+00  0.55825500317E+03  0.55825500317E+03  0.00000000000E+00 0. -1.
          1   -1    0    0  501    0 -0.00000000000E+00 -0.00000000000E+00 -0.28050920396E+03  0.28050920396E+03  0.00000000000E+00 0. -1.
         25    2    1    2    0    0 -0.88072979465E+02  0.12619483986E+03  0.12888580419E+02  0.19867691547E+03  0.12499765563E+03 0.  0.
          2    1    1    2  501    0  0.86955558423E+01 -0.52609870201E+02 -0.17715981209E+03  0.18501083794E+03  0.00000000000E+00 0. -1.
          1    1    1    2  502    0  0.79377423623E+02 -0.73584969663E+02  0.44201703089E+03  0.45507645373E+03  0.00000000000E+00 0. -1.
         22    1    3    3    0    0 -0.91718426067E+02  0.70660199202E+02 -0.39411865298E+02  0.12230465469E+03  0.00000000000E+00 0. -1.
         22    1    3    3    0    0  0.36454466020E+01  0.55534640663E+02  0.52300445717E+02  0.76372260780E+02  0.00000000000E+00 0. -1.
</event>
<event>
 7    1  0.6888431E-006  0.3892072E+02  0.7818608E-02  0.1535745E+00
          2   -1    0    0  502    0  0.00000000000E+00  0.00000000000E+00  0.26482784462E+03  0.26482784462E+03  0.00000000000E+00 0. -1.
          1   -1    0    0  501    0 -0.00000000000E+00 -0.00000000000E+00 -0.39972351176E+03  0.39972351176E+03  0.00000000000E+00 0. -1.
         25    2    1    2    0    0  0.23852341790E+02 -0.48847951860E+02 -0.23433598558E+03  0.27108751630E+03  0.12498012142E+03 0.  0.
          2    1    1    2  501    0 -0.34524617960E+02  0.16342104874E+02 -0.14331067806E+03  0.14831373531E+03  0.00000000000E+00 0. -1.
          1    1    1    2  502    0  0.10672276170E+02  0.32505846986E+02  0.24275099649E+03  0.24515010476E+03  0.00000000000E+00 0. -1.
         22    1    3    3    0    0 -0.16320635093E+02 -0.61225533150E+02 -0.46473462318E+02  0.78579334046E+02  0.00000000000E+00 0. -1.
         22    1    3    3    0    0  0.40172976883E+02  0.12377581290E+02 -0.18786252326E+03  0.19250818226E+03  0.00000000000E+00 0. -1.
</event>
<event>
 7    1  0.6888431E-006  0.1096866E+03  0.7818608E-02  0.1435879E+00
          2   -1    0    0  502    0  0.00000000000E+00  0.00000000000E+00  0.82506027504E+02  0.82506027504E+02  0.00000000000E+00 0. -1.
          1   -1    0    0  501    0 -0.00000000000E+00 -0.00000000000E+00 -0.11848386145E+04  0.11848386145E+04  0.00000000000E+00 0. -1.
         25    2    1    2    0    0  0.55433125305E+02  0.87812334153E+02 -0.42112768683E+03  0.45139500081E+03  0.12500032292E+03 0.  0.
          2    1    1    2  501    0 -0.78493709357E+02 -0.79655184111E+02 -0.74201989234E+03  0.75039971441E+03  0.00000000000E+00 0. -1.
          1    1    1    2  502    0  0.23060584052E+02 -0.81571500424E+01  0.60814992151E+02  0.65549926803E+02  0.00000000000E+00 0. -1.
         22    1    3    3    0    0  0.60334653662E+02  0.30198026958E+02 -0.76720458770E+02  0.10216760768E+03  0.00000000000E+00 0. -1.
         22    1    3    3    0    0 -0.49015283575E+01  0.57614307196E+02 -0.34440722806E+03  0.34922739313E+03  0.00000000000E+00 0. -1.
</event>
<event>
 7    1  0.6888431E-006  0.1894600E+03  0.7818608E-02  0.1165620E+00
          2   -1    0    0  502    0  0.00000000000E+00  0.00000000000E+00  0.18582628725E+04  0.18582628725E+04  0.00000000000E+00 0. -1.
          1   -1    0    0  501    0 -0.00000000000E+00 -0.00000000000E+00 -0.16522704958E+04  0.16522704958E+04  0.00000000000E+00 0. -1.
         25    2    1    2    0    0  0.24560870121E+03  0.23537040966E+03 -0.42549699966E+03  0.55892388428E+03  0.12500139138E+03 0.  0.
          2    1    1    2  501    0 -0.73585879849E+02 -0.15917456715E+03 -0.11484465397E+04  0.11617576680E+04  0.00000000000E+00 0. -1.
          1    1    1    2  502    0 -0.17202282136E+03 -0.76195842507E+02  0.17799359162E+04  0.17898518160E+04  0.00000000000E+00 0. -1.
         22    1    3    3    0    0  0.19512793815E+03  0.13256027804E+03 -0.21446485735E+03  0.31881391845E+03  0.00000000000E+00 0.  1.
         22    1    3    3    0    0  0.50480763059E+02  0.10281013161E+03 -0.21103214231E+03  0.24010996583E+03  0.00000000000E+00 0.  1.
</event>
<event>
 7    1  0.6888431E-006  0.9745215E+02  0.7818608E-02  0.1352371E+00
          2   -1    0    0  502    0  0.00000000000E+00  0.00000000000E+00  0.42848331556E+03  0.42848331556E+03  0.00000000000E+00 0. -1.
          1   -1    0    0  501    0 -0.00000000000E+00 -0.00000000000E+00 -0.46721090605E+03  0.46721090605E+03  0.00000000000E+00 0. -1.
         25    2    1    2    0    0 -0.13067341485E+02 -0.48915721316E+02  0.21123486885E+03  0.25061692093E+03  0.12500067213E+03 0.  0.
          2    1    1    2  501    0  0.55894379379E+02  0.81265411158E+02 -0.43829007685E+03  0.44925097680E+03  0.00000000000E+00 0. -1.
          1    1    1    2  502    0 -0.42827037894E+02 -0.32349689842E+02  0.18832761751E+03  0.19582632388E+03  0.00000000000E+00 0. -1.
         22    1    3    3    0    0  0.23828749175E+02  0.35486557580E+02  0.68084502373E+02  0.80390326031E+02  0.00000000000E+00 0. -1.
         22    1    3    3    0    0 -0.36896090660E+02 -0.84402278895E+02  0.14315036648E+03  0.17022659490E+03  0.00000000000E+00 0. -1.
</event>
<event>
 7    1  0.6888431E-006  0.1347527E+03  0.7818608E-02  0.1390388E+00
          2   -1    0    0  502    0  0.00000000000E+00  0.00000000000E+00  0.47169945379E+03  0.47169945379E+03  0.00000000000E+00 0. -1.
          1   -1    0    0  501    0 -0.00000000000E+00 -0.00000000000E+00 -0.13633597538E+03  0.13633597538E+03  0.00000000000E+00 0. -1.
         25    2    1    2    0    0 -0.12921848953E+03 -0.32732743472E+02  0.18927716850E+03  0.26309709996E+03  0.12500154784E+03 0.  0.
          2    1    1    2  501    0  0.13546369310E+03  0.50771539796E+01 -0.51735106646E+02  0.14509552336E+03  0.00000000000E+00 0. -1.
          1    1    1    2  502    0 -0.62452035737E+01  0.27655589493E+02  0.19782141656E+03  0.19984280585E+03  0.00000000000E+00 0. -1.
         22    1    3    3    0    0 -0.12024815317E+03 -0.71500834461E+02  0.16563644202E+03  0.21681194293E+03  0.00000000000E+00 0.  1.
         22    1    3    3    0    0 -0.89703363521E+01  0.38768090988E+02  0.23640726480E+02  0.46285157034E+02  0.00000000000E+00 0.  1.
</event>
<event>
 7    1  0.6888431E-006  0.7554531E+02  0.7818608E-02  0.1439763E+00
          2   -1    0    0  502    0  0.00000000000E+00  0.00000000000E+00  0.12958611048E+04  0.12958611048E+04  0.00000000000E+00 0. -1.
          1   -1    0    0  501    0 -0.00000000000E+00 -0.00000000000E+00 -0.73195942695E+03  0.73195942695E+03  0.00000000000E+00 0. -1.
         25    2    1    2    0    0 -0.79058003264E+02 -0.22816695988E+02  0.38919191546E+02  0.15462593106E+03  0.12499482225E+03 0.  0.
          2    1    1    2  501    0  0.57132510105E+02  0.49448727182E+02 -0.67173937385E+03  0.67597565542E+03  0.00000000000E+00 0. -1.
          1    1    1    2  502    0  0.21925493159E+02 -0.26632031194E+02  0.11967218602E+04  0.11972189453E+04  0.00000000000E+00 0. -1.
         22    1    3    3    0    0 -0.96097212056E+02  0.17216854403E+02  0.50059530960E+02  0.10971349452E+03  0.00000000000E+00 0. -1.
         22    1    3    3    0    0  0.17039208792E+02 -0.40033550391E+02 -0.11140339414E+02  0.44912436534E+02  0.00000000000E+00 0. -1.
</event>
<event>
 7    1  0.6888431E-006  0.1505200E+03  0.7818608E-02  0.1220284E+00
          2   -1    0    0  502    0  0.00000000000E+00  0.00000000000E+00  0.39182506527E+03  0.39182506527E+03  0.00000000000E+00 0. -1.
          1   -1    0    0  501    0 -0.00000000000E+00 -0.00000000000E+00 -0.34197834557E+03  0.34197834557E+03  0.00000000000E+00 0. -1.
         25    2    1    2    0    0  0.12756569574E+03  0.11553027477E+03  0.17215690580E+03  0.27364927424E+03  0.12500269582E+03 0.  0.
          2    1    1    2  501    0 -0.15255334429E+03  0.28595356777E+01 -0.24449314446E+03  0.28819715038E+03  0.00000000000E+00 0. -1.
          1    1    1    2  502    0  0.24987648555E+02 -0.11838981044E+03  0.12218295835E+03  0.17195698622E+03  0.00000000000E+00 0. -1.
         22    1    3    3    0    0  0.12616623615E+03  0.60591243021E+02  0.67384040585E+02  0.15533778291E+03  0.00000000000E+00 0. -1.
         22    1    3    3    0    0  0.13994595943E+01  0.54939031744E+02  0.10477286521E+03  0.11831149133E+03  0.00000000000E+00 0. -1.
</event>
<event>
 7    1  0.6888431E-006  0.5157674E+02  0.7818608E-02  0.1478345E+00
          2   -1    0    0  502    0  0.00000000000E+00  0.00000000000E+00  0.77971722125E+03  0.77971722125E+03  0.00000000000E+00 0. -1.
          1   -1    0    0  501    0 -0.00000000000E+00 -0.00000000000E+00 -0.20902079195E+03  0.20902079195E+03  0.00000000000E+00 0. -1.
         25    2    1    2    0    0  0.88629921133E+02 -0.34524214483E+01  0.12037783732E+03  0.19489417976E+03  0.12500294177E+03 0.  0.
          2    1    1    2  501    0 -0.38092862713E+02  0.22918039450E+01 -0.16859969514E+03  0.17286461684E+03  0.00000000000E+00 0. -1.
          1    1    1    2  502    0 -0.50537058421E+02  0.11606175033E+01  0.61891828712E+03  0.62097921659E+03  0.00000000000E+00 0. -1.
         22    1    3    3    0    0  0.24823323945E+02 -0.43559817551E+02  0.10725576603E+03  0.11839533126E+03  0.00000000000E+00 0. -1.
         22    1    3    3    0    0  0.63806597188E+02  0.40107396102E+02  0.13122071291E+02  0.76498848500E+02  0.00000000000E+00 0. -1.
</event>
<event>
 7    1  0.6888431E-006  0.4262432E+02  0.7818608E-02  0.1546400E+00
          2   -1    0    0  502    0  0.00000000000E+00  0.00000000000E+00  0.10882051150E+04  0.10882051150E+04  0.00000000000E+00 0. -1.
          1   -1    0    0  501    0 -0.00000000000E+00 -0.00000000000E+00 -0.57491999957E+03  0.57491999957E+03  0.00000000000E+00 0. -1.
         25    2    1    2    0    0  0.26252694246E+00  0.63328407083E+02  0.16825478491E+03  0.21896596603E+03  0.12500346224E+03 0.  0.
          2    1    1    2  501    0 -0.16599024067E+02 -0.39186325053E+02 -0.54850249592E+03  0.55015096446E+03  0.00000000000E+00 0. -1.
          1    1    1    2  502    0  0.16336497125E+02 -0.24142082030E+02  0.89353282649E+03  0.89400818412E+03  0.00000000000E+00 0. -1.
         22    1    3    3    0    0  0.18157016414E+02  0.98633207732E+02  0.12650020216E+03  0.16143261151E+03  0.00000000000E+00 0.  1.
         22    1    3    3    0    0 -0.17894489472E+02 -0.35304800649E+02  0.41754582744E+02  0.57533354521E+02  0.00000000000E+00 0.  1.
</event>
<event>
 7    1  0.6888431E-006  0.1146950E+03  0.7818608E-02  0.1265830E+00
          2   -1    0    0  502    0  0.00000000000E+00  0.00000000000E+00  0.28441657330E+03  0.28441657330E+03  0.00000000000E+00 0. -1.
          1   -1    0    0  501    0 -0.00000000000E+00 -0.00000000000E+00 -0.93239016759E+03  0.93239016759E+03  0.00000000000E+00 0. -1.
         25    2    1    2    0    0 -0.60668522534E+02 -0.99357878209E+02 -0.10264839115E+03  0.19928657104E+03  0.12500315038E+03 0.  0.
          2    1    1    2  501    0 -0.56586911698E+02  0.82703384727E+02 -0.76308573122E+03  0.76963742217E+03  0.00000000000E+00 0. -1.
          1    1    1    2  502    0  0.11725543423E+03  0.16654493483E+02  0.21776052807E+03  0.24788274768E+03  0.00000000000E+00 0. -1.
         22    1    3    3    0    0  0.17796212466E+02 -0.55538795681E+02  0.56056724763E+01  0.58589133530E+02  0.00000000000E+00 0.  1.
         22    1    3    3    0    0 -0.78464735000E+02 -0.43819082528E+02 -0.10825406362E+03  0.14069743751E+03  0.00000000000E+00 0.  1.
</event>
<event>
 7    1  0.6888431E-006  0.1154753E+03  0.7818608E-02  0.1327456E+00
          2   -1    0    0  502    0  0.00000000000E+00  0.00000000000E+00  0.28458051290E+04  0.28458051290E+04  0.00000000000E+00 0. -1.
          1   -1    0    0  501    0 -0.00000000000E+00 -0.00000000000E+00 -0.36157114973E+03  0.36157114973E+03  0.00000000000E+00 0. -1.
         25    2    1    2    0    0  0.33060401272E+02 -0.12978047877E+03  0.20771680910E+04  0.20852314085E+04  0.12500714370E+03 0.  0.
          2    1    1    2  501    0 -0.49174308124E+02  0.27226864398E+02 -0.35177430700E+03  0.35623668787E+03  0.00000000000E+00 0. -1.
          1    1    1    2  502    0  0.16113906852E+02  0.10255361437E+03  0.75884019525E+03  0.76590818232E+03  0.00000000000E+00 0. -1.
         22    1    3    3    0    0 -0.17858362661E+02 -0.13105551796E+03  0.14997655199E+04  0.15055866247E+04  0.00000000000E+00 0. -1.
         22    1    3    3    0    0  0.50918763932E+02  0.12750391931E+01  0.57740257110E+03  0.57964478377E+03  0.00000000000E+00 0. -1.
</event>
<event>
 7    1  0.6888431E-006  0.1393944E+03  0.7818608E-02  0.1218845E+00
          2   -1    0    0  502    0  0.00000000000E+00  0.00000000000E+00  0.74454425594E+03  0.74454425594E+03  0.00000000000E+00 0. -1.
          1   -1    0    0  501    0 -0.00000000000E+00 -0.00000000000E+00 -0.13989868654E+03  0.13989868654E+03  0.00000000000E+00 0. -1.
         25    2    1    2    0    0  0.18220636669E+02 -0.82575612022E+01  0.21827282515E+02  0.12845868693E+03  0.12500010027E+03 0.  0.
          2    1    1    2  501    0  0.13049157344E+03  0.49017692814E+02 -0.13505378496E+02  0.14004706422E+03  0.00000000000E+00 0. -1.
          1    1    1    2  502    0 -0.14871221011E+03 -0.40760131612E+02  0.59632366539E+03  0.61593719133E+03  0.00000000000E+00 0. -1.
         22    1    3    3    0    0 -0.51594927852E+02  0.13684830780E+02  0.78434752746E+01  0.53952120235E+02  0.00000000000E+00 0. -1.
         22    1    3    3    0    0  0.69815564521E+02 -0.21942391982E+02  0.13983807240E+02  0.74506566692E+02  0.00000000000E+00 0. -1.
</event>
<event>
 7    1  0.6888431E-006  0.9891369E+02  0.7818608E-02  0.1297497E+00
          2   -1    0    0  502    0  0.00000000000E+00  0.00000000000E+00  0.12992442532E+04  0.12992442532E+04  0.00000000000E+00 0. -1.
          1   -1    0    0  501    0 -0.00000000000E+00 -0.00000000000E+00 -0.59851680616E+02  0.59851680616E+02  0.00000000000E+00 0. -1.
         25    2    1    2    0    0  0.87862613733E+02 -0.95241393409E+02  0.41366691356E+03  0.45115382302E+03  0.12501477809E+03 0.  0.
          2    1    1    2  501    0 -0.85973951025E+02 -0.31624525274E+01  0.10355306176E+02  0.86653065306E+02  0.00000000000E+00 0. -1.
          1    1    1    2  502    0 -0.18886627084E+01  0.98403845937E+02  0.81537035289E+03  0.82128904554E+03  0.00000000000E+00 0. -1.
         22    1    3    3    0    0  0.82708745696E+02 -0.75061123615E+02  0.15181396031E+03  0.18847383755E+03  0.00000000000E+00 0. -1.
         22    1    3    3    0    0  0.51538680369E+01 -0.20180269794E+02  0.26185295325E+03  0.26267998547E+03  0.00000000000E+00 0. -1.
</event>
<event>
 7    1  0.6888431E-006  0.1653454E+03  0.7818608E-02  0.1328111E+00
          2   -1    0    0  502    0  0.00000000000E+00  0.00000000000E+00  0.23293715105E+03  0.23293715105E+03  0.00000000000E+00 0. -1.
          1   -1    0    0  501    0 -0.00000000000E+00 -0.00000000000E+00 -0.73135463850E+03  0.73135463850E+03  0.00000000000E+00 0. -1.
         25    2    1    2    0    0  0.18084494954E+03 -0.70271786096E+02 -0.24453314600E+03  0.33625036830E+03  0.12499932398E+03 0.  0.
          2    1    1    2  501    0 -0.38404650531E+02 -0.69531534159E+01 -0.40476454616E+03  0.40664185883E+03  0.00000000000E+00 0. -1.
          1    1    1    2  502    0 -0.14244029901E+03  0.77224939512E+02  0.15088020471E+03  0.22139956242E+03  0.00000000000E+00 0. -1.
         22    1    3    3    0    0  0.96145441001E+02 -0.62687653746E+02 -0.21934524451E+03  0.24756014228E+03  0.00000000000E+00 0. -1.
         22    1    3    3    0    0  0.84699508538E+02 -0.75841323509E+01 -0.25187901491E+02  0.88690226020E+02  0.00000000000E+00 0. -1.
</event>
<event>
 7    1  0.6888431E-006  0.7436475E+02  0.7818608E-02  0.1356441E+00
          2   -1    0    0  502    0  0.00000000000E+00  0.00000000000E+00  0.55069115508E+03  0.55069115508E+03  0.00000000000E+00 0. -1.
          1   -1    0    0  501    0 -0.00000000000E+00 -0.00000000000E+00 -0.24865942514E+03  0.24865942514E+03  0.00000000000E+00 0. -1.
         25    2    1    2    0    0  0.88014645976E+02 -0.81025185624E+02  0.28205724512E+02  0.17530582662E+03  0.12499964536E+03 0.  0.
          2    1    1    2  501    0 -0.21149736228E+02  0.68926917654E+02 -0.16496032681E+03  0.18002816652E+03  0.00000000000E+00 0. -1.
          1    1    1    2  502    0 -0.66864909747E+02  0.12098267970E+02  0.43878633223E+03  0.44401658707E+03  0.00000000000E+00 0. -1.
         22    1    3    3    0    0  0.51397063467E+02 -0.95144582249E+02 -0.23231332839E+02  0.11060671087E+03  0.00000000000E+00 0.  1.
         22    1    3    3    0    0  0.36617582508E+02  0.14119396625E+02  0.51437057351E+02  0.64699115749E+02  0.00000000000E+00 0.  1.
</event>
<event>
 7    1  0.6888431E-006  0.6195549E+02  0.7818608E-02  0.1459579E+00
          2   -1    0    0  502    0  0.00000000000E+00  0.00000000000E+00  0.50627193869E+03  0.50627193869E+03  0.00000000000E+00 0. -1.
          1   -1    0    0  501    0 -0.00000000000E+00 -0.00000000000E+00 -0.31318504042E+03  0.31318504042E+03  0.00000000000E+00 0. -1.
         25    2    1    2    0    0 -0.35142634473E+02 -0.90115522085E+02  0.12279384387E+02  0.15851729329E+03  0.12498454669E+03 0.  0.
          2    1    1    2  501    0  0.17670290203E+02  0.31762096923E+02 -0.23646627483E+03  0.23924332611E+03  0.00000000000E+00 0. -1.
          1    1    1    2  502    0  0.17472344271E+02  0.58353425162E+02  0.41727378872E+03  0.42169635971E+03  0.00000000000E+00 0. -1.
         22    1    3    3    0    0 -0.12492419953E+01  0.30925827627E+02  0.10894707428E+02  0.32812529161E+02  0.00000000000E+00 0.  1.
         22    1    3    3    0    0 -0.33893392478E+02 -0.12104134971E+03  0.13846769589E+01  0.12570476413E+03  0.00000000000E+00 0.  1.
</event>
<event>
 7    1  0.6888431E-006  0.9928281E+02  0.7818608E-02  0.1353732E+00
          2   -1    0    0  502    0  0.00000000000E+00  0.00000000000E+00  0.39323363692E+03  0.39323363692E+03  0.00000000000E+00 0. -1.
          1   -1    0    0  501    0 -0.00000000000E+00 -0.00000000000E+00 -0.17203349543E+04  0.17203349543E+04  0.00000000000E+00 0. -1.
         25    2    1    2    0    0  0.89043804072E+02  0.10407843225E+02 -0.69228857971E+03  0.70917252345E+03  0.12500027268E+03 0.  0.
          2    1    1    2  501    0 -0.10732524566E+02  0.50958737827E+02 -0.10124929255E+04  0.10138312997E+04  0.00000000000E+00 0. -1.
          1    1    1    2  502    0 -0.78311279506E+02 -0.61366581052E+02  0.37768018785E+03  0.39056476807E+03  0.00000000000E+00 0. -1.
         22    1    3    3    0    0  0.46325211617E+02 -0.35548704597E+02 -0.11998417156E+03  0.13343888884E+03  0.00000000000E+00 0.  1.
         22    1    3    3    0    0  0.42718592455E+02  0.45956547822E+02 -0.57230440815E+03  0.57573363461E+03  0.00000000000E+00 0.  1.
</event>
<event>
 7    1  0.6888431E-006  0.5830239E+02  0.7818608E-02  0.1428042E+00
          2   -1    0    0  502    0  0.00000000000E+00  0.00000000000E+00  0.19872291824E+04  0.19872291824E+04  0.00000000000E+00 0. -1.
          1   -1    0    0  501    0 -0.00000000000E+00 -0.00000000000E+00 -0.72559129219E+03  0.72559129219E+03  0.00000000000E+00 0. -1.
         25    2    1    2    0    0 -0.42532098321E+02  0.11840966955E+02  0.33336724202E+03  0.35875825255E+03  0.12499831131E+03 0.  0.
          2    1    1    2  501    0 -0.44325278102E+01 -0.48625785878E+02 -0.71151669262E+03  0.71319009964E+03  0.00000000000E+00 0. -1.
          1    1    1    2  502    0  0.46964626132E+02  0.36784818923E+02  0.16397873408E+04  0.16408721224E+04  0.00000000000E+00 0. -1.
         22    1    3    3    0    0  0.16279038950E+02 -0.45342833729E+02  0.92293114928E+02  0.10411051216E+03  0.00000000000E+00 0.  1.
         22    1    3    3    0    0 -0.58811137271E+02  0.57183800685E+02  0.24107412710E+03  0.25464774038E+03  0.00000000000E+00 0.  1.
</event>
<event>
 7    1  0.6888431E-006  0.7805757E+02  0.7818608E-02  0.1394972E+00
          2   -1    0    0  502    0  0.00000000000E+00  0.00000000000E+00  0.21706954897E+04  0.21706954897E+04  0.00000000000E+00 0. -1.
          1   -1    0    0  501    0 -0.00000000000E+00 -0.00000000000E+00 -0.12322468865E+02  0.12322468865E+02  0.00000000000E+00 0. -1.
         25    2    1    2    0    0  0.56684037156E+02 -0.31807713972E+02  0.16448506410E+04  0.16508736097E+04  0.12500093275E+03 0.  0.
          2    1    1    2  501    0 -0.34652033163E+02  0.73529474845E+02  0.21379530691E+03  0.22872643120E+03  0.00000000000E+00 0. -1.
          1    1    1    2  502    0 -0.22032003993E+02 -0.41721760873E+02  0.29972707294E+03  0.30341791770E+03  0.00000000000E+00 0. -1.
         22    1    3    3    0    0  0.75338523942E+02  0.17816462714E+02  0.12616748857E+04  0.12640477984E+04  0.00000000000E+00 0. -1.
         22    1    3    3    0    0 -0.18654486786E+02 -0.49624176686E+02  0.38317575535E+03  0.38682581128E+03  0.00000000000E+00 0. -1.
</event>
<event>
 7    1  0.6888431E-006  0.1294081E+03  0.7818608E-02  0.1328065E+00
          2   -1    0    0  502    0  0.00000000000E+00  0.00000000000E+00  0.18205412962E+04  0.18205412962E+04  0.00000000000E+00 0. -1.
          1   -1    0    0  501    0 -0.00000000000E+00 -0.00000000000E+00 -0.81024895775E+02  0.81024895775E+02  0.00000000000E+00 0. -1.
         25    2    1    2    0    0  0.89845713664E+02 -0.61993156809E+01  0.14234060965E+03  0.20975348453E+03  0.12499996535E+03 0.  0.
          2    1    1    2  501    0  0.41045531460E+02  0.28356438758E+02 -0.30670703433E+02  0.58562063838E+02  0.00000000000E+00 0. -1.
          1    1    1    2  502    0 -0.13089124512E+03 -0.22157123077E+02  0.16278464942E+04  0.16332506436E+04  0.00000000000E+00 0. -1.
         22    1    3    3    0    0  0.11907052561E+03  0.28367908579E+00  0.89256676316E+02  0.14881070126E+03  0.00000000000E+00 0.  1.
         22    1    3    3    0    0 -0.29224811942E+02 -0.64829947667E+01  0.53083933338E+02  0.60942783271E+02  0.00000000000E+00 0.  1.
</event>
<event>
 7    1  0.6888431E-006  0.5019265E+02  0.7818608E-02  0.1486123E+00
          2   -1    0    0  502    0  0.00000000000E+00  0.00000000000E+00  0.13742788674E+03  0.13742788674E+03  0.00000000000E+00 0. -1.
          1   -1    0    0  501    0 -0.00000000000E+00 -0.00000000000E+00 -0.31489122580E+03  0.31489122580E+03  0.00000000000E+00 0. -1.
         25    2    1    2    0    0  0.15842463667E+01  0.75654487687E+02 -0.16818784592E+03  0.22279712811E+03  0.12500118972E+03 0.  0.
          2    1    1    2  501    0 -0.21571115758E+02 -0.30213802427E+02 -0.11061411796E+03  0.11667763275E+03  0.00000000000E+00 0. -1.
          1    1    1    2  502    0  0.19986869391E+02 -0.45440685260E+02  0.10133862483E+03  0.11284435169E+03  0.00000000000E+00 0. -1.
         22    1    3    3    0    0 -0.34094487871E+02 -0.22715441030E+02 -0.39190722225E+02  0.56695132709E+02  0.00000000000E+00 0.  1.
         22    1    3    3    0    0  0.35678734238E+02  0.98369928717E+02 -0.12899712370E+03  0.16610199540E+03  0.00000000000E+00 0.  1.
</event>
<event>
 7    1  0.6888431E-006  0.8050603E+02  0.7818608E-02  0.1394394E+00
          2   -1    0    0  502    0  0.00000000000E+00  0.00000000000E+00  0.10666885893E+03  0.10666885893E+03  0.00000000000E+00 0. -1.
          1   -1    0    0  501    0 -0.00000000000E+00 -0.00000000000E+00 -0.75330388620E+03  0.75330388620E+03  0.00000000000E+00 0. -1.
         25    2    1    2    0    0  0.62231145231E+02  0.49004104738E+01 -0.11466407661E+02  0.14019529995E+03  0.12500605651E+03 0.  0.
          2    1    1    2  501    0 -0.71023436345E+02  0.40208891458E+02 -0.66169765442E+03  0.66671198379E+03  0.00000000000E+00 0. -1.
          1    1    1    2  502    0  0.87922911142E+01 -0.45109301932E+02  0.26529034815E+02  0.53065461385E+02  0.00000000000E+00 0. -1.
         22    1    3    3    0    0  0.10805292161E+02 -0.49515045555E+02  0.25457125034E+02  0.56714718460E+02  0.00000000000E+00 0. -1.
         22    1    3    3    0    0  0.51425853070E+02  0.54415456028E+02 -0.36923532695E+02  0.83480581487E+02  0.00000000000E+00 0. -1.
</event>
<event>
 7    1  0.6888431E-006  0.2589868E+02  0.7818608E-02  0.1683907E+00
          2   -1    0    0  502    0  0.00000000000E+00  0.00000000000E+00  0.54023201105E+02  0.54023201105E+02  0.00000000000E+00 0. -1.
          1   -1    0    0  501    0 -0.00000000000E+00 -0.00000000000E+00 -0.33290674563E+03  0.33290674563E+03  0.00000000000E+00 0. -1.
         25    2    1    2    0    0  0.50953604144E+01 -0.42736532693E+02 -0.18275183504E+03  0.22555666651E+03  0.12500081067E+03 0.  0.
          2    1    1    2  501    0 -0.11246049099E+02  0.22364621571E+02 -0.12389160013E+03  0.12639532627E+03  0.00000000000E+00 0. -1.
          1    1    1    2  502    0  0.61506886845E+01  0.20371911121E+02  0.27759890655E+02  0.34977953960E+02  0.00000000000E+00 0. -1.
         22    1    3    3    0    0  0.23134851787E+02  0.40647856213E+02 -0.69335447829E+02  0.83635362781E+02  0.00000000000E+00 0.  1.
         22    1    3    3    0    0 -0.18039491373E+02 -0.83384388906E+02 -0.11341638721E+03  0.14192130372E+03  0.00000000000E+00 0.  1.
</event>
<event>
 7    1  0.6888431E-006  0.8496345E+02  0.7818608E-02  0.1343971E+00
          2   -1    0    0  502    0  0.00000000000E+00  0.00000000000E+00  0.67570898939E+03  0.67570898939E+03  0.00000000000E+00 0. -1.
          1   -1    0    0  501    0 -0.00000000000E+00 -0.00000000000E+00 -0.15222106257E+03  0.15222106257E+03  0.00000000000E+00 0. -1.
         25    2    1    2    0    0  0.89023106795E+02  0.11573426019E+03  0.14402821385E+03  0.24018394698E+03  0.12499867790E+03 0.  0.
          2    1    1    2  501    0 -0.51009925716E+02 -0.61599827761E+02 -0.86097508119E+02  0.11751311504E+03  0.00000000000E+00 0. -1.
          1    1    1    2  502    0 -0.38013181079E+02 -0.54134432430E+02  0.46555722109E+03  0.47023298993E+03  0.00000000000E+00 0. -1.
         22    1    3    3    0    0  0.11378232830E+03  0.12177966076E+03  0.12690639016E+03  0.20948015627E+03  0.00000000000E+00 0.  1.
         22    1    3    3    0    0 -0.24759221503E+02 -0.60454005704E+01  0.17121823694E+02  0.30703790712E+02  0.00000000000E+00 0.  1.
</event>
<event>
 7    1  0.6888431E-006  0.5583056E+02  0.7818608E-02  0.1501959E+00
          2   -1    0    0  502    0  0.00000000000E+00  0.00000000000E+00  0.28655007049E+03  0.28655007049E+03  0.00000000000E+00 0. -1.
          1   -1    0    0  501    0 -0.00000000000E+00 -0.00000000000E+00 -0.43575800562E+03  0.43575800562E+03  0.00000000000E+00 0. -1.
         25    2    1    2    0    0 -0.25706346557E+02  0.26008520661E+02  0.93666468311E+02  0.16042125385E+03  0.12499724797E+03 0.  0.
          2    1    1    2  501    0  0.44367388338E+01  0.29576361071E+02 -0.39624578010E+03  0.39737282750E+03  0.00000000000E+00 0. -1.
          1    1    1    2  502    0  0.21269607724E+02 -0.55584881732E+02  0.15337137667E+03  0.16451399476E+03  0.00000000000E+00 0. -1.
         22    1    3    3    0    0  0.44588270399E+02  0.26238334143E+02  0.12843866042E+02  0.53305993384E+02  0.00000000000E+00 0. -1.
         22    1    3    3    0    0 -0.70294616957E+02 -0.22981348134E+00  0.80822602269E+02  0.10711526047E+03  0.00000000000E+00 0. -1.
</event>
<event>
 7    1  0.6888431E-006  0.7035723E+02  0.7818608E-02  0.1419661E+00
          2   -1    0    0  502    0  0.00000000000E+00  0.00000000000E+00  0.11979511844E+03  0.11979511844E+03  0.00000000000E+00 0. -1.
          1   -1    0    0  501    0 -0.00000000000E+00 -0.00000000000E+00 -0.14086347576E+04  0.14086347576E+04  0.00000000000E+00 0. -1.
         25    2    1    2    0    0  0.40023099268E+02 -0.68639391099E+02 -0.39067187259E+03  0.41780754859E+03  0.12500168454E+03 0.  0.
          2    1    1    2  501    0 -0.43104674911E+02 -0.17422304707E+01 -0.99219427484E+03  0.99313167676E+03  0.00000000000E+00 0. -1.
          1    1    1    2  502    0  0.30815756427E+01  0.70381621570E+02  0.94026508224E+02  0.11749065074E+03  0.00000000000E+00 0. -1.
         22    1    3    3    0    0  0.29296527024E+02 -0.97030052045E+02 -0.19472603712E+03  0.21952527651E+03  0.00000000000E+00 0. -1.
         22    1    3    3    0    0  0.10726572244E+02  0.28390660946E+02 -0.19594583547E+03  0.19828227208E+03  0.00000000000E+00 0. -1.
</event>
<event>
 7    1  0.6888431E-006  0.1651945E+03  0.7818608E-02  0.1223381E+00
          2   -1    0    0  502    0  0.00000000000E+00  0.00000000000E+00  0.20129873106E+04  0.20129873106E+04  0.00000000000E+00 0. -1.
          1   -1    0    0  501    0 -0.00000000000E+00 -0.00000000000E+00 -0.30031701224E+03  0.30031701224E+03  0.00000000000E+00 0. -1.
         25    2    1    2    0    0  0.97203365248E+02 -0.25709731691E+02  0.20979177515E+03  0.26409694518E+03  0.12500049205E+03 0.  0.
          2    1    1    2  501    0 -0.16539306659E+03 -0.56401428961E+02 -0.24342083705E+03  0.29964928095E+03  0.00000000000E+00 0. -1.
          1    1    1    2  502    0  0.68189701346E+02  0.82111160653E+02  0.17462993602E+04  0.17495580967E+04  0.00000000000E+00 0. -1.
         22    1    3    3    0    0  0.11632493853E+03  0.10104598384E+02  0.13116567070E+03  0.17560759495E+03  0.00000000000E+00 0.  1.
         22    1    3    3    0    0 -0.19121573285E+02 -0.35814330075E+02  0.78626104441E+02  0.88489350224E+02  0.00000000000E+00 0.  1.
</event>
<event>
 7    1  0.6888431E-006  0.5190846E+02  0.7818608E-02  0.1532793E+00
          2   -1    0    0  502    0  0.00000000000E+00  0.00000000000E+00  0.24108887367E+02  0.24108887367E+02  0.00000000000E+00 0. -1.
          1   -1    0    0  501    0 -0.00000000000E+00 -0.00000000000E+00 -0.10620231100E+04  0.10620231100E+04  0.00000000000E+00 0. -1.
         25    2    1    2    0    0  0.28652917494E+02 -0.27352933090E+02 -0.41106961426E+03  0.43147679775E+03  0.12499930637E+03 0.  0.
          2    1    1    2  501    0 -0.17292058413E+02  0.50910987308E+02 -0.62618847482E+03  0.62849260131E+03  0.00000000000E+00 0. -1.
          1    1    1    2  502    0 -0.11360859081E+02 -0.23558054218E+02 -0.65613352775E+00  0.26162598281E+02  0.00000000000E+00 0. -1.
         22    1    3    3    0    0 -0.23532004607E+02  0.28654901660E+02 -0.49249311974E+02  0.61647006090E+02  0.00000000000E+00 0.  1.
         22    1    3    3    0    0  0.52184922101E+02 -0.56007834750E+02 -0.36182030229E+03  0.36982979166E+03  0.00000000000E+00 0.  1.
</event>
<event>
 7    1  0.6888431E-006  0.9699232E+02  0.7818608E-02  0.1303389E+00
          2   -1    0    0  502    0  0.00000000000E+00  0.00000000000E+00  0.76658710886E+03  0.76658710886E+03  0.00000000000E+00 0. -1.
          1   -1    0    0  501    0 -0.00000000000E+00 -0.00000000000E+00 -0.60622988465E+03  0.60622988465E+03  0.00000000000E+00 0. -1.
         25    2    1    2    0    0 -0.42840009413E+02 -0.42395101061E+02 -0.31424004687E+03  0.34351809897E+03  0.12500106504E+03 0.  0.
          2    1    1    2  501    0 -0.52211140372E+02  0.64651383405E+02 -0.26785825437E+03  0.28045293543E+03  0.00000000000E+00 0. -1.
          1    1    1    2  502    0  0.95051149784E+02 -0.22256282344E+02  0.74245552547E+03  0.74884595911E+03  0.00000000000E+00 0. -1.
         22    1    3    3    0    0  0.41820513084E+02 -0.28667015264E+02 -0.87923686515E+02  0.10149545669E+03  0.00000000000E+00 0.  1.
         22    1    3    3    0    0 -0.84660522497E+02 -0.13728085797E+02 -0.22631636036E+03  0.24202264228E+03  0.00000000000E+00 0.  1.
</event>
<event>
 7    1  0.6888431E-006  0.8247385E+02  0.7818608E-02  0.1386704E+00
          2   -1    0    0  502    0  0.00000000000E+00  0.00000000000E+00  0.20842877487E+03  0.20842877487E+03  0.00000000000E+00 0. -1.
          1   -1    0    0  501    0 -0.00000000000E+00 -0.00000000000E+00 -0.28452318128E+03  0.28452318128E+03  0.00000000000E+00 0. -1.
         25    2    1    2    0    0 -0.63644002621E+02 -0.42778733008E+01 -0.98931843511E+02  0.17170387108E+03  0.12500340160E+03 0.  0.
          2    1    1    2  501    0 -0.97300164843E+01  0.46716323042E+02 -0.13439943626E+03  0.14261941146E+03  0.00000000000E+00 0. -1.
          1    1    1    2  502    0  0.73374019106E+02 -0.42438449741E+02  0.15723687336E+03  0.17862867362E+03  0.00000000000E+00 0. -1.
         22    1    3    3    0    0 -0.41175738231E+02 -0.60413165187E+02 -0.27487177229E+02  0.78107213871E+02  0.00000000000E+00 0.  1.
         22    1    3    3    0    0 -0.22468264391E+02  0.56135291886E+02 -0.71444666282E+02  0.93596657205E+02  0.00000000000E+00 0.  1.
</event>
<event>
 7    1  0.6888431E-006  0.4096964E+02  0.7818608E-02  0.1560731E+00
          2   -1    0    0  502    0  0.00000000000E+00  0.00000000000E+00  0.26266235347E+02  0.26266235347E+02  0.00000000000E+00 0. -1.
          1   -1    0    0  501    0 -0.00000000000E+00 -0.00000000000E+00 -0.69713321704E+03  0.69713321704E+03  0.00000000000E+00 0. -1.
         25    2    1    2    0    0  0.16298917475E+01 -0.19135030168E+02 -0.41734679502E+03  0.43608778015E+03  0.12500159500E+03 0.  0.
          2    1    1    2  501    0 -0.15276660357E+02  0.43208302414E+02 -0.25549140436E+03  0.25956924212E+03  0.00000000000E+00 0. -1.
          1    1    1    2  502    0  0.13646768609E+02 -0.24073272246E+02  0.19712176892E+01  0.27742430126E+02  0.00000000000E+00 0. -1.
         22    1    3    3    0    0  0.54713156642E+02  0.19323237604E+02 -0.15025555139E+03  0.16107031925E+03  0.00000000000E+00 0. -1.
         22    1    3    3    0    0 -0.53083264895E+02 -0.38458267772E+02 -0.26709124363E+03  0.27501746089E+03  0.00000000000E+00 0. -1.
</event>
<event>
 7    1  0.6888431E-006  0.7044241E+02  0.7818608E-02  0.1370872E+00
          2   -1    0    0  502    0  0.00000000000E+00  0.00000000000E+00  0.96534745888E+02  0.96534745888E+02  0.00000000000E+00 0. -1.
          1   -1    0    0  501    0 -0.00000000000E+00 -0.00000000000E+00 -0.54398658303E+03  0.54398658303E+03  0.00000000000E+00 0. -1.
         25    2    1    2    0    0 -0.15920068831E+02  0.79635850396E+01  0.14325127879E+02  0.12706917719E+03  0.12499799689E+03 0.  0.
          2    1    1    2  501    0  0.14408266866E+02 -0.71529622665E+02 -0.44035081765E+03  0.44635515868E+03  0.00000000000E+00 0. -1.
          1    1    1    2  502    0  0.15118019656E+01  0.63566037626E+02 -0.21426147368E+02  0.67096993045E+02  0.00000000000E+00 0. -1.
         22    1    3    3    0    0 -0.48233731986E+02 -0.17955085918E+02 -0.35313033101E+02  0.62417051504E+02  0.00000000000E+00 0. -1.
         22    1    3    3    0    0  0.32313663155E+02  0.25918670958E+02  0.49638160980E+02  0.64652125689E+02  0.00000000000E+00 0. -1.
</event>
<event>
 7    1  0.6888431E-006  0.1148446E+03  0.7818608E-02  0.1353024E+00
          2   -1    0    0  502    0  0.00000000000E+00  0.00000000000E+00  0.25349925219E+04  0.25349925219E+04  0.00000000000E+00 0. -1.
          1   -1    0    0  501    0 -0.00000000000E+00 -0.00000000000E+00 -0.35807844224E+02  0.35807844224E+02  0.00000000000E+00 0. -1.
         25    2    1    2    0    0 -0.13882203369E+03  0.30756562197E+02  0.10310571162E+04  0.10483006824E+04  0.12505207224E+03 0.  0.
          2    1    1    2  501    0  0.29650445108E+02 -0.34237004487E+02 -0.47841928881E+01  0.45543494299E+02  0.00000000000E+00 0. -1.
          1    1    1    2  502    0  0.10917158858E+03  0.34804422899E+01  0.14729117544E+04  0.14769561894E+04  0.00000000000E+00 0. -1.
         22    1    3    3    0    0 -0.70715466259E+02 -0.46835723391E+02  0.40483324613E+03  0.41362328189E+03  0.00000000000E+00 0.  1.
         22    1    3    3    0    0 -0.68106567434E+02  0.77592285588E+02  0.62622387005E+03  0.63467740052E+03  0.00000000000E+00 0.  1.
</event>
<event>
 7    1  0.6888431E-006  0.1203075E+03  0.7818608E-02  0.1331246E+00
          2   -1    0    0  502    0  0.00000000000E+00  0.00000000000E+00  0.43285465898E+03  0.43285465898E+03  0.00000000000E+00 0. -1.
          1   -1    0    0  501    0 -0.00000000000E+00 -0.00000000000E+00 -0.11531298488E+04  0.11531298488E+04  0.00000000000E+00 0. -1.
         25    2    1    2    0    0  0.76724392411E+02 -0.34019148335E+02  0.82658325374E+00  0.15056507065E+03  0.12500088966E+03 0.  0.
          2    1    1    2  501    0  0.18589315133E+02 -0.48756599912E+02 -0.10664476776E+04  0.10677234743E+04  0.00000000000E+00 0. -1.
          1    1    1    2  502    0 -0.95313707543E+02  0.82775748247E+02  0.34534590446E+03  0.36769596282E+03  0.00000000000E+00 0. -1.
         22    1    3    3    0    0  0.48055643907E+02  0.21122544419E+02  0.49094958588E+02  0.71873651311E+02  0.00000000000E+00 0.  1.
         22    1    3    3    0    0  0.28668748504E+02 -0.55141692753E+02 -0.48268375334E+02  0.78691419341E+02  0.00000000000E+00 0.  1.
</event>
<event>
 7    1  0.6888431E-006  0.9109732E+02  0.7818608E-02  0.1359051E+00
          2   -1    0    0  502    0  0.00000000000E+00  0.00000000000E+00  0.16622493095E+04  0.16622493095E+04  0.00000000000E+00 0. -1.
          1   -1    0    0  501    0 -0.00000000000E+00 -0.00000000000E+00 -0.21960647207E+03  0.21960647207E+03  0.00000000000E+00 0. -1.
         25    2    1    2    0    0  0.12340100984E+03  0.23427643667E+02  0.15353320397E+03  0.23445551183E+03  0.12498111293E+03 0.  0.
          2    1    1    2  501    0 -0.47762630508E+02  0.25750276941E+02 -0.17361445592E+03  0.18189646764E+03  0.00000000000E+00 0. -1.
          1    1    1    2  502    0 -0.75638379327E+02 -0.49177920608E+02  0.14627240894E+04  0.14655038021E+04  0.00000000000E+00 0. -1.
         22    1    3    3    0    0  0.83780158464E+02  0.26466087033E+02  0.13498546100E+02  0.88891953864E+02  0.00000000000E+00 0.  1.
         22    1    3    3    0    0  0.39620851372E+02 -0.30384433658E+01  0.14003465787E+03  0.14556355796E+03  0.00000000000E+00 0.  1.
</event>
<event>
 7    1  0.6888431E-006  0.3450955E+02  0.7818608E-02  0.1576699E+00
          2   -1    0    0  502    0  0.00000000000E+00  0.00000000000E+00  0.14063844300E+03  0.14063844300E+03  0.00000000000E+00 0. -1.
          1   -1    0    0  501    0 -0.00000000000E+00 -0.00000000000E+00 -0.55226257538E+03  0.55226257538E+03  0.00000000000E+00 0. -1.
         25    2    1    2    0    0  0.54086189242E+02 -0.86148289929E+01  0.31972708593E+02  0.14016347063E+03  0.12499605297E+03 0.  0.
          2    1    1    2  501    0 -0.32371671131E+02 -0.11683313257E+02 -0.49347524529E+03  0.49467387500E+03  0.00000000000E+00 0. -1.
          1    1    1    2  502    0 -0.21714518111E+02  0.20298142250E+02  0.49878404313E+02  0.58063672743E+02  0.00000000000E+00 0. -1.
         22    1    3    3    0    0  0.69505552256E+01 -0.25685344352E+02 -0.42647093154E+02  0.50267501300E+02  0.00000000000E+00 0. -1.
         22    1    3    3    0    0  0.47135634017E+02  0.17070515359E+02  0.74619801747E+02  0.89895969328E+02  0.00000000000E+00 0. -1.
</event>
<event>
 7    1  0.6888431E-006  0.4962714E+02  0.7818608E-02  0.1489596E+00
          2   -1    0    0  502    0  0.00000000000E+00  0.00000000000E+00  0.14945503488E+04  0.14945503488E+04  0.00000000000E+00 0. -1.
          1   -1    0    0  501    0 -0.00000000000E+00 -0.00000000000E+00 -0.53992951702E+02  0.53992951702E+02  0.00000000000E+00 0. -1.
         25    2    1    2    0    0  0.18860841524E+02 -0.59780363588E+02  0.11019445473E+03  0.17803879899E+03  0.12500229149E+03 0.  0.
          2    1    1    2  501    0 -0.39145221218E+02  0.29259350935E+02  0.10315728122E+02  0.49948695759E+02  0.00000000000E+00 0. -1.
          1    1    1    2  502    0  0.20284379694E+02  0.30521012653E+02  0.13200472143E+04  0.13205558058E+04  0.00000000000E+00 0. -1.
         22    1    3    3    0    0 -0.48043678347E+02 -0.14556017175E+02  0.13355339361E+02  0.51946489338E+02  0.00000000000E+00 0.  1.
         22    1    3    3    0    0  0.66904519870E+02 -0.45224346413E+02  0.96839115368E+02  0.12609230965E+03  0.00000000000E+00 0.  1.
</event>
<event>
 7    1  0.6888431E-006  0.6041221E+02  0.7818608E-02  0.1498198E+00
          2   -1    0    0  502    0  0.00000000000E+00  0.00000000000E+00  0.55344384496E+03  0.55344384496E+03  0.00000000000E+00 0. -1.
          1   -1    0    0  501    0 -0.00000000000E+00 -0.00000000000E+00 -0.90417620222E+03  0.90417620222E+03  0.00000000000E+00 0. -1.
         25    2    1    2    0    0  0.28113419825E+02  0.22010933661E+02 -0.10960305006E+03  0.17004261328E+03  0.12500726448E+03 0.  0.
          2    1    1    2  501    0  0.28360365138E+02  0.35702098830E+00 -0.76232583998E+03  0.76285327821E+03  0.00000000000E+00 0. -1.
          1    1    1    2  502    0 -0.56473784964E+02 -0.22367954650E+02  0.52119653278E+03  0.52472415569E+03  0.00000000000E+00 0. -1.
         22    1    3    3    0    0  0.68606047422E+01  0.23717891205E+02  0.24187631080E+02  0.34563676858E+02  0.00000000000E+00 0. -1.
         22    1    3    3    0    0  0.21252815083E+02 -0.17069575441E+01 -0.13379068114E+03  0.13547893642E+03  0.00000000000E+00 0. -1.
</event>
<event>
 7    1  0.6888431E-006  0.3173773E+03  0.7818608E-02  0.1184238E+00
          2   -1    0    0  502    0  0.00000000000E+00  0.00000000000E+00  0.77360840653E+03  0.77360840653E+03  0.00000000000E+00 0. -1.
          1   -1    0    0  501    0 -0.00000000000E+00 -0.00000000000E+00 -0.65237637494E+03  0.65237637494E+03  0.00000000000E+00 0. -1.
         25    2    1    2    0    0  0.27084871758E+03 -0.17044897975E+03  0.59446047480E+02  0.34867052668E+03  0.12500168440E+03 0.  0.
          2    1    1    2  501    0 -0.30512332143E+03  0.92928551937E+02 -0.45387051918E+03  0.55473814113E+03  0.00000000000E+00 0. -1.
          1    1    1    2  502    0  0.34274603850E+02  0.77520427815E+02  0.51565650328E+03  0.52257611367E+03  0.00000000000E+00 0. -1.
         22    1    3    3    0    0  0.12809116791E+03 -0.37923621196E+02  0.75106518609E+02  0.15325318098E+03  0.00000000000E+00 0. -1.
         22    1    3    3    0    0  0.14275754966E+03 -0.13252535856E+03 -0.15660471129E+02  0.19541734571E+03  0.00000000000E+00 0. -1.
</event>
<event>
 7    1  0.6888431E-006  0.6132920E+02  0.7818608E-02  0.1519856E+00
          2   -1    0    0  502    0  0.00000000000E+00  0.00000000000E+00  0.43041993968E+03  0.43041993968E+03  0.00000000000E+00 0. -1.
          1   -1    0    0  501    0 -0.00000000000E+00 -0.00000000000E+00 -0.14495443072E+04  0.14495443072E+04  0.00000000000E+00 0. -1.
         25    2    1    2    0    0  0.66252273767E+02 -0.60683228762E+00 -0.14537634819E+02  0.14220739527E+03  0.12498747305E+03 0.  0.
          2    1    1    2  501    0 -0.93529740135E+01 -0.22231910335E+02 -0.13685011650E+04  0.13687136935E+04  0.00000000000E+00 0. -1.
          1    1    1    2  502    0 -0.56899299754E+02  0.22838742623E+02  0.36391443236E+03  0.36904315812E+03  0.00000000000E+00 0. -1.
         22    1    3    3    0    0 -0.19117202443E+02 -0.26938436916E+02  0.27959300537E+02  0.43276659982E+02  0.00000000000E+00 0.  1.
         22    1    3    3    0    0  0.85369476210E+02  0.26331604628E+02 -0.42496935357E+02  0.98930735292E+02  0.00000000000E+00 0.  1.
</event>
<event>
 7    1  0.6888431E-006  0.1817233E+03  0.7818608E-02  0.1344083E+00
          2   -1    0    0  502    0  0.00000000000E+00  0.00000000000E+00  0.12256922014E+04  0.12256922014E+04  0.00000000000E+00 0. -1.
          1   -1    0    0  501    0 -0.00000000000E+00 -0.00000000000E+00 -0.15665222058E+03  0.15665222058E+03  0.00000000000E+00 0. -1.
         25    2    1    2    0    0 -0.65022613770E+02  0.13981366801E+03  0.31995144997E+02  0.20105819855E+03  0.12499963135E+03 0.  0.
          2    1    1    2  501    0 -0.54392001209E+01  0.30414757098E+02 -0.60741241070E+02  0.68147932573E+02  0.00000000000E+00 0. -1.
          1    1    1    2  502    0  0.70461813890E+02 -0.17022842511E+03  0.10977860769E+04  0.11131382908E+04  0.00000000000E+00 0. -1.
         22    1    3    3    0    0  0.36754358566E+02  0.39301221679E+02  0.20397241954E+02  0.57545776373E+02  0.00000000000E+00 0. -1.
         22    1    3    3    0    0 -0.10177697234E+03  0.10051244633E+03  0.11597903043E+02  0.14351242218E+03  0.00000000000E+00 0. -1.
</event>
<event>
 7    1  0.6888431E-006  0.5732820E+02  0.7818608E-02  0.1467424E+00
          2   -1    0    0  502    0  0.00000000000E+00  0.00000000000E+00  0.60866176011E+03  0.60866176011E+03  0.00000000000E+00 0. -1.
          1   -1    0    0  501    0 -0.00000000000E+00 -0.00000000000E+00 -0.18445996244E+03  0.18445996244E+03  0.00000000000E+00 0. -1.
         25    2    1    2    0    0  0.54537641523E+02 -0.74844632801E+02  0.86347508013E+02  0.17792562163E+03  0.12500224514E+03 0.  0.
          2    1    1    2  501    0 -0.17578437681E+02  0.32688179358E+02 -0.13449968904E+03  0.13952664582E+03  0.00000000000E+00 0. -1.
          1    1    1    2  502    0 -0.36959203842E+02  0.42156453443E+02  0.47235397871E+03  0.47566945510E+03  0.00000000000E+00 0. -1.
         22    1    3    3    0    0  0.46448272530E+02 -0.10315259924E+03  0.34446788850E+02  0.11825600202E+03  0.00000000000E+00 0. -1.
         22    1    3    3    0    0  0.80893689926E+01  0.28307966441E+02  0.51900719162E+02  0.59669619609E+02  0.00000000000E+00 0. -1.
</event>
<event>
 7    1  0.6888431E-006  0.9790770E+02  0.7818608E-02  0.1300538E+00
          2   -1    0    0  502    0  0.00000000000E+00  0.00000000000E+00  0.42366791952E+03  0.42366791952E+03  0.00000000000E+00 0. -1.
          1   -1    0    0  501    0 -0.00000000000E+00 -0.00000000000E+00 -0.15520032896E+03  0.15520032896E+03  0.00000000000E+00 0. -1.
         25    2    1    2    0    0 -0.75249885288E+01 -0.17633775321E+03 -0.20308593002E+02  0.21723054048E+03  0.12500016043E+03 0.  0.
          2    1    1    2  501    0 -0.33261237055E+01  0.84443949022E+02  0.34914387897E+02  0.91437728032E+02  0.00000000000E+00 0. -1.
          1    1    1    2  502    0  0.10851112234E+02  0.91893804185E+02  0.25386179566E+03  0.27019997997E+03  0.00000000000E+00 0. -1.
         22    1    3    3    0    0  0.40262511772E+02 -0.15907244426E+03 -0.50046111739E+01  0.16416503438E+03  0.00000000000E+00 0.  1.
         22    1    3    3    0    0 -0.47787500301E+02 -0.17265308942E+02 -0.15303981828E+02  0.53065506100E+02  0.00000000000E+00 0.  1.
</event>
<event>
 7    1  0.6888431E-006  0.3427146E+02  0.7818608E-02  0.1561675E+00
          2   -1    0    0  502    0  0.00000000000E+00  0.00000000000E+00  0.81838912090E+03  0.81838912090E+03  0.00000000000E+00 0. -1.
          1   -1    0    0  501    0 -0.00000000000E+00 -0.00000000000E+00 -0.16190461134E+03  0.16190461134E+03  0.00000000000E+00 0. -1.
         25    2    1    2    0    0 -0.24037372379E+01 -0.62695836828E+01  0.67079369423E+02  0.14201931339E+03  0.12499903176E+03 0.  0.
          2    1    1    2  501    0  0.34973845864E+02  0.17394805979E+01 -0.12158354036E+03  0.12652570084E+03  0.00000000000E+00 0. -1.
          1    1    1    2  502    0 -0.32570108626E+02  0.45301030849E+01  0.71098868049E+03  0.71174871801E+03  0.00000000000E+00 0. -1.
         22    1    3    3    0    0  0.25560809212E+02  0.50901321665E+02  0.50812455372E+02  0.76329582311E+02  0.00000000000E+00 0.  1.
         22    1    3    3    0    0 -0.27964546450E+02 -0.57170905348E+02  0.16266914051E+02  0.65689731079E+02  0.00000000000E+00 0.  1.
</event>
<event>
 7    1  0.6888431E-006  0.4885850E+02  0.7818608E-02  0.1451621E+00
          2   -1    0    0  502    0  0.00000000000E+00  0.00000000000E+00  0.11886192198E+04  0.11886192198E+04  0.00000000000E+00 0. -1.
          1   -1    0    0  501    0 -0.00000000000E+00 -0.00000000000E+00 -0.49443507653E+03  0.49443507653E+03  0.00000000000E+00 0. -1.
         25    2    1    2    0    0  0.22541501443E+01 -0.85861657691E+00  0.81783942674E+02  0.14939423603E+03  0.12499682421E+03 0.  0.
          2    1    1    2  501    0 -0.28534499219E+02 -0.40329934165E+02 -0.45874680220E+03  0.46139933872E+03  0.00000000000E+00 0. -1.
          1    1    1    2  502    0  0.26280349075E+02  0.41188550742E+02  0.10711470028E+04  0.10722607216E+04  0.00000000000E+00 0. -1.
         22    1    3    3    0    0  0.47095887636E+02 -0.22221805960E+02  0.84930153869E+02  0.99624105158E+02  0.00000000000E+00 0.  1.
         22    1    3    3    0    0 -0.44841737492E+02  0.21363189384E+02 -0.31462111950E+01  0.49770130870E+02  0.00000000000E+00 0.  1.
</event>
<event>
 7    1  0.6888431E-006  0.5013994E+02  0.7818608E-02  0.1559988E+00
          2   -1    0    0  502    0  0.00000000000E+00  0.00000000000E+00  0.65074413461E+02  0.65074413461E+02  0.00000000000E+00 0. -1.
          1   -1    0    0  501    0 -0.00000000000E+00 -0.00000000000E+00 -0.10870935925E+04  0.10870935925E+04  0.00000000000E+00 0. -1.
         25    2    1    2    0    0 -0.18100218878E+02  0.22994102215E+02 -0.35725491704E+03  0.37962146258E+03  0.12500012977E+03 0.  0.
          2    1    1    2  501    0  0.34095307949E+02 -0.39126726084E+02 -0.71527855242E+03  0.71715883755E+03  0.00000000000E+00 0. -1.
          1    1    1    2  502    0 -0.15995089071E+02  0.16132623869E+02  0.50514290391E+02  0.55387705865E+02  0.00000000000E+00 0. -1.
         22    1    3    3    0    0  0.74888418484E+01 -0.28661970144E+02 -0.28797434458E+03  0.28949406629E+03  0.00000000000E+00 0. -1.
         22    1    3    3    0    0 -0.25589060726E+02  0.51656072359E+02 -0.69280572461E+02  0.90127396283E+02  0.00000000000E+00 0. -1.
</event>
<event>
 7    1  0.6888431E-006  0.1212297E+03  0.7818608E-02  0.1309845E+00
          2   -1    0    0  502    0  0.00000000000E+00  0.00000000000E+00  0.12614810043E+03  0.12614810043E+03  0.00000000000E+00 0. -1.
          1   -1    0    0  501    0 -0.00000000000E+00 -0.00000000000E+00 -0.84678616938E+03  0.84678616938E+03  0.00000000000E+00 0. -1.
         25    2    1    2    0    0 -0.89291812346E+02 -0.56423478483E+02 -0.21571536695E+03  0.27076720027E+03  0.12500048211E+03 0.  0.
          2    1    1    2  501    0 -0.36518024352E+02  0.50948431207E+02 -0.56087530386E+03  0.56436726981E+03  0.00000000000E+00 0. -1.
          1    1    1    2  502    0  0.12580983670E+03  0.54750472755E+01  0.55952601867E+02  0.13779979974E+03  0.00000000000E+00 0. -1.
         22    1    3    3    0    0  0.21865980021E+02  0.97495988073E+01 -0.65344493535E+01  0.24816824687E+02  0.00000000000E+00 0. -1.
         22    1    3    3    0    0 -0.11115779237E+03 -0.66173077290E+02 -0.20918091760E+03  0.24595037558E+03  0.00000000000E+00 0. -1.
</event>
<event>
 7    1  0.6888431E-006  0.4631629E+02  0.7818608E-02  0.1477592E+00
          2   -1    0    0  502    0  0.00000000000E+00  0.00000000000E+00  0.32764107944E+02  0.32764107944E+02  0.00000000000E+00 0. -1.
          1   -1    0    0  501    0 -0.00000000000E+00 -0.00000000000E+00 -0.98267295962E+03  0.98267295962E+03  0.00000000000E+00 0. -1.
         25    2    1    2    0    0  0.10932628454E+00  0.69992611931E+02 -0.46271578008E+03  0.48438389839E+03  0.12499156055E+03 0.  0.
          2    1    1    2  501    0  0.26504598723E+02 -0.36571474552E+02 -0.48622575017E+03  0.48831900089E+03  0.00000000000E+00 0. -1.
          1    1    1    2  502    0 -0.26613925007E+02 -0.33421137379E+02 -0.96732142725E+00  0.42734168282E+02  0.00000000000E+00 0. -1.
         22    1    3    3    0    0 -0.11726132625E+02 -0.30805905146E+02 -0.54083216874E+02  0.63336406005E+02  0.00000000000E+00 0. -1.
         22    1    3    3    0    0  0.11835458909E+02  0.10079851708E+03 -0.40863256321E+03  0.42104749239E+03  0.00000000000E+00 0. -1.
</event>
<event>
 7    1  0.6888431E-006  0.1601299E+03  0.7818608E-02  0.1238271E+00
          2   -1    0    0  502    0  0.00000000000E+00  0.00000000000E+00  0.11786578432E+04  0.11786578432E+04  0.00000000000E+00 0. -1.
          1   -1    0    0  501    0 -0.00000000000E+00 -0.00000000000E+00 -0.13293251618E+03  0.13293251618E+03  0.00000000000E+00 0. -1.
         25    2    1    2    0    0  0.66162968237E+02 -0.20409829600E+03  0.63020723901E+03  0.67736251110E+03  0.12500061818E+03 0.  0.
          2    1    1    2  501    0 -0.10370023603E+03  0.11743982005E+03 -0.45890478305E+02  0.16325374815E+03  0.00000000000E+00 0. -1.
          1    1    1    2  502    0  0.37537267794E+02  0.86658475953E+02  0.46140856630E+03  0.47097410012E+03  0.00000000000E+00 0. -1.
         22    1    3    3    0    0  0.65799731160E+02 -0.17812793031E+03  0.37020287397E+03  0.41606409611E+03  0.00000000000E+00 0. -1.
         22    1    3    3    0    0  0.36323707653E+00 -0.25970365689E+02  0.26000436504E+03  0.26129841498E+03  0.00000000000E+00 0. -1.
</event>
<event>
 7    1  0.6888431E-006  0.8969069E+02  0.7818608E-02  0.1331894E+00
          2   -1    0    0  502    0  0.00000000000E+00  0.00000000000E+00  0.43671999101E+03  0.43671999101E+03  0.00000000000E+00 0. -1.
          1   -1    0    0  501    0 -0.00000000000E+00 -0.00000000000E+00 -0.37456455212E+03  0.37456455212E+03  0.00000000000E+00 0. -1.
         25    2    1    2    0    0 -0.10350792695E+03  0.91873735175E+02 -0.13994635260E+03  0.23316404006E+03  0.12500325520E+03 0.  0.
          2    1    1    2  501    0  0.36487536648E+02 -0.73118525891E+02 -0.17579979975E+03  0.19386394392E+03  0.00000000000E+00 0. -1.
          1    1    1    2  502    0  0.67020390306E+02 -0.18755209284E+02  0.37790159124E+03  0.38425655916E+03  0.00000000000E+00 0. -1.
         22    1    3    3    0    0 -0.11306912417E+03  0.63958974450E+02 -0.51182892715E+02  0.13962473190E+03  0.00000000000E+00 0. -1.
         22    1    3    3    0    0  0.95611972125E+01  0.27914760725E+02 -0.88763459887E+02  0.93539308152E+02  0.00000000000E+00 0. -1.
</event>
<event>
 7    1  0.6888431E-006  0.3187862E+02  0.7818608E-02  0.1634843E+00
          2   -1    0    0  502    0  0.00000000000E+00  0.00000000000E+00  0.89872692425E+02  0.89872692425E+02  0.00000000000E+00 0. -1.
          1   -1    0    0  501    0 -0.00000000000E+00 -0.00000000000E+00 -0.47501845470E+03  0.47501845470E+03  0.00000000000E+00 0. -1.
         25    2    1    2    0    0 -0.20884288783E+02  0.68553531244E+01 -0.11460525185E+02  0.12743107805E+03  0.12499674648E+03 0.  0.
          2    1    1    2  501    0  0.14395716755E+02 -0.28645027928E+02 -0.40079711209E+03  0.40207723057E+03  0.00000000000E+00 0. -1.
          1    1    1    2  502    0  0.64885720280E+01  0.21789674804E+02  0.27111874996E+02  0.35382838507E+02  0.00000000000E+00 0. -1.
         22    1    3    3    0    0  0.36255388356E+01 -0.57201501246E+02  0.27753394958E+01  0.57383436512E+02  0.00000000000E+00 0. -1.
         22    1    3    3    0    0 -0.24509827619E+02  0.64056854370E+02 -0.14235864681E+02  0.70047641537E+02  0.00000000000E+00 0. -1.
</event>
<event>
 7    1  0.6888431E-006  0.4580470E+02  0.7818608E-02  0.1555463E+00
          2   -1    0    0  502    0  0.00000000000E+00  0.00000000000E+00  0.19837506660E+04  0.19837506660E+04  0.00000000000E+00 0. -1.
          1   -1    0    0  501    0 -0.00000000000E+00 -0.00000000000E+00 -0.76461476850E+03  0.76461476850E+03  0.00000000000E+00 0. -1.
         25    2    1    2    0    0  0.53503914487E+02 -0.42689536670E+02 -0.47442544765E+03  0.49536802046E+03  0.12499961965E+03 0.  0.
          2    1    1    2  501    0 -0.24558958062E+02  0.72043110623E+01 -0.27886627205E+03  0.28003828704E+03  0.00000000000E+00 0. -1.
          1    1    1    2  502    0 -0.28944956425E+02  0.35485225608E+02  0.19724276172E+04  0.19729591270E+04  0.00000000000E+00 0. -1.
         22    1    3    3    0    0  0.40290032362E+02 -0.73257951081E+02 -0.43842899382E+03  0.44632947105E+03  0.00000000000E+00 0.  1.
         22    1    3    3    0    0  0.13213882125E+02  0.30568414411E+02 -0.35996453830E+02  0.49038549415E+02  0.00000000000E+00 0.  1.
</event>
<event>
 7    1  0.6888431E-006  0.1366680E+03  0.7818608E-02  0.1291397E+00
          2   -1    0    0  502    0  0.00000000000E+00  0.00000000000E+00  0.58018275453E+03  0.58018275453E+03  0.00000000000E+00 0. -1.
          1   -1    0    0  501    0 -0.00000000000E+00 -0.00000000000E+00 -0.50371356598E+03  0.50371356598E+03  0.00000000000E+00 0. -1.
         25    2    1    2    0    0  0.32788492629E+02  0.12329169563E+03  0.64120982488E+02  0.18976969731E+03  0.12500044064E+03 0.  0.
          2    1    1    2  501    0 -0.64482944303E+02  0.13591083603E+02 -0.42741385301E+03  0.43246429842E+03  0.00000000000E+00 0. -1.
          1    1    1    2  502    0  0.31694451673E+02 -0.13688277923E+03  0.43976205908E+03  0.46166232479E+03  0.00000000000E+00 0. -1.
         22    1    3    3    0    0  0.42802662242E+02 -0.36903183454E+01  0.42760624151E+02  0.60614827578E+02  0.00000000000E+00 0. -1.
         22    1    3    3    0    0 -0.10014169613E+02  0.12698201398E+03  0.21360358337E+02  0.12915486973E+03  0.00000000000E+00 0. -1.
</event>
<event>
 7    1  0.6888431E-006  0.1221195E+03  0.7818608E-02  0.1381172E+00
          2   -1    0    0  502    0  0.00000000000E+00  0.00000000000E+00  0.88473217546E+03  0.88473217546E+03  0.00000000000E+00 0. -1.
          1   -1    0    0  501    0 -0.00000000000E+00 -0.00000000000E+00 -0.24420672094E+03  0.24420672094E+03  0.00000000000E+00 0. -1.
         25    2    1    2    0    0 -0.58256056577E+02 -0.71740345290E+02  0.18635511185E+02  0.15656356798E+03  0.12499769306E+03 0.  0.
          2    1    1    2  501    0 -0.96726386003E+01 -0.32287576568E+02 -0.16872459006E+03  0.17205823092E+03  0.00000000000E+00 0. -1.
          1    1    1    2  502    0  0.67928695177E+02  0.10402792186E+03  0.79061453339E+03  0.80031709751E+03  0.00000000000E+00 0. -1.
         22    1    3    3    0    0 -0.36901034007E+01  0.34329389510E+02  0.13801815505E+02  0.37183517295E+02  0.00000000000E+00 0.  1.
         22    1    3    3    0    0 -0.54565953176E+02 -0.10606973480E+03  0.48336956805E+01  0.11938005068E+03  0.00000000000E+00 0.  1.
</event>
<event>
 7    1  0.6888431E-006  0.5422024E+02  0.7818608E-02  0.1435095E+00
          2   -1    0    0  502    0  0.00000000000E+00  0.00000000000E+00  0.52476780524E+03  0.52476780524E+03  0.00000000000E+00 0. -1.
          1   -1    0    0  501    0 -0.00000000000E+00 -0.00000000000E+00 -0.85193671122E+02  0.85193671122E+02  0.00000000000E+00 0. -1.
         25    2    1    2    0    0  0.31764345427E+01 -0.34297879571E+02  0.17207862529E+03  0.21545835758E+03  0.12499926517E+03 0.  0.
          2    1    1    2  501    0  0.49129113265E+02  0.80011429502E+01 -0.50650636853E+02  0.71015315759E+02  0.00000000000E+00 0. -1.
          1    1    1    2  502    0 -0.52305547808E+02  0.26296736621E+02  0.31814614569E+03  0.32348780302E+03  0.00000000000E+00 0. -1.
         22    1    3    3    0    0  0.40333151606E+02  0.25489216832E+02  0.11609806076E+03  0.12551981121E+03  0.00000000000E+00 0.  1.
         22    1    3    3    0    0 -0.37156717064E+02 -0.59787096403E+02  0.55980564522E+02  0.89938546372E+02  0.00000000000E+00 0.  1.
</event>
<event>
 7    1  0.6888431E-006  0.8396685E+02  0.7818608E-02  0.1410876E+00
          2   -1    0    0  502    0  0.00000000000E+00  0.00000000000E+00  0.65934271267E+03  0.65934271267E+03  0.00000000000E+00 0. -1.
          1   -1    0    0  501    0 -0.00000000000E+00 -0.00000000000E+00 -0.10933697055E+03  0.10933697055E+03  0.00000000000E+00 0. -1.
         25    2    1    2    0    0 -0.76842373759E+02 -0.90045654637E+02  0.14661572214E+03  0.22612967881E+03  0.12500196532E+03 0.  0.
          2    1    1    2  501    0  0.52482082982E+02  0.59984659960E+02 -0.45647271748E+02  0.91848799027E+02  0.00000000000E+00 0. -1.
          1    1    1    2  502    0  0.24360290777E+02  0.30060994677E+02  0.44903729173E+03  0.45070120538E+03  0.00000000000E+00 0. -1.
         22    1    3    3    0    0 -0.59023387181E+02  0.18736664978E+02  0.52561290399E+02  0.81225070620E+02  0.00000000000E+00 0.  1.
         22    1    3    3    0    0 -0.17818986578E+02 -0.10878231961E+03  0.94054431742E+02  0.14490460819E+03  0.00000000000E+00 0.  1.
</event>
<event>
 7    1  0.6888431E-006  0.7809705E+02  0.7818608E-02  0.1368200E+00
          2   -1    0    0  502    0  0.00000000000E+00  0.00000000000E+00  0.48650374782E+03  0.48650374782E+03  0.00000000000E+00 0. -1.
          1   -1    0    0  501    0 -0.00000000000E+00 -0.00000000000E+00 -0.75471742029E+03  0.75471742029E+03  0.00000000000E+00 0. -1.
         25    2    1    2    0    0 -0.76353983473E+02 -0.11116868304E+03  0.10160836289E+03  0.21009794914E+03  0.12501392700E+03 0.  0.
          2    1    1    2  501    0  0.36469792593E+02  0.68187661365E+02 -0.69571403420E+03  0.69999830022E+03  0.00000000000E+00 0. -1.
          1    1    1    2  502    0  0.39884190879E+02  0.42981021675E+02  0.32589199884E+03  0.33112491874E+03  0.00000000000E+00 0. -1.
         22    1    3    3    0    0 -0.83929923666E+02 -0.11976269463E+03  0.11949594245E+03  0.18885607052E+03  0.00000000000E+00 0. -1.
         22    1    3    3    0    0  0.75759401928E+01  0.85940115918E+01 -0.17887579555E+02  0.21241878622E+02  0.00000000000E+00 0. -1.
</event>
<event>
 7    1  0.6888431E-006  0.2549992E+02  0.7818608E-02  0.1663617E+00
          2   -1    0    0  502    0  0.00000000000E+00  0.00000000000E+00  0.11292372676E+04  0.11292372676E+04  0.00000000000E+00 0. -1.
          1   -1    0    0  501    0 -0.00000000000E+00 -0.00000000000E+00 -0.47795212847E+03  0.47795212847E+03  0.00000000000E+00 0. -1.
         25    2    1    2    0    0  0.65375787722E+01  0.11002073864E+02  0.70780943369E+03  0.71887596457E+03  0.12499868978E+03 0.  0.
          2    1    1    2  501    0  0.20454110090E+02 -0.12850832611E+02 -0.47166946002E+03  0.47228761791E+03  0.00000000000E+00 0. -1.
          1    1    1    2  502    0 -0.26991688862E+02  0.18487587475E+01  0.41514516546E+03  0.41602581360E+03  0.00000000000E+00 0. -1.
         22    1    3    3    0    0  0.33407161015E+02 -0.31397956230E+02  0.57616209847E+03  0.57798324697E+03  0.00000000000E+00 0. -1.
         22    1    3    3    0    0 -0.26869582242E+02  0.42400030094E+02  0.13164733522E+03  0.14089271760E+03  0.00000000000E+00 0. -1.
</event>
<event>
 7    1  0.6888431E-006  0.2437158E+02  0.7818608E-02  0.1683274E+00
          2   -1    0    0  502    0  0.00000000000E+00  0.00000000000E+00  0.14503058290E+03  0.14503058290E+03  0.00000000000E+00 0. -1.
          1   -1    0    0  501    0 -0.00000000000E+00 -0.00000000000E+00 -0.33533224451E+03  0.33533224451E+03  0.00000000000E+00 0. -1.
         25    2    1    2    0    0  0.13832019533E+02 -0.41693224759E+02 -0.12605421813E+03  0.18287717108E+03  0.12499897615E+03 0.  0.
          2    1    1    2  501    0  0.23351070986E+00  0.23887248774E+02 -0.17896154071E+03  0.18054885277E+03  0.00000000000E+00 0. -1.
          1    1    1    2  502    0 -0.14065530243E+02  0.17805975985E+02  0.11471409724E+03  0.11693680356E+03  0.00000000000E+00 0. -1.
         22    1    3    3    0    0  0.14295426446E+02  0.19373119827E+02 -0.11899052170E+03  0.12140189967E+03  0.00000000000E+00 0. -1.
         22    1    3    3    0    0 -0.46340691356E+00 -0.61066344586E+02 -0.70636964282E+01  0.61475271405E+02  0.00000000000E+00 0. -1.
</event>
<event>
 7    1  0.6888431E-006  0.1260879E+03  0.7818608E-02  0.1252171E+00
          2   -1    0    0  502    0  0.00000000000E+00  0.00000000000E+00  0.22460538306E+04  0.22460538306E+04  0.00000000000E+00 0. -1.
          1   -1    0    0  501    0 -0.00000000000E+00 -0.00000000000E+00 -0.12581612759E+04  0.12581612759E+04  0.00000000000E+00 0. -1.
         25    2    1    2    0    0  0.11369646022E+03 -0.16974510397E+03  0.17881813936E+03  0.29890019848E+03  0.12500046521E+03 0.  0.
          2    1    1    2  501    0 -0.84502718950E+01  0.10393028616E+03 -0.11939265434E+04  0.11984713190E+04  0.00000000000E+00 0. -1.
          1    1    1    2  502    0 -0.10524618832E+03  0.65814817811E+02  0.20030009587E+04  0.20068435890E+04  0.00000000000E+00 0. -1.
         22    1    3    3    0    0  0.56146179993E+02 -0.10593892539E+03  0.17596128505E+03  0.21292680263E+03  0.00000000000E+00 0.  1.
         22    1    3    3    0    0  0.57550280223E+02 -0.63806178581E+02  0.28568543081E+01  0.85973395858E+02  0.00000000000E+00 0.  1.
</event>
<event>
 7    1  0.6888431E-006  0.4901199E+02  0.7818608E-02  0.1469307E+00
          2   -1    0    0  502    0  0.00000000000E+00  0.00000000000E+00  0.11546949407E+03  0.11546949407E+03  0.00000000000E+00 0. -1.
          1   -1    0    0  501    0 -0.00000000000E+00 -0.00000000000E+00 -0.11438003315E+04  0.11438003315E+04  0.00000000000E+00 0. -1.
         25    2    1    2    0    0 -0.66187089301E+02  0.23840922870E+02  0.15120520891E+02  0.14423222215E+03  0.12500073344E+03 0.  0.
          2    1    1    2  501    0  0.21685501761E+02 -0.36933905331E+02 -0.10636007578E+04  0.10644627501E+04  0.00000000000E+00 0. -1.
          1    1    1    2  502    0  0.44501587539E+02  0.13092982461E+02  0.20149399524E+02  0.50574853281E+02  0.00000000000E+00 0. -1.
         22    1    3    3    0    0  0.16008977982E+02 -0.23644525359E+02 -0.27981078979E+02  0.39978641001E+02  0.00000000000E+00 0.  1.
         22    1    3    3    0    0 -0.82196067282E+02  0.47485448229E+02  0.43101599870E+02  0.10425358114E+03  0.00000000000E+00 0.  1.
</event>
<event>
 7    1  0.6888431E-006  0.6773418E+02  0.7818608E-02  0.1392078E+00
          2   -1    0    0  502    0  0.00000000000E+00  0.00000000000E+00  0.23624727542E+04  0.23624727542E+04  0.00000000000E+00 0. -1.
          1   -1    0    0  501    0 -0.00000000000E+00 -0.00000000000E+00 -0.19090018493E+03  0.19090018493E+03  0.00000000000E+00 0. -1.
         25    2    1    2    0    0 -0.26449598466E+02 -0.95622446999E+02 -0.78070378989E+02  0.17766017126E+03  0.12499967499E+03 0.  0.
          2    1    1    2  501    0 -0.23801368572E+02  0.50297952985E+02 -0.50159018082E+02  0.74915394381E+02  0.00000000000E+00 0. -1.
          1    1    1    2  502    0  0.50250967038E+02  0.45324494015E+02  0.22998019663E+04  0.23007973734E+04  0.00000000000E+00 0. -1.
         22    1    3    3    0    0  0.33940940163E+01 -0.43850704134E+02  0.30643988810E+02  0.53604646976E+02  0.00000000000E+00 0. -1.
         22    1    3    3    0    0 -0.29843692482E+02 -0.51771742865E+02 -0.10871436780E+03  0.12405552429E+03  0.00000000000E+00 0. -1.
</event>
<event>
 7    1  0.6888431E-006  0.5277011E+02  0.7818608E-02  0.1431304E+00
          2   -1    0    0  502    0  0.00000000000E+00  0.00000000000E+00  0.11241697203E+03  0.11241697203E+03  0.00000000000E+00 0. -1.
          1   -1    0    0  501    0 -0.00000000000E+00 -0.00000000000E+00 -0.58099474030E+03  0.58099474030E+03  0.00000000000E+00 0. -1.
         25    2    1    2    0    0  0.96708925747E+01 -0.37908592747E+02 -0.48015802438E+03  0.49770247781E+03  0.12500176188E+03 0.  0.
          2    1    1    2  501    0 -0.52302308901E+02  0.58470971692E+01 -0.76429322551E+02  0.92796343717E+02  0.00000000000E+00 0. -1.
          1    1    1    2  502    0  0.42631416326E+02  0.32061495578E+02  0.88009578665E+02  0.10291289080E+03  0.00000000000E+00 0. -1.
         22    1    3    3    0    0 -0.47370074173E+02  0.87607740361E+01 -0.28596884518E+03  0.28999802672E+03  0.00000000000E+00 0. -1.
         22    1    3    3    0    0  0.57040966747E+02 -0.46669366783E+02 -0.19418917920E+03  0.20770445109E+03  0.00000000000E+00 0. -1.
</event>
<event>
 7    1  0.6888431E-006  0.4635229E+02  0.7818608E-02  0.1488611E+00
          2   -1    0    0  502    0  0.00000000000E+00  0.00000000000E+00  0.23800820573E+03  0.23800820573E+03  0.00000000000E+00 0. -1.
          1   -1    0    0  501    0 -0.00000000000E+00 -0.00000000000E+00 -0.12209495502E+04  0.12209495502E+04  0.00000000000E+00 0. -1.
         25    2    1    2    0    0  0.10053276447E+02  0.16286941047E+02 -0.11171120888E+03  0.16873312971E+03  0.12500056823E+03 0.  0.
          2    1    1    2  501    0  0.36915753907E+02 -0.14070768474E+02 -0.10777224249E+04  0.10784462826E+04  0.00000000000E+00 0. -1.
          1    1    1    2  502    0 -0.46969030354E+02 -0.22161725735E+01  0.20649228934E+03  0.21177834354E+03  0.00000000000E+00 0. -1.
         22    1    3    3    0    0 -0.46243754027E+02 -0.20587547453E+02 -0.18775476284E+02  0.53989354565E+02  0.00000000000E+00 0. -1.
         22    1    3    3    0    0  0.56297030474E+02  0.36874488500E+02 -0.92935732594E+02  0.11474377515E+03  0.00000000000E+00 0. -1.
</event>
<event>
 7    1  0.6888431E-006  0.8721289E+02  0.7818608E-02  0.1411164E+00
          2   -1    0    0  502    0  0.00000000000E+00  0.00000000000E+00  0.80093784659E+03  0.80093784659E+03  0.00000000000E+00 0. -1.
          1   -1    0    0  501    0 -0.00000000000E+00 -0.00000000000E+00 -0.14534983136E+04  0.14534983136E+04  0.00000000000E+00 0. -1.
         25    2    1    2    0    0 -0.54942993587E+02  0.14768865111E+02  0.12880347453E+03  0.18828806323E+03  0.12500083113E+03 0.  0.
          2    1    1    2  501    0 -0.35575696506E+02 -0.10764387144E+02 -0.14203167228E+04  0.14208029756E+04  0.00000000000E+00 0. -1.
          1    1    1    2  502    0  0.90518690093E+02 -0.40044779666E+01  0.63895278125E+03  0.64534512144E+03  0.00000000000E+00 0. -1.
         22    1    3    3    0    0 -0.34687197327E+02  0.50344058172E+02  0.13374237613E+03  0.14705355836E+03  0.00000000000E+00 0.  1.
         22    1    3    3    0    0 -0.20255796260E+02 -0.35575193061E+02 -0.49389015974E+01  0.41234504877E+02  0.00000000000E+00 0.  1.
</event>
<event>
 7    1  0.6888431E-006  0.5576604E+02  0.7818608E-02  0.1526650E+00
          2   -1    0    0  502    0  0.00000000000E+00  0.00000000000E+00  0.18963128185E+03  0.18963128185E+03  0.00000000000E+00 0. -1.
          1   -1    0    0  501    0 -0.00000000000E+00 -0.00000000000E+00 -0.39720445056E+03  0.39720445056E+03  0.00000000000E+00 0. -1.
         25    2    1    2    0    0 -0.49622389686E+02  0.61395013497E+01 -0.13564318885E+03  0.19111154338E+03  0.12499788916E+03 0.  0.
          2    1    1    2  501    0 -0.31516194266E+01 -0.25155614096E+02 -0.22824496821E+03  0.22964865151E+03  0.00000000000E+00 0. -1.
          1    1    1    2  502    0  0.52774009113E+02  0.19016112746E+02  0.15631498835E+03  0.16607553752E+03  0.00000000000E+00 0. -1.
         22    1    3    3    0    0 -0.42486974661E+02  0.63696739929E+02 -0.80070454814E+02  0.11078671142E+03  0.00000000000E+00 0. -1.
         22    1    3    3    0    0 -0.71354150255E+01 -0.57557238579E+02 -0.55572734040E+02  0.80324831958E+02  0.00000000000E+00 0. -1.
</event>
<event>
 7    1  0.6888431E-006  0.9146324E+02  0.7818608E-02  0.1481780E+00
          2   -1    0    0  502    0  0.00000000000E+00  0.00000000000E+00  0.96810610531E+03  0.96810610531E+03  0.00000000000E+00 0. -1.
          1   -1    0    0  501    0 -0.00000000000E+00 -0.00000000000E+00 -0.25697382037E+03  0.25697382037E+03  0.00000000000E+00 0. -1.
         25    2    1    2    0    0  0.86334721067E+02  0.69862821690E+02  0.30281927017E+03  0.34591690941E+03  0.12499799964E+03 0.  0.
          2    1    1    2  501    0 -0.73988668829E+02 -0.52870670692E+02 -0.22646322075E+03  0.24403938470E+03  0.00000000000E+00 0. -1.
          1    1    1    2  502    0 -0.12346052238E+02 -0.16992150998E+02  0.63477623551E+03  0.63512363156E+03  0.00000000000E+00 0. -1.
         22    1    3    3    0    0  0.75854723079E+02  0.43228074895E+02  0.71542513205E+02  0.11287575766E+03  0.00000000000E+00 0. -1.
         22    1    3    3    0    0  0.10479997988E+02  0.26634746794E+02  0.23127675697E+03  0.23304115175E+03  0.00000000000E+00 0. -1.
</event>
<event>
 7    1  0.6888431E-006  0.1779354E+03  0.7818608E-02  0.1289530E+00
          2   -1    0    0  502    0  0.00000000000E+00  0.00000000000E+00  0.13565074698E+04  0.13565074698E+04  0.00000000000E+00 0. -1.
          1   -1    0    0  501    0 -0.00000000000E+00 -0.00000000000E+00 -0.85981765912E+03  0.85981765912E+03  0.00000000000E+00 0. -1.
         25    2    1    2    0    0 -0.99948509185E+02 -0.13640845089E+03  0.59971867797E+03  0.63551970201E+03  0.12500331585E+03 0.  0.
          2    1    1    2  501    0  0.14234983243E+03  0.10716475134E+03 -0.83157046463E+03  0.85044529299E+03  0.00000000000E+00 0. -1.
          1    1    1    2  502    0 -0.42401323249E+02  0.29243699544E+02  0.72854159736E+03  0.73036013395E+03  0.00000000000E+00 0. -1.
         22    1    3    3    0    0 -0.12096238257E+03 -0.68082277867E+02  0.39703120995E+03  0.42059585855E+03  0.00000000000E+00 0. -1.
         22    1    3    3    0    0  0.21013873385E+02 -0.68326173019E+02  0.20268746802E+03  0.21492384346E+03  0.00000000000E+00 0. -1.
</event>
<event>
 7    1  0.6888431E-006  0.6644579E+02  0.7818608E-02  0.1424272E+00
          2   -1    0    0  502    0  0.00000000000E+00  0.00000000000E+00  0.23202680822E+04  0.23202680822E+04  0.00000000000E+00 0. -1.
          1   -1    0    0  501    0 -0.00000000000E+00 -0.00000000000E+00 -0.27517416687E+03  0.27517416687E+03  0.00000000000E+00 0. -1.
         25    2    1    2    0    0  0.81658508601E+01  0.48813776206E+02  0.23050683325E+01  0.13445973625E+03  0.12499856585E+03 0.  0.
          2    1    1    2  501    0 -0.52081813472E+02 -0.44873705152E+02 -0.20322391264E+03  0.21453699769E+03  0.00000000000E+00 0. -1.
          1    1    1    2  502    0  0.43915962611E+02 -0.39400710536E+01  0.22460127596E+04  0.22464455151E+04  0.00000000000E+00 0. -1.
         22    1    3    3    0    0 -0.20158926676E+01  0.86018628067E+02 -0.22073829803E+02  0.88828611156E+02  0.00000000000E+00 0.  1.
         22    1    3    3    0    0  0.10181743528E+02 -0.37204851861E+02  0.24378898136E+02  0.45631125097E+02  0.00000000000E+00 0.  1.
</event>
<event>
 7    1  0.6888431E-006  0.1244592E+03  0.7818608E-02  0.1326451E+00
          2   -1    0    0  502    0  0.00000000000E+00  0.00000000000E+00  0.13922449256E+04  0.13922449256E+04  0.00000000000E+00 0. -1.
          1   -1    0    0  501    0 -0.00000000000E+00 -0.00000000000E+00 -0.38916446724E+03  0.38916446724E+03  0.00000000000E+00 0. -1.
         25    2    1    2    0    0  0.12284781526E+03  0.22142969489E+02  0.51962042956E+02  0.18413864010E+03  0.12500035224E+03 0.  0.
          2    1    1    2  501    0 -0.19936044800E+02  0.48693422220E+02 -0.31784568259E+03  0.32217134136E+03  0.00000000000E+00 0. -1.
          1    1    1    2  502    0 -0.10291177046E+03 -0.70836391709E+02  0.12689640980E+04  0.12750994113E+04  0.00000000000E+00 0. -1.
         22    1    3    3    0    0  0.10946142765E+03  0.17120831472E+02  0.90485637396E+02  0.14304746621E+03  0.00000000000E+00 0.  1.
         22    1    3    3    0    0  0.13386387608E+02  0.50221380171E+01 -0.38523594440E+02  0.41091173895E+02  0.00000000000E+00 0.  1.
</event>
<event>
 7    1  0.6888431E-006  0.7976610E+02  0.7818608E-02  0.1422320E+00
          2   -1    0    0  502    0  0.00000000000E+00  0.00000000000E+00  0.16304282921E+04  0.16304282921E+04  0.00000000000E+00 0. -1.
          1   -1    0    0  501    0 -0.00000000000E+00 -0.00000000000E+00 -0.28756453876E+03  0.28756453876E+03  0.00000000000E+00 0. -1.
         25    2    1    2    0    0  0.53431589312E+02 -0.85837719386E+01 -0.55867595482E+02  0.14722110389E+03  0.12499699728E+03 0.  0.
          2    1    1    2  501    0  0.24140763195E+02  0.28411106837E+02 -0.18312943973E+03  0.18688595221E+03  0.00000000000E+00 0. -1.
          1    1    1    2  502    0 -0.77572352508E+02 -0.19827334898E+02  0.15818607886E+04  0.15838857748E+04  0.00000000000E+00 0. -1.
         22    1    3    3    0    0  0.29499301788E+02  0.73146505068E+01 -0.94390875053E+02  0.99163250306E+02  0.00000000000E+00 0.  1.
         22    1    3    3    0    0  0.23932287524E+02 -0.15898422445E+02  0.38523279571E+02  0.48057853586E+02  0.00000000000E+00 0.  1.
</event>
<event>
 7    1  0.6888431E-006  0.1815672E+03  0.7818608E-02  0.1265287E+00
          2   -1    0    0  502    0  0.00000000000E+00  0.00000000000E+00  0.92374436979E+03  0.92374436979E+03  0.00000000000E+00 0. -1.
          1   -1    0    0  501    0 -0.00000000000E+00 -0.00000000000E+00 -0.81353049568E+03  0.81353049568E+03  0.00000000000E+00 0. -1.
         25    2    1    2    0    0  0.57547823828E+02 -0.20795608048E+03 -0.16737109010E+02  0.24992526627E+03  0.12500009787E+03 0.  0.
          2    1    1    2  501    0 -0.98902288559E+00  0.17878744064E+03 -0.66715566014E+03  0.69069718542E+03  0.00000000000E+00 0. -1.
          1    1    1    2  502    0 -0.56558800943E+02  0.29168639833E+02  0.79410664325E+03  0.79665241377E+03  0.00000000000E+00 0. -1.
         22    1    3    3    0    0  0.13064311087E+02 -0.20062746771E+03  0.21041243359E+01  0.20106338394E+03  0.00000000000E+00 0.  1.
         22    1    3    3    0    0  0.44483512741E+02 -0.73286127707E+01 -0.18841233346E+02  0.48861882331E+02  0.00000000000E+00 0.  1.
</event>
<event>
 7    1  0.6888431E-006  0.3780762E+02  0.7818608E-02  0.1533266E+00
          2   -1    0    0  502    0  0.00000000000E+00  0.00000000000E+00  0.19893784799E+04  0.19893784799E+04  0.00000000000E+00 0. -1.
          1   -1    0    0  501    0 -0.00000000000E+00 -0.00000000000E+00 -0.21686584996E+04  0.21686584996E+04  0.00000000000E+00 0. -1.
         25    2    1    2    0    0  0.32171829880E+02  0.52374767483E+02  0.20353296872E+03  0.24661974707E+03  0.12496994591E+03 0.  0.
          2    1    1    2  501    0 -0.33946432391E+02 -0.16621252895E+02 -0.21467671546E+04  0.21470998678E+04  0.00000000000E+00 0. -1.
          1    1    1    2  502    0  0.17746025117E+01 -0.35753514587E+02  0.17639541661E+04  0.17643173647E+04  0.00000000000E+00 0. -1.
         22    1    3    3    0    0  0.48718072181E+02 -0.22916770315E+02  0.12723881375E+03  0.13816057557E+03  0.00000000000E+00 0. -1.
         22    1    3    3    0    0 -0.16546242302E+02  0.75291537798E+02  0.76294154972E+02  0.10845917149E+03  0.00000000000E+00 0. -1.
</event>
<event>
 7    1  0.6888431E-006  0.1396348E+03  0.7818608E-02  0.1362045E+00
          2   -1    0    0  502    0  0.00000000000E+00  0.00000000000E+00  0.14586108301E+04  0.14586108301E+04  0.00000000000E+00 0. -1.
          1   -1    0    0  501    0 -0.00000000000E+00 -0.00000000000E+00 -0.52181056464E+03  0.52181056464E+03  0.00000000000E+00 0. -1.
         25    2    1    2    0    0 -0.17043563150E+02 -0.17147005017E+03  0.15237064189E+03  0.26179058238E+03  0.12500014144E+03 0.  0.
          2    1    1    2  501    0  0.17222231353E+02  0.13694881511E+03 -0.45665861372E+03  0.47706254589E+03  0.00000000000E+00 0. -1.
          1    1    1    2  502    0 -0.17866820299E+00  0.34521235062E+02  0.12410882373E+04  0.12415682665E+04  0.00000000000E+00 0. -1.
         22    1    3    3    0    0 -0.63124953651E+02 -0.65337928747E+02  0.99006471635E+02  0.13437293675E+03  0.00000000000E+00 0. -1.
         22    1    3    3    0    0  0.46081390501E+02 -0.10613212143E+03  0.53364170259E+02  0.12741764563E+03  0.00000000000E+00 0. -1.
</event>
<event>
 7    1  0.6888431E-006  0.9955247E+02  0.7818608E-02  0.1315510E+00
          2   -1    0    0  502    0  0.00000000000E+00  0.00000000000E+00  0.40940952150E+03  0.40940952150E+03  0.00000000000E+00 0. -1.
          1   -1    0    0  501    0 -0.00000000000E+00 -0.00000000000E+00 -0.37668472854E+03  0.37668472854E+03  0.00000000000E+00 0. -1.
         25    2    1    2    0    0  0.85127200507E+02  0.35727444183E+02  0.24868365932E+03  0.29324394530E+03  0.12500143402E+03 0.  0.
          2    1    1    2  501    0  0.31424211099E+02 -0.65362717275E+02 -0.32349382003E+03  0.33152378112E+03  0.00000000000E+00 0. -1.
          1    1    1    2  502    0 -0.11655141161E+03  0.29635273092E+02  0.10753495367E+03  0.16132652361E+03  0.00000000000E+00 0. -1.
         22    1    3    3    0    0  0.54805552868E+02  0.75067592678E+01  0.24554939210E+03  0.25170320622E+03  0.00000000000E+00 0.  1.
         22    1    3    3    0    0  0.30321647639E+02  0.28220684915E+02  0.31342672238E+01  0.41540739084E+02  0.00000000000E+00 0.  1.
</event>
<event>
 7    1  0.6888431E-006  0.2609207E+03  0.7818608E-02  0.1255146E+00
          2   -1    0    0  502    0  0.00000000000E+00  0.00000000000E+00  0.11445018483E+04  0.11445018483E+04  0.00000000000E+00 0. -1.
          1   -1    0    0  501    0 -0.00000000000E+00 -0.00000000000E+00 -0.11520894031E+04  0.11520894031E+04  0.00000000000E+00 0. -1.
         25    2    1    2    0    0  0.20457370260E+03 -0.19845964391E+03 -0.65350876581E+03  0.72383369293E+03  0.12499951191E+03 0.  0.
          2    1    1    2  501    0 -0.47960167521E+02 -0.96542665678E+01 -0.44677629180E+03  0.44944681270E+03  0.00000000000E+00 0. -1.
          1    1    1    2  502    0 -0.15661353508E+03  0.20811391047E+03  0.10926975028E+04  0.11233107459E+04  0.00000000000E+00 0. -1.
         22    1    3    3    0    0  0.15862603516E+03 -0.20970784806E+03 -0.57310690836E+03  0.63054827649E+03  0.00000000000E+00 0. -1.
         22    1    3    3    0    0  0.45947667437E+02  0.11248204159E+02 -0.80401857455E+02  0.93285416448E+02  0.00000000000E+00 0. -1.
</event>
<event>
 7    1  0.6888431E-006  0.1254583E+03  0.7818608E-02  0.1267896E+00
          2   -1    0    0  502    0  0.00000000000E+00  0.00000000000E+00  0.22557624850E+04  0.22557624850E+04  0.00000000000E+00 0. -1.
          1   -1    0    0  501    0 -0.00000000000E+00 -0.00000000000E+00 -0.34526448160E+04  0.34526448160E+04  0.00000000000E+00 0. -1.
         25    2    1    2    0    0 -0.15942749194E+03  0.12499293188E+03  0.27518377444E+03  0.36387189318E+03  0.12504513875E+03 0.  0.
          2    1    1    2  501    0  0.72633525030E+02 -0.10199020482E+03 -0.34061088478E+04  0.34084094698E+04  0.00000000000E+00 0. -1.
          1    1    1    2  502    0  0.86793966907E+02 -0.23002727058E+02  0.19340427424E+04  0.19361259379E+04  0.00000000000E+00 0. -1.
         22    1    3    3    0    0 -0.14319809430E+03  0.12297136202E+03  0.28713256667E+03  0.34361717205E+03  0.00000000000E+00 0.  1.
         22    1    3    3    0    0 -0.16229397636E+02  0.20215698626E+01 -0.11948792225E+02  0.20254721128E+02  0.00000000000E+00 0.  1.
</event>
<event>
 7    1  0.6888431E-006  0.6098483E+02  0.7818608E-02  0.1533694E+00
          2   -1    0    0  502    0  0.00000000000E+00  0.00000000000E+00  0.77692582411E+03  0.77692582411E+03  0.00000000000E+00 0. -1.
          1   -1    0    0  501    0 -0.00000000000E+00 -0.00000000000E+00 -0.23188132152E+03  0.23188132152E+03  0.00000000000E+00 0. -1.
         25    2    1    2    0    0  0.25590935416E+02  0.75677484399E+02  0.15426191457E+03  0.21401629163E+03  0.12499702868E+03 0.  0.
          2    1    1    2  501    0  0.15084708552E+01 -0.22078986929E+02 -0.19987055795E+03  0.20109201149E+03  0.00000000000E+00 0. -1.
          1    1    1    2  502    0 -0.27099406271E+02 -0.53598497470E+02  0.59065314597E+03  0.59369884251E+03  0.00000000000E+00 0. -1.
         22    1    3    3    0    0  0.31740189372E+02  0.10363828274E+03  0.80858121181E+02  0.13522710169E+03  0.00000000000E+00 0.  1.
         22    1    3    3    0    0 -0.61492539561E+01 -0.27960798341E+02  0.73403793388E+02  0.78789189943E+02  0.00000000000E+00 0.  1.
</event>
<event>
 7    1  0.6888431E-006  0.2274680E+03  0.7818608E-02  0.1230798E+00
          2   -1    0    0  502    0  0.00000000000E+00  0.00000000000E+00  0.65223694090E+03  0.65223694090E+03  0.00000000000E+00 0. -1.
          1   -1    0    0  501    0 -0.00000000000E+00 -0.00000000000E+00 -0.23260117796E+03  0.23260117796E+03  0.00000000000E+00 0. -1.
         25    2    1    2    0    0  0.18817907041E+03 -0.14628982072E+03  0.29716611521E+03  0.40093390095E+03  0.12501287422E+03 0.  0.
          2    1    1    2  501    0  0.21265945631E+02  0.68550060374E+02 -0.12894300635E+03  0.14757252491E+03  0.00000000000E+00 0. -1.
          1    1    1    2  502    0 -0.20944501604E+03  0.77739760350E+02  0.25141265408E+03  0.33633169300E+03  0.00000000000E+00 0. -1.
         22    1    3    3    0    0  0.19826919069E+03 -0.15545560763E+03  0.29352247339E+03  0.38682368116E+03  0.00000000000E+00 0. -1.
         22    1    3    3    0    0 -0.10090120279E+02  0.91657869109E+01  0.36436418137E+01  0.14110219793E+02  0.00000000000E+00 0. -1.
</event>
<event>
 7    1  0.6888431E-006  0.6549043E+02  0.7818608E-02  0.1426606E+00
          2   -1    0    0  502    0  0.00000000000E+00  0.00000000000E+00  0.11792729485E+04  0.11792729485E+04  0.00000000000E+00 0. -1.
          1   -1    0    0  501    0 -0.00000000000E+00 -0.00000000000E+00 -0.49462391183E+03  0.49462391183E+03  0.00000000000E+00 0. -1.
         25    2    1    2    0    0 -0.22111293040E+02 -0.48604165174E+02  0.55956610467E+02  0.14699497431E+03  0.12500042426E+03 0.  0.
          2    1    1    2  501    0 -0.38214572018E+02  0.21700104189E+02 -0.44701420549E+03  0.44916917520E+03  0.00000000000E+00 0. -1.
          1    1    1    2  502    0  0.60325865058E+02  0.26904060985E+02  0.10757066317E+04  0.10777327108E+04  0.00000000000E+00 0. -1.
         22    1    3    3    0    0 -0.40468067914E+02 -0.56462066741E+02  0.86229287217E+02  0.11072993938E+03  0.00000000000E+00 0.  1.
         22    1    3    3    0    0  0.18356774874E+02  0.78579015670E+01 -0.30272676750E+02  0.36265034929E+02  0.00000000000E+00 0.  1.
</event>
<event>
 7    1  0.6888431E-006  0.8351622E+02  0.7818608E-02  0.1367159E+00
          2   -1    0    0  502    0  0.00000000000E+00  0.00000000000E+00  0.31466675338E+04  0.31466675338E+04  0.00000000000E+00 0. -1.
          1   -1    0    0  501    0 -0.00000000000E+00 -0.00000000000E+00 -0.16483217328E+03  0.16483217328E+03  0.00000000000E+00 0. -1.
         25    2    1    2    0    0 -0.11603038519E+03 -0.76106032941E+01  0.53864641491E+02  0.17902506004E+03  0.12501040337E+03 0.  0.
          2    1    1    2  501    0  0.38953085409E+02  0.39261769739E+02 -0.94156858585E+02  0.10919864214E+03  0.00000000000E+00 0. -1.
          1    1    1    2  502    0  0.77077299779E+02 -0.31651166444E+02  0.30221275776E+04  0.30232760049E+04  0.00000000000E+00 0. -1.
         22    1    3    3    0    0 -0.91882888260E+02  0.47035797556E+02  0.76733251982E+01  0.10350705931E+03  0.00000000000E+00 0.  1.
         22    1    3    3    0    0 -0.24147496929E+02 -0.54646400850E+02  0.46191316292E+02  0.75518000733E+02  0.00000000000E+00 0.  1.
</event>
<event>
 7    1  0.6888431E-006  0.8968813E+02  0.7818608E-02  0.1306323E+00
          2   -1    0    0  502    0  0.00000000000E+00  0.00000000000E+00  0.25025586721E+04  0.25025586721E+04  0.00000000000E+00 0. -1.
          1   -1    0    0  501    0 -0.00000000000E+00 -0.00000000000E+00 -0.34867507707E+03  0.34867507707E+03  0.00000000000E+00 0. -1.
         25    2    1    2    0    0  0.99963685238E+01  0.10851712765E+02 -0.34009870498E+02  0.13037949916E+03  0.12499782180E+03 0.  0.
          2    1    1    2  501    0  0.71376262384E+02 -0.50594130353E+02 -0.25843898676E+03  0.27284619612E+03  0.00000000000E+00 0. -1.
          1    1    1    2  502    0 -0.81372630908E+02  0.39742417589E+02  0.24463324523E+04  0.24480080539E+04  0.00000000000E+00 0. -1.
         22    1    3    3    0    0  0.22917274346E+02 -0.26812137474E+02 -0.68922057729E+02  0.77423137504E+02  0.00000000000E+00 0.  1.
         22    1    3    3    0    0 -0.12920905822E+02  0.37663850239E+02  0.34912187231E+02  0.52956361651E+02  0.00000000000E+00 0.  1.
</event>
<event>
 7    1  0.6888431E-006  0.2060800E+03  0.7818608E-02  0.1209627E+00
          2   -1    0    0  502    0  0.00000000000E+00  0.00000000000E+00  0.68209921291E+03  0.68209921291E+03  0.00000000000E+00 0. -1.
          1   -1    0    0  501    0 -0.00000000000E+00 -0.00000000000E+00 -0.41276106176E+03  0.41276106176E+03  0.00000000000E+00 0. -1.
         25    2    1    2    0    0  0.20831664677E+03  0.15063018414E+02  0.10923890250E+03  0.26679417900E+03  0.12499310494E+03 0.  0.
          2    1    1    2  501    0 -0.17828030936E+03 -0.10932717106E+03 -0.29540601584E+03  0.36194062114E+03  0.00000000000E+00 0. -1.
          1    1    1    2  502    0 -0.30036337411E+02  0.94264152644E+02  0.45550526449E+03  0.46612547454E+03  0.00000000000E+00 0. -1.
         22    1    3    3    0    0  0.16956424028E+03 -0.39859452695E+02  0.63092079010E+02  0.18526040587E+03  0.00000000000E+00 0. -1.
         22    1    3    3    0    0  0.38752406488E+02  0.54922471109E+02  0.46146823495E+02  0.81533773125E+02  0.00000000000E+00 0. -1.
</event>
<event>
 7    1  0.6888431E-006  0.6308403E+02  0.7818608E-02  0.1431126E+00
          2   -1    0    0  502    0  0.00000000000E+00  0.00000000000E+00  0.67337854952E+03  0.67337854952E+03  0.00000000000E+00 0. -1.
          1   -1    0    0  501    0 -0.00000000000E+00 -0.00000000000E+00 -0.89982592760E+02  0.89982592760E+02  0.00000000000E+00 0. -1.
         25    2    1    2    0    0 -0.27811578750E+02 -0.63407519659E+02  0.10246078779E+03  0.17583085003E+03  0.12499710928E+03 0.  0.
          2    1    1    2  501    0  0.44037465629E+02  0.20040739493E+01 -0.41919607428E+02  0.60832295521E+02  0.00000000000E+00 0. -1.
          1    1    1    2  502    0 -0.16225886878E+02  0.61403445710E+02  0.52285477640E+03  0.52669799673E+03  0.00000000000E+00 0. -1.
         22    1    3    3    0    0  0.17880329120E+02  0.30504408974E+01  0.92855966548E+02  0.94611002968E+02  0.00000000000E+00 0. -1.
         22    1    3    3    0    0 -0.45691907870E+02 -0.66457960557E+02  0.96048212388E+01  0.81219847065E+02  0.00000000000E+00 0. -1.
</event>
<event>
 7    1  0.6888431E-006  0.6052156E+02  0.7818608E-02  0.1440275E+00
          2   -1    0    0  502    0  0.00000000000E+00  0.00000000000E+00  0.77350328825E+03  0.77350328825E+03  0.00000000000E+00 0. -1.
          1   -1    0    0  501    0 -0.00000000000E+00 -0.00000000000E+00 -0.31074699167E+03  0.31074699167E+03  0.00000000000E+00 0. -1.
         25    2    1    2    0    0 -0.28034114427E+02  0.18334299876E+02  0.60786342983E+03  0.62148578984E+03  0.12499831810E+03 0.  0.
          2    1    1    2  501    0  0.36857673667E+02  0.48003870911E+02 -0.29366085671E+03  0.29983255075E+03  0.00000000000E+00 0. -1.
          1    1    1    2  502    0 -0.88235592397E+01 -0.66338170787E+02  0.14855372345E+03  0.16293193933E+03  0.00000000000E+00 0. -1.
         22    1    3    3    0    0 -0.23634729807E+02  0.54000732071E+02  0.55149533329E+03  0.55463662172E+03  0.00000000000E+00 0. -1.
         22    1    3    3    0    0 -0.43993846208E+01 -0.35666432195E+02  0.56368096538E+02  0.66849168117E+02  0.00000000000E+00 0. -1.
</event>
<event>
 7    1  0.6888431E-006  0.7169360E+02  0.7818608E-02  0.1425586E+00
          2   -1    0    0  502    0  0.00000000000E+00  0.00000000000E+00  0.38236269778E+03  0.38236269778E+03  0.00000000000E+00 0. -1.
          1   -1    0    0  501    0 -0.00000000000E+00 -0.00000000000E+00 -0.49834632408E+02  0.49834632408E+02  0.00000000000E+00 0. -1.
         25    2    1    2    0    0  0.44110367850E+02  0.30216794696E+02  0.16019744301E+03  0.21011227757E+03  0.12500067682E+03 0.  0.
          2    1    1    2  501    0 -0.80116341651E+02 -0.11768842183E+02  0.54773881850E+02  0.97761505608E+02  0.00000000000E+00 0. -1.
          1    1    1    2  502    0  0.36005973801E+02 -0.18447952513E+02  0.11755674051E+03  0.12432354701E+03  0.00000000000E+00 0. -1.
         22    1    3    3    0    0  0.46955774735E+02  0.71139752508E+01 -0.74277721879E+00  0.47497422486E+02  0.00000000000E+00 0.  1.
         22    1    3    3    0    0 -0.28454068849E+01  0.23102819445E+02  0.16094022023E+03  0.16261485508E+03  0.00000000000E+00 0.  1.
</event>
<event>
 7    1  0.6888431E-006  0.1128256E+03  0.7818608E-02  0.1259391E+00
          2   -1    0    0  502    0  0.00000000000E+00  0.00000000000E+00  0.33276184954E+03  0.33276184954E+03  0.00000000000E+00 0. -1.
          1   -1    0    0  501    0 -0.00000000000E+00 -0.00000000000E+00 -0.13040263992E+04  0.13040263992E+04  0.00000000000E+00 0. -1.
         25    2    1    2    0    0  0.12914248019E+03 -0.16740822419E+03 -0.53349239856E+03  0.58731731675E+03  0.12499678999E+03 0.  0.
          2    1    1    2  501    0 -0.87296109458E+02  0.64424317377E+02 -0.72937428559E+03  0.73739945205E+03  0.00000000000E+00 0. -1.
          1    1    1    2  502    0 -0.41846370729E+02  0.10298390681E+03  0.29160213445E+03  0.31207147999E+03  0.00000000000E+00 0. -1.
         22    1    3    3    0    0 -0.22990092566E+02 -0.11432553983E+02 -0.36133978742E+02  0.44327328665E+02  0.00000000000E+00 0.  1.
         22    1    3    3    0    0  0.15213257275E+03 -0.15597567020E+03 -0.49735841982E+03  0.54298998808E+03  0.00000000000E+00 0.  1.
</event>
<event>
 7    1  0.6888431E-006  0.1650497E+03  0.7818608E-02  0.1365340E+00
          2   -1    0    0  502    0  0.00000000000E+00  0.00000000000E+00  0.79740960815E+03  0.79740960815E+03  0.00000000000E+00 0. -1.
          1   -1    0    0  501    0 -0.00000000000E+00 -0.00000000000E+00 -0.90570796633E+02  0.90570796633E+02  0.00000000000E+00 0. -1.
         25    2    1    2    0    0  0.14421611734E+03  0.71711072327E+02  0.32342553739E+03  0.38232226989E+03  0.12500189370E+03 0.  0.
          2    1    1    2  501    0 -0.83505470434E+01  0.27157825655E+02 -0.40605542691E+02  0.49558946997E+02  0.00000000000E+00 0. -1.
          1    1    1    2  502    0 -0.13586557029E+03 -0.98868897982E+02  0.42401881682E+03  0.45609918789E+03  0.00000000000E+00 0. -1.
         22    1    3    3    0    0  0.11874617078E+03  0.47450696727E+02  0.32272928002E+03  0.34714033168E+03  0.00000000000E+00 0.  1.
         22    1    3    3    0    0  0.25469946556E+02  0.24260375601E+02  0.69625736120E+00  0.35181938210E+02  0.00000000000E+00 0.  1.
</event>
<event>
 7    1  0.6888431E-006  0.1092846E+03  0.7818608E-02  0.1291096E+00
          2   -1    0    0  502    0  0.00000000000E+00  0.00000000000E+00  0.11660041694E+04  0.11660041694E+04  0.00000000000E+00 0. -1.
          1   -1    0    0  501    0 -0.00000000000E+00 -0.00000000000E+00 -0.32609771941E+03  0.32609771941E+03  0.00000000000E+00 0. -1.
         25    2    1    2    0    0 -0.16116452370E+03  0.20240259641E+02  0.42236563710E+03  0.46946894302E+03  0.12499874097E+03 0.  0.
          2    1    1    2  501    0  0.10187551982E+03  0.37335299173E+02 -0.29033623016E+03  0.30994785473E+03  0.00000000000E+00 0. -1.
          1    1    1    2  502    0  0.59289003880E+02 -0.57575558814E+02  0.70787704307E+03  0.71268509108E+03  0.00000000000E+00 0. -1.
         22    1    3    3    0    0 -0.14770689172E+02  0.30674682266E+02  0.20104637102E+03  0.20390868714E+03  0.00000000000E+00 0. -1.
         22    1    3    3    0    0 -0.14639383453E+03 -0.10434422625E+02  0.22131926608E+03  0.26556025588E+03  0.00000000000E+00 0. -1.
</event>
<event>
 7    1  0.6888431E-006  0.3216560E+03  0.7818608E-02  0.1196299E+00
          2   -1    0    0  502    0  0.00000000000E+00  0.00000000000E+00  0.34278272719E+04  0.34278272719E+04  0.00000000000E+00 0. -1.
          1   -1    0    0  501    0 -0.00000000000E+00 -0.00000000000E+00 -0.21244693304E+03  0.21244693304E+03  0.00000000000E+00 0. -1.
         25    2    1    2    0    0 -0.38532549204E+03 -0.98334778192E+01  0.60187594496E+03  0.72557055565E+03  0.12500218404E+03 0.  0.
          2    1    1    2  501    0  0.72813147462E+02  0.75512626629E+01 -0.13228354258E+03  0.15118767029E+03  0.00000000000E+00 0. -1.
          1    1    1    2  502    0  0.31251234458E+03  0.22822151563E+01  0.27457879365E+04  0.27635159790E+04  0.00000000000E+00 0. -1.
         22    1    3    3    0    0 -0.22091243053E+03 -0.55300635527E+02  0.40865490790E+03  0.46782400109E+03  0.00000000000E+00 0. -1.
         22    1    3    3    0    0 -0.16441306151E+03  0.45467157708E+02  0.19322103706E+03  0.25774655456E+03  0.00000000000E+00 0. -1.
</event>
<event>
 7    1  0.6888431E-006  0.1254889E+03  0.7818608E-02  0.1245382E+00
          2   -1    0    0  502    0  0.00000000000E+00  0.00000000000E+00  0.13971253223E+04  0.13971253223E+04  0.00000000000E+00 0. -1.
          1   -1    0    0  501    0 -0.00000000000E+00 -0.00000000000E+00 -0.34572252241E+03  0.34572252241E+03  0.00000000000E+00 0. -1.
         25    2    1    2    0    0 -0.17290066958E+02 -0.61373384401E+01 -0.13394572389E+02  0.12704391372E+03  0.12499651238E+03 0.  0.
          2    1    1    2  501    0 -0.10938106552E+03 -0.24708545076E+02 -0.26076065940E+03  0.28385005052E+03  0.00000000000E+00 0. -1.
          1    1    1    2  502    0  0.12667113248E+03  0.30845883516E+02  0.13255580317E+04  0.13319538805E+04  0.00000000000E+00 0. -1.
         22    1    3    3    0    0 -0.27768853881E+01 -0.45999920002E+02  0.38476455264E+02  0.60034501266E+02  0.00000000000E+00 0. -1.
         22    1    3    3    0    0 -0.14513181570E+02  0.39862581561E+02 -0.51871027653E+02  0.67009412457E+02  0.00000000000E+00 0. -1.
</event>
<event>
 7    1  0.6888431E-006  0.8961652E+02  0.7818608E-02  0.1387312E+00
          2   -1    0    0  502    0  0.00000000000E+00  0.00000000000E+00  0.34245736498E+04  0.34245736498E+04  0.00000000000E+00 0. -1.
          1   -1    0    0  501    0 -0.00000000000E+00 -0.00000000000E+00 -0.52035124787E+02  0.52035124787E+02  0.00000000000E+00 0. -1.
         25    2    1    2    0    0 -0.14923688086E+01 -0.11361257525E+03  0.39611942129E+03  0.43064247524E+03  0.12502920112E+03 0.  0.
          2    1    1    2  501    0  0.31804495669E+02  0.29970214823E+02 -0.20117887430E+02  0.48108929690E+02  0.00000000000E+00 0. -1.
          1    1    1    2  502    0 -0.30312126860E+02  0.83642360425E+02  0.29965369911E+04  0.29978573696E+04  0.00000000000E+00 0. -1.
         22    1    3    3    0    0  0.24596729429E+02  0.20621275041E+02  0.81320468413E+02  0.87425709409E+02  0.00000000000E+00 0.  1.
         22    1    3    3    0    0 -0.26089098237E+02 -0.13423385029E+03  0.31479895288E+03  0.34321676583E+03  0.00000000000E+00 0.  1.
</event>
<event>
 7    1  0.6888431E-006  0.1491197E+03  0.7818608E-02  0.1209785E+00
          2   -1    0    0  502    0  0.00000000000E+00  0.00000000000E+00  0.66624482214E+03  0.66624482214E+03  0.00000000000E+00 0. -1.
          1   -1    0    0  501    0 -0.00000000000E+00 -0.00000000000E+00 -0.59083476461E+03  0.59083476461E+03  0.00000000000E+00 0. -1.
         25    2    1    2    0    0  0.14183419080E+02 -0.15183662521E+03 -0.49648203131E+03  0.53420493621E+03  0.12499990527E+03 0.  0.
          2    1    1    2  501    0 -0.14304034509E+03  0.10682291271E+03  0.52848755372E+02  0.18618449438E+03  0.00000000000E+00 0. -1.
          1    1    1    2  502    0  0.12885692601E+03  0.45013712497E+02  0.51904333347E+03  0.53669015615E+03  0.00000000000E+00 0. -1.
         22    1    3    3    0    0  0.37173510732E+02 -0.14317039157E+03 -0.28310762568E+03  0.31942066095E+03  0.00000000000E+00 0. -1.
         22    1    3    3    0    0 -0.22990091652E+02 -0.86662336466E+01 -0.21337440563E+03  0.21478427526E+03  0.00000000000E+00 0. -1.
</event>
<event>
 7    1  0.6888431E-006  0.6301137E+02  0.7818608E-02  0.1416633E+00
          2   -1    0    0  502    0  0.00000000000E+00  0.00000000000E+00  0.68180619457E+03  0.68180619457E+03  0.00000000000E+00 0. -1.
          1   -1    0    0  501    0 -0.00000000000E+00 -0.00000000000E+00 -0.87157829100E+03  0.87157829100E+03  0.00000000000E+00 0. -1.
         25    2    1    2    0    0  0.66449182227E+02 -0.34837482284E+02  0.14993641584E+03  0.20912722563E+03  0.12499649482E+03 0.  0.
          2    1    1    2  501    0 -0.23249796092E+02  0.58607695029E+02 -0.83958785520E+03  0.84195200667E+03  0.00000000000E+00 0. -1.
          1    1    1    2  502    0 -0.43199386135E+02 -0.23770212745E+02  0.49987934293E+03  0.50230525327E+03  0.00000000000E+00 0. -1.
         22    1    3    3    0    0  0.70568232693E+02 -0.72593865981E+02  0.13398347526E+03  0.16793247597E+03  0.00000000000E+00 0. -1.
         22    1    3    3    0    0 -0.41190504657E+01  0.37756383697E+02  0.15952940580E+02  0.41194749663E+02  0.00000000000E+00 0. -1.
</event>
<event>
 7    1  0.6888431E-006  0.1857345E+03  0.7818608E-02  0.1326570E+00
          2   -1    0    0  502    0  0.00000000000E+00  0.00000000000E+00  0.13483677080E+04  0.13483677080E+04  0.00000000000E+00 0. -1.
          1   -1    0    0  501    0 -0.00000000000E+00 -0.00000000000E+00 -0.42697959901E+03  0.42697959901E+03  0.00000000000E+00 0. -1.
         25    2    1    2    0    0  0.58465180451E+02 -0.20037160362E+03 -0.12845250920E+03  0.27512183549E+03  0.12500008152E+03 0.  0.
          2    1    1    2  501    0 -0.39656868738E+02  0.17059316813E+03 -0.19085080797E+03  0.25903422004E+03  0.00000000000E+00 0. -1.
          1    1    1    2  502    0 -0.18808311713E+02  0.29778435485E+02  0.12406914262E+04  0.12411912515E+04  0.00000000000E+00 0. -1.
         22    1    3    3    0    0  0.29347717818E+02 -0.36749538050E+02 -0.94414266851E+02  0.10547924380E+03  0.00000000000E+00 0. -1.
         22    1    3    3    0    0  0.29117462633E+02 -0.16362206557E+03 -0.34038242348E+02  0.16964259169E+03  0.00000000000E+00 0. -1.
</event>
<event>
 7    1  0.6888431E-006  0.1606708E+03  0.7818608E-02  0.1387748E+00
          2   -1    0    0  502    0  0.00000000000E+00  0.00000000000E+00  0.14723362073E+04  0.14723362073E+04  0.00000000000E+00 0. -1.
          1   -1    0    0  501    0 -0.00000000000E+00 -0.00000000000E+00 -0.58225239139E+03  0.58225239139E+03  0.00000000000E+00 0. -1.
         25    2    1    2    0    0 -0.59763600463E+02 -0.13770222125E+03 -0.33400239211E+03  0.38692822660E+03  0.12498905923E+03 0.  0.
          2    1    1    2  501    0  0.67914604592E+02  0.16058277810E+03 -0.18740022411E+03  0.25596497052E+03  0.00000000000E+00 0. -1.
          1    1    1    2  502    0 -0.81510041289E+01 -0.22880556849E+02  0.14114864321E+04  0.14116954016E+04  0.00000000000E+00 0. -1.
         22    1    3    3    0    0 -0.53594586775E+02 -0.10558279817E+03 -0.33384527685E+03  0.35422136564E+03  0.00000000000E+00 0.  1.
         22    1    3    3    0    0 -0.61690136879E+01 -0.32119423077E+02 -0.15711526200E+00  0.32706860961E+02  0.00000000000E+00 0.  1.
</event>
<event>
 7    1  0.6888431E-006  0.2266937E+03  0.7818608E-02  0.1329957E+00
          2   -1    0    0  502    0  0.00000000000E+00  0.00000000000E+00  0.18402983484E+04  0.18402983484E+04  0.00000000000E+00 0. -1.
          1   -1    0    0  501    0 -0.00000000000E+00 -0.00000000000E+00 -0.12611550378E+04  0.12611550378E+04  0.00000000000E+00 0. -1.
         25    2    1    2    0    0  0.15177087568E+03 -0.13299860182E+03  0.89418105372E+03  0.92515315063E+03  0.12500227396E+03 0.  0.
          2    1    1    2  501    0 -0.17899606839E+03  0.13957274025E+03 -0.12351142727E+04  0.12557975191E+04  0.00000000000E+00 0. -1.
          1    1    1    2  502    0  0.27225192707E+02 -0.65741384302E+01  0.92007652964E+03  0.92050271635E+03  0.00000000000E+00 0. -1.
         22    1    3    3    0    0  0.12224577564E+03 -0.10024533627E+03  0.41738132095E+03  0.44631863526E+03  0.00000000000E+00 0. -1.
         22    1    3    3    0    0  0.29525100044E+02 -0.32753265553E+02  0.47679973277E+03  0.47883451537E+03  0.00000000000E+00 0. -1.
</event>
<event>
 7    1  0.7664616E-006  0.9283780E+02  0.7818608E-02  0.1433565E+00
          2   -1    0    0  502    0  0.00000000000E+00  0.00000000000E+00  0.15556307811E+04  0.15556307811E+04  0.00000000000E+00 0. -1.
          1   -1    0    0  501    0 -0.00000000000E+00 -0.00000000000E+00 -0.14932469963E+04  0.14932469963E+04  0.00000000000E+00 0. -1.
         25    2    1    2    0    0  0.23281560234E+02  0.11515643781E+03 -0.21410842270E+03  0.27435493845E+03  0.12500071745E+03 0.  0.
          2    1    1    2  501    0 -0.18866852144E+02 -0.22558223785E+02 -0.12474334872E+04  0.12477800834E+04  0.00000000000E+00 0. -1.
          1    1    1    2  502    0 -0.44147080898E+01 -0.92598214021E+02  0.15239256947E+04  0.15267427556E+04  0.00000000000E+00 0. -1.
         22    1    3    3    0    0 -0.30521286415E+02  0.11298733477E+03 -0.15753659858E+03  0.19625357738E+03  0.00000000000E+00 0.  1.
         22    1    3    3    0    0  0.53802846649E+02  0.21691030331E+01 -0.56571824121E+02  0.78101361063E+02  0.00000000000E+00 0.  1.
</event>
<event>
 7    1  0.6888431E-006  0.1946153E+03  0.7818608E-02  0.1384810E+00
          2   -1    0    0  502    0  0.00000000000E+00  0.00000000000E+00  0.24945502274E+04  0.24945502274E+04  0.00000000000E+00 0. -1.
          1   -1    0    0  501    0 -0.00000000000E+00 -0.00000000000E+00 -0.38914039676E+03  0.38914039676E+03  0.00000000000E+00 0. -1.
         25    2    1    2    0    0  0.10981747089E+03  0.13744177286E+03 -0.64387841572E+01  0.21590361882E+03  0.12499118704E+03 0.  0.
          2    1    1    2  501    0  0.17628646007E+02  0.10530433904E+02 -0.27359413299E+03  0.27436364337E+03  0.00000000000E+00 0. -1.
          1    1    1    2  502    0 -0.12744611690E+03 -0.14797220676E+03  0.23854427478E+04  0.23934233620E+04  0.00000000000E+00 0. -1.
         22    1    3    3    0    0  0.10994266447E+03  0.47520406912E+02 -0.28918877669E+02  0.12321477196E+03  0.00000000000E+00 0. -1.
         22    1    3    3    0    0 -0.12519357467E+00  0.89921365948E+02  0.22480093512E+02  0.92688846858E+02  0.00000000000E+00 0. -1.
</event>
<event>
 7    1  0.9536693E-006  0.8308515E+02  0.7818608E-02  0.1351996E+00
          2   -1    0    0  502    0  0.00000000000E+00  0.00000000000E+00  0.19673928530E+04  0.19673928530E+04  0.00000000000E+00 0. -1.
          1   -1    0    0  501    0 -0.00000000000E+00 -0.00000000000E+00 -0.15736724251E+04  0.15736724251E+04  0.00000000000E+00 0. -1.
         25    2    1    2    0    0  0.45542824557E+02  0.12342755746E+03 -0.16595808062E+03  0.24591708987E+03  0.12499847902E+03 0.  0.
          2    1    1    2  501    0 -0.54675435832E+02 -0.60937523964E+02 -0.13659915586E+04  0.13684428096E+04  0.00000000000E+00 0. -1.
          1    1    1    2  502    0  0.91326112749E+01 -0.62490033500E+02  0.19256700671E+04  0.19267053787E+04  0.00000000000E+00 0. -1.
         22    1    3    3    0    0  0.79943429415E+02  0.36853445587E+02 -0.87551857933E+02  0.12415496843E+03  0.00000000000E+00 0.  1.
         22    1    3    3    0    0 -0.34400604857E+02  0.86574111877E+02 -0.78406222682E+02  0.12176212144E+03  0.00000000000E+00 0.  1.
</event>
<event>
 7    1  0.6888431E-006  0.6102791E+02  0.7818608E-02  0.1465708E+00
          2   -1    0    0  502    0  0.00000000000E+00  0.00000000000E+00  0.27988531145E+02  0.27988531145E+02  0.00000000000E+00 0. -1.
          1   -1    0    0  501    0 -0.00000000000E+00 -0.00000000000E+00 -0.11823618819E+04  0.11823618819E+04  0.00000000000E+00 0. -1.
         25    2    1    2    0    0  0.84325980656E+01  0.68855636477E+02 -0.47784932748E+03  0.49877550743E+03  0.12499927862E+03 0.  0.
          2    1    1    2  501    0 -0.37198270112E+02 -0.48398355929E+02 -0.67337546017E+03  0.67613654133E+03  0.00000000000E+00 0. -1.
          1    1    1    2  502    0  0.28765672047E+02 -0.20457280548E+02 -0.31485631333E+01  0.35438364318E+02  0.00000000000E+00 0. -1.
         22    1    3    3    0    0  0.13340336300E+02  0.57593872880E+00 -0.37493727094E+03  0.37517496374E+03  0.00000000000E+00 0.  1.
         22    1    3    3    0    0 -0.49077382340E+01  0.68279697748E+02 -0.10291205654E+03  0.12360054369E+03  0.00000000000E+00 0.  1.
</event>
<event>
 7    1  0.6888431E-006  0.7983645E+02  0.7818608E-02  0.1335351E+00
          2   -1    0    0  502    0  0.00000000000E+00  0.00000000000E+00  0.25659733279E+04  0.25659733279E+04  0.00000000000E+00 0. -1.
          1   -1    0    0  501    0 -0.00000000000E+00 -0.00000000000E+00 -0.12933044901E+02  0.12933044901E+02  0.00000000000E+00 0. -1.
         25    2    1    2    0    0 -0.14772266912E+02  0.22450465366E+01  0.72575745361E+03  0.73659513035E+03  0.12500097788E+03 0.  0.
          2    1    1    2  501    0 -0.66365422712E+02 -0.44378924236E+02  0.25126028022E+03  0.26363912203E+03  0.00000000000E+00 0. -1.
          1    1    1    2  502    0  0.81137689624E+02  0.42133877700E+02  0.15760225491E+04  0.15786721204E+04  0.00000000000E+00 0. -1.
         22    1    3    3    0    0 -0.43753344801E+02  0.53779616506E+01  0.90461928205E+02  0.10063119848E+03  0.00000000000E+00 0. -1.
         22    1    3    3    0    0  0.28981077889E+02 -0.31329151139E+01  0.63529552541E+03  0.63596393187E+03  0.00000000000E+00 0. -1.
</event>
<event>
 7    1  0.6888431E-006  0.8786909E+02  0.7818608E-02  0.1392333E+00
          2   -1    0    0  502    0  0.00000000000E+00  0.00000000000E+00  0.10833284272E+04  0.10833284272E+04  0.00000000000E+00 0. -1.
          1   -1    0    0  501    0 -0.00000000000E+00 -0.00000000000E+00 -0.14695184767E+04  0.14695184767E+04  0.00000000000E+00 0. -1.
         25    2    1    2    0    0 -0.66142755558E+02  0.63294152656E+02 -0.20753522109E+03  0.25899189997E+03  0.12499968953E+03 0.  0.
          2    1    1    2  501    0  0.84705983830E+02 -0.24721979160E+02 -0.12342459954E+04  0.12373962410E+04  0.00000000000E+00 0. -1.
          1    1    1    2  502    0 -0.18563228272E+02 -0.38572173495E+02  0.10555911670E+04  0.10564587629E+04  0.00000000000E+00 0. -1.
         22    1    3    3    0    0  0.33927157416E+02  0.11853271321E+02 -0.22402923662E+02  0.42349061854E+02  0.00000000000E+00 0. -1.
         22    1    3    3    0    0 -0.10006991297E+03  0.51440881334E+02 -0.18513229743E+03  0.21664283812E+03  0.00000000000E+00 0. -1.
</event>
<event>
 7    1  0.6888431E-006  0.1014025E+03  0.7818608E-02  0.1376329E+00
          2   -1    0    0  502    0  0.00000000000E+00  0.00000000000E+00  0.10102526390E+03  0.10102526390E+03  0.00000000000E+00 0. -1.
          1   -1    0    0  501    0 -0.00000000000E+00 -0.00000000000E+00 -0.77816858795E+03  0.77816858795E+03  0.00000000000E+00 0. -1.
         25    2    1    2    0    0 -0.67441432934E+02 -0.79471698051E+01 -0.53881642722E+03  0.55727829086E+03  0.12499778733E+03 0.  0.
          2    1    1    2  501    0 -0.28074407936E+02 -0.31546726360E+02 -0.19807730823E+03  0.20252898153E+03  0.00000000000E+00 0. -1.
          1    1    1    2  502    0  0.95515840870E+02  0.39493896165E+02  0.59750411402E+02  0.11938657946E+03  0.00000000000E+00 0. -1.
         22    1    3    3    0    0 -0.71238826080E+02  0.34797970655E+02 -0.46648698642E+03  0.47317647617E+03  0.00000000000E+00 0.  1.
         22    1    3    3    0    0  0.37973931453E+01 -0.42745140460E+02 -0.72329440802E+02  0.84101814691E+02  0.00000000000E+00 0.  1.
</event>
<event>
 7    1  0.6888431E-006  0.4614675E+02  0.7818608E-02  0.1534263E+00
          2   -1    0    0  502    0  0.00000000000E+00  0.00000000000E+00  0.21243339095E+03  0.21243339095E+03  0.00000000000E+00 0. -1.
          1   -1    0    0  501    0 -0.00000000000E+00 -0.00000000000E+00 -0.13288579483E+04  0.13288579483E+04  0.00000000000E+00 0. -1.
         25    2    1    2    0    0  0.36000225419E+02 -0.56762881205E+02 -0.20351830353E+03  0.24812131470E+03  0.12500578397E+03 0.  0.
          2    1    1    2  501    0 -0.94304195653E+01  0.44803784011E+02 -0.11014434381E+04  0.11023946477E+04  0.00000000000E+00 0. -1.
          1    1    1    2  502    0 -0.26569805854E+02  0.11959097195E+02  0.18853718425E+03  0.19077537691E+03  0.00000000000E+00 0. -1.
         22    1    3    3    0    0 -0.14877283266E+02 -0.51365341163E+02 -0.18678811352E+03  0.19429238581E+03  0.00000000000E+00 0.  1.
         22    1    3    3    0    0  0.50877508685E+02 -0.53975400425E+01 -0.16730190014E+02  0.53828928899E+02  0.00000000000E+00 0.  1.
</event>
<event>
 7    1  0.6888431E-006  0.6839396E+02  0.7818608E-02  0.1385669E+00
          2   -1    0    0  502    0  0.00000000000E+00  0.00000000000E+00  0.11166654358E+04  0.11166654358E+04  0.00000000000E+00 0. -1.
          1   -1    0    0  501    0 -0.00000000000E+00 -0.00000000000E+00 -0.16001557434E+03  0.16001557434E+03  0.00000000000E+00 0. -1.
         25    2    1    2    0    0 -0.93647540447E+02  0.78338794940E+02  0.14276935096E+03  0.22564245344E+03  0.12499840239E+03 0.  0.
          2    1    1    2  501    0  0.34891149767E+02 -0.46363548466E+02 -0.11019831100E+03  0.12454171472E+03  0.00000000000E+00 0. -1.
          1    1    1    2  502    0  0.58756390680E+02 -0.31975246474E+02  0.92407882154E+03  0.92649684201E+03  0.00000000000E+00 0. -1.
         22    1    3    3    0    0 -0.11292569466E+03  0.80303244048E+02  0.15068374762E+03  0.20471056474E+03  0.00000000000E+00 0.  1.
         22    1    3    3    0    0  0.19278154215E+02 -0.19644491081E+01 -0.79143966624E+01  0.20931888706E+02  0.00000000000E+00 0.  1.
</event>
<event>
 7    1  0.6888431E-006  0.3157919E+02  0.7818608E-02  0.1620575E+00
          2   -1    0    0  502    0  0.00000000000E+00  0.00000000000E+00  0.76987764093E+02  0.76987764093E+02  0.00000000000E+00 0. -1.
          1   -1    0    0  501    0 -0.00000000000E+00 -0.00000000000E+00 -0.32856229163E+03  0.32856229163E+03  0.00000000000E+00 0. -1.
         25    2    1    2    0    0 -0.10020210552E+02 -0.23277869101E+02 -0.10017597542E+03  0.16218237348E+03  0.12500252961E+03 0.  0.
          2    1    1    2  501    0  0.30793939093E+02  0.94888948358E+01 -0.19256322381E+03  0.19524062327E+03  0.00000000000E+00 0. -1.
          1    1    1    2  502    0 -0.20773728540E+02  0.13788974265E+02  0.41164671698E+02  0.48127058966E+02  0.00000000000E+00 0. -1.
         22    1    3    3    0    0 -0.28740868495E+02 -0.43977127296E+02 -0.11793142082E+03  0.12910400948E+03  0.00000000000E+00 0.  1.
         22    1    3    3    0    0  0.18720657943E+02  0.20699258195E+02  0.17755445402E+02  0.33078364002E+02  0.00000000000E+00 0.  1.
</event>
<event>
 7    1  0.6888431E-006  0.7406624E+02  0.7818608E-02  0.1364266E+00
          2   -1    0    0  502    0  0.00000000000E+00  0.00000000000E+00  0.25436500204E+04  0.25436500204E+04  0.00000000000E+00 0. -1.
          1   -1    0    0  501    0 -0.00000000000E+00 -0.00000000000E+00 -0.70508145520E+03  0.70508145520E+03  0.00000000000E+00 0. -1.
         25    2    1    2    0    0  0.89863373910E+02 -0.91124607689E+02 -0.71352269387E+02  0.19257534244E+03  0.12495997788E+03 0.  0.
          2    1    1    2  501    0 -0.59248407069E+02  0.23893087118E+02 -0.57078579573E+03  0.57434978712E+03  0.00000000000E+00 0. -1.
          1    1    1    2  502    0 -0.30614966841E+02  0.67231520571E+02  0.24807066303E+04  0.24818063460E+04  0.00000000000E+00 0. -1.
         22    1    3    3    0    0  0.10524833745E+03 -0.93969431042E+02 -0.24532694061E+02  0.14321075233E+03  0.00000000000E+00 0.  1.
         22    1    3    3    0    0 -0.15384963535E+02  0.28448233529E+01 -0.46819575325E+02  0.49364590108E+02  0.00000000000E+00 0.  1.
</event>
<event>
 7    1  0.6888431E-006  0.6172654E+02  0.7818608E-02  0.1408505E+00
          2   -1    0    0  502    0  0.00000000000E+00  0.00000000000E+00  0.20645377959E+03  0.20645377959E+03  0.00000000000E+00 0. -1.
          1   -1    0    0  501    0 -0.00000000000E+00 -0.00000000000E+00 -0.48343545490E+03  0.48343545490E+03  0.00000000000E+00 0. -1.
         25    2    1    2    0    0  0.28389978836E+02  0.12098930705E+02 -0.25471347837E+03  0.28542893606E+03  0.12505337443E+03 0.  0.
          2    1    1    2  501    0 -0.46665713896E+02 -0.62504395319E+02 -0.20219256428E+03  0.21671714592E+03  0.00000000000E+00 0. -1.
          1    1    1    2  502    0  0.18275735060E+02  0.50405464614E+02  0.17992436733E+03  0.18774315251E+03  0.00000000000E+00 0. -1.
         22    1    3    3    0    0  0.18568513745E+02 -0.25057647666E+02 -0.36038855939E+01  0.31395276725E+02  0.00000000000E+00 0.  1.
         22    1    3    3    0    0  0.98214650907E+01  0.37156578371E+02 -0.25110959277E+03  0.25403365934E+03  0.00000000000E+00 0.  1.
</event>
<event>
 7    1  0.6888431E-006  0.1433734E+03  0.7818608E-02  0.1306662E+00
          2   -1    0    0  502    0  0.00000000000E+00  0.00000000000E+00  0.97838200469E+03  0.97838200469E+03  0.00000000000E+00 0. -1.
          1   -1    0    0  501    0 -0.00000000000E+00 -0.00000000000E+00 -0.77954014406E+03  0.77954014406E+03  0.00000000000E+00 0. -1.
         25    2    1    2    0    0 -0.19003482959E+03  0.30356311181E+02  0.88644623021E+02  0.24600261433E+03  0.12499869991E+03 0.  0.
          2    1    1    2  501    0  0.14120493934E+03 -0.60154141711E+01 -0.69280083323E+03  0.70707002102E+03  0.00000000000E+00 0. -1.
          1    1    1    2  502    0  0.48829890249E+02 -0.24340897010E+02  0.80299807084E+03  0.80484951340E+03  0.00000000000E+00 0. -1.
         22    1    3    3    0    0 -0.16422574912E+03  0.43159387485E+02  0.19280668838E+02  0.17089345684E+03  0.00000000000E+00 0. -1.
         22    1    3    3    0    0 -0.25809080474E+02 -0.12803076304E+02  0.69363954183E+02  0.75109157482E+02  0.00000000000E+00 0. -1.
</event>
<event>
 7    1  0.6888431E-006  0.1063908E+03  0.7818608E-02  0.1372430E+00
          2   -1    0    0  502    0  0.00000000000E+00  0.00000000000E+00  0.32818500512E+02  0.32818500512E+02  0.00000000000E+00 0. -1.
          1   -1    0    0  501    0 -0.00000000000E+00 -0.00000000000E+00 -0.34877219307E+04  0.34877219307E+04  0.00000000000E+00 0. -1.
         25    2    1    2    0    0  0.13210020219E+03  0.24659934664E+02 -0.99899667323E+03  0.10157151568E+04  0.12499740326E+03 0.  0.
          2    1    1    2  501    0 -0.28568109698E+02 -0.30186347136E+02 -0.23694882130E+04  0.23698526840E+04  0.00000000000E+00 0. -1.
          1    1    1    2  502    0 -0.10353209250E+03  0.55264124723E+01 -0.86418543908E+02  0.13497259034E+03  0.00000000000E+00 0. -1.
         22    1    3    3    0    0  0.12410439076E+03 -0.13355306842E+01 -0.47287688183E+03  0.48889286026E+03  0.00000000000E+00 0. -1.
         22    1    3    3    0    0  0.79958114341E+01  0.25995465348E+02 -0.52611979140E+03  0.52682229653E+03  0.00000000000E+00 0. -1.
</event>
<event>
 7    1  0.6888431E-006  0.5688484E+02  0.7818608E-02  0.1474800E+00
          2   -1    0    0  502    0  0.00000000000E+00  0.00000000000E+00  0.31211553123E+03  0.31211553123E+03  0.00000000000E+00 0. -1.
          1   -1    0    0  501    0 -0.00000000000E+00 -0.00000000000E+00 -0.10516282784E+03  0.10516282784E+03  0.00000000000E+00 0. -1.
         25    2    1    2    0    0 -0.57838698363E+02 -0.11096755029E+02  0.24028103582E+03  0.27717838508E+03  0.12499771191E+03 0.  0.
          2    1    1    2  501    0  0.15572883951E+02 -0.31882372140E+02 -0.63462344225E+02  0.72708111668E+02  0.00000000000E+00 0. -1.
          1    1    1    2  502    0  0.42265814412E+02  0.42979127169E+02  0.30134011798E+02  0.67391862321E+02  0.00000000000E+00 0. -1.
         22    1    3    3    0    0 -0.52422936228E+02 -0.61697958347E+02  0.10463281457E+03  0.13229825468E+03  0.00000000000E+00 0.  1.
         22    1    3    3    0    0 -0.54157621348E+01  0.50601203318E+02  0.13564822125E+03  0.14488013040E+03  0.00000000000E+00 0.  1.
</event>
<event>
 7    1  0.6888431E-006  0.1556850E+03  0.7818608E-02  0.1221716E+00
          2   -1    0    0  502    0  0.00000000000E+00  0.00000000000E+00  0.15350890177E+03  0.15350890177E+03  0.00000000000E+00 0. -1.
          1   -1    0    0  501    0 -0.00000000000E+00 -0.00000000000E+00 -0.21260791089E+04  0.21260791089E+04  0.00000000000E+00 0. -1.
         25    2    1    2    0    0 -0.56291976971E+02  0.24490523286E+03 -0.74328719281E+03  0.79451124836E+03  0.12499965204E+03 0.  0.
          2    1    1    2  501    0  0.65832220979E+02 -0.94587461656E+02 -0.13094087743E+04  0.13144702384E+04  0.00000000000E+00 0. -1.
          1    1    1    2  502    0 -0.95402440071E+01 -0.15031777121E+03  0.80125760018E+02  0.17060652395E+03  0.00000000000E+00 0. -1.
         22    1    3    3    0    0 -0.60966532977E+02  0.16729847138E+03 -0.64535904408E+03  0.66947292136E+03  0.00000000000E+00 0. -1.
         22    1    3    3    0    0  0.46745560055E+01  0.77606761487E+02 -0.97928148737E+02  0.12503832699E+03  0.00000000000E+00 0. -1.
</event>
<event>
 7    1  0.6888431E-006  0.4049966E+03  0.7818608E-02  0.1126461E+00
          2   -1    0    0  502    0  0.00000000000E+00  0.00000000000E+00  0.27451142340E+03  0.27451142340E+03  0.00000000000E+00 0. -1.
          1   -1    0    0  501    0 -0.00000000000E+00 -0.00000000000E+00 -0.14090731791E+04  0.14090731791E+04  0.00000000000E+00 0. -1.
         25    2    1    2    0    0 -0.26062845801E+03 -0.41367577701E+03 -0.31647242502E+03  0.59567986101E+03  0.12499943758E+03 0.  0.
          2    1    1    2  501    0  0.57444786289E+02  0.11762939134E+03 -0.69667697338E+03  0.70886908694E+03  0.00000000000E+00 0. -1.
          1    1    1    2  502    0  0.20318367172E+03  0.29604638567E+03 -0.12141235732E+03  0.37903565457E+03  0.00000000000E+00 0. -1.
         22    1    3    3    0    0 -0.22031494135E+03 -0.39176103123E+03 -0.24824987545E+03  0.51346215015E+03  0.00000000000E+00 0.  1.
         22    1    3    3    0    0 -0.40313516667E+02 -0.21914745780E+02 -0.68222549573E+02  0.82217710859E+02  0.00000000000E+00 0.  1.
</event>
<event>
 7    1  0.6888431E-006  0.1434421E+03  0.7818608E-02  0.1270457E+00
          2   -1    0    0  502    0  0.00000000000E+00  0.00000000000E+00  0.10596582431E+04  0.10596582431E+04  0.00000000000E+00 0. -1.
          1   -1    0    0  501    0 -0.00000000000E+00 -0.00000000000E+00 -0.88176083306E+03  0.88176083306E+03  0.00000000000E+00 0. -1.
         25    2    1    2    0    0 -0.11308250680E+03 -0.13155805623E+03  0.49395036177E+03  0.53824437730E+03  0.12499949720E+03 0.  0.
          2    1    1    2  501    0  0.36786384209E+02  0.13848918121E+03 -0.85089390092E+03  0.86287480089E+03  0.00000000000E+00 0. -1.
          1    1    1    2  502    0  0.76296122589E+02 -0.69311249750E+01  0.53484094915E+03  0.54029989793E+03  0.00000000000E+00 0. -1.
         22    1    3    3    0    0 -0.80320407044E+02 -0.11644979530E+03  0.21754997492E+03  0.25949935299E+03  0.00000000000E+00 0.  1.
         22    1    3    3    0    0 -0.32762099755E+02 -0.15108260931E+02  0.27640038684E+03  0.27874502431E+03  0.00000000000E+00 0.  1.
</event>
<event>
 7    1  0.6888431E-006  0.9733812E+02  0.7818608E-02  0.1390726E+00
          2   -1    0    0  502    0  0.00000000000E+00  0.00000000000E+00  0.88858724112E+03  0.88858724112E+03  0.00000000000E+00 0. -1.
          1   -1    0    0  501    0 -0.00000000000E+00 -0.00000000000E+00 -0.76505446531E+02  0.76505446531E+02  0.00000000000E+00 0. -1.
         25    2    1    2    0    0  0.58729350739E+02 -0.56879993742E+02  0.20946023692E+03  0.25725997471E+03  0.12499853363E+03 0.  0.
          2    1    1    2  501    0 -0.17478257371E+02 -0.35024555638E+02 -0.40818818408E+02  0.56554265221E+02  0.00000000000E+00 0. -1.
          1    1    1    2  502    0 -0.41251093369E+02  0.91904549381E+02  0.64344037608E+03  0.65127844772E+03  0.00000000000E+00 0. -1.
         22    1    3    3    0    0 -0.14459121171E+02  0.29220711509E+02  0.73929345758E+02  0.80798912928E+02  0.00000000000E+00 0. -1.
         22    1    3    3    0    0  0.73188471910E+02 -0.86100705251E+02  0.13553089116E+03  0.17646106178E+03  0.00000000000E+00 0. -1.
</event>
<event>
 7    1  0.6888431E-006  0.1394981E+03  0.7818608E-02  0.1377516E+00
          2   -1    0    0  502    0  0.00000000000E+00  0.00000000000E+00  0.91464227649E+03  0.91464227649E+03  0.00000000000E+00 0. -1.
          1   -1    0    0  501    0 -0.00000000000E+00 -0.00000000000E+00 -0.14300301560E+04  0.14300301560E+04  0.00000000000E+00 0. -1.
         25    2    1    2    0    0  0.28956658207E+02  0.16496535174E+03 -0.17192655118E+03  0.27062116340E+03  0.12500007900E+03 0.  0.
          2    1    1    2  501    0 -0.20606510662E+02 -0.13573445734E+03 -0.12045888955E+04  0.12123872642E+04  0.00000000000E+00 0. -1.
          1    1    1    2  502    0 -0.83501475454E+01 -0.29230894405E+02  0.86112756725E+03  0.86166400483E+03  0.00000000000E+00 0. -1.
         22    1    3    3    0    0 -0.31604187073E+02  0.13298911110E+03 -0.13782923245E+03  0.19411807137E+03  0.00000000000E+00 0.  1.
         22    1    3    3    0    0  0.60560845280E+02  0.31976240642E+02 -0.34097318728E+02  0.76503092036E+02  0.00000000000E+00 0.  1.
</event>
<event>
 7    1  0.6888431E-006  0.1064785E+03  0.7818608E-02  0.1440089E+00
          2   -1    0    0  502    0  0.00000000000E+00  0.00000000000E+00  0.13358662858E+04  0.13358662858E+04  0.00000000000E+00 0. -1.
          1   -1    0    0  501    0 -0.00000000000E+00 -0.00000000000E+00 -0.17985396077E+03  0.17985396077E+03  0.00000000000E+00 0. -1.
         25    2    1    2    0    0 -0.51648851959E+02  0.66161048802E+02  0.23899477568E+03  0.28246500500E+03  0.12499235161E+03 0.  0.
          2    1    1    2  501    0  0.69686663558E+02 -0.82615183415E+02 -0.13949182891E+03  0.17646379216E+03  0.00000000000E+00 0. -1.
          1    1    1    2  502    0 -0.18037811599E+02  0.16454134613E+02  0.10565093783E+04  0.10567914494E+04  0.00000000000E+00 0. -1.
         22    1    3    3    0    0  0.33022408257E+02  0.25967570800E+02  0.25101385878E+02  0.48937447352E+02  0.00000000000E+00 0.  1.
         22    1    3    3    0    0 -0.84671260216E+02  0.40193478002E+02  0.21389338980E+03  0.23352755765E+03  0.00000000000E+00 0.  1.
</event>
<event>
 7    1  0.6888431E-006  0.5685811E+02  0.7818608E-02  0.1511787E+00
          2   -1    0    0  502    0  0.00000000000E+00  0.00000000000E+00  0.33445037271E+03  0.33445037271E+03  0.00000000000E+00 0. -1.
          1   -1    0    0  501    0 -0.00000000000E+00 -0.00000000000E+00 -0.50696001094E+03  0.50696001094E+03  0.00000000000E+00 0. -1.
         25    2    1    2    0    0  0.44728185033E+02 -0.28797064387E+02 -0.27427784010E+02  0.13858929607E+03  0.12499931278E+03 0.  0.
          2    1    1    2  501    0 -0.27478388121E+02  0.50171169462E+02 -0.42133774885E+03  0.42520313576E+03  0.00000000000E+00 0. -1.
          1    1    1    2  502    0 -0.17249796912E+02 -0.21374105075E+02  0.27625589462E+03  0.27761795182E+03  0.00000000000E+00 0. -1.
         22    1    3    3    0    0  0.44383318790E+01 -0.20833181297E+02 -0.73702072621E+02  0.76718418528E+02  0.00000000000E+00 0.  1.
         22    1    3    3    0    0  0.40289853154E+02 -0.79638830906E+01  0.46274288611E+02  0.61870877539E+02  0.00000000000E+00 0.  1.
</event>
<event>
 7    1  0.6888431E-006  0.6245378E+02  0.7818608E-02  0.1404123E+00
          2   -1    0    0  502    0  0.00000000000E+00  0.00000000000E+00  0.12331081349E+03  0.12331081349E+03  0.00000000000E+00 0. -1.
          1   -1    0    0  501    0 -0.00000000000E+00 -0.00000000000E+00 -0.23651642466E+03  0.23651642466E+03  0.00000000000E+00 0. -1.
         25    2    1    2    0    0  0.13281298584E+02 -0.55165700654E+01 -0.69712747053E+02  0.14384373088E+03  0.12499730547E+03 0.  0.
          2    1    1    2  501    0  0.51242746354E+02 -0.19549988771E+02 -0.10814985466E+03  0.12126175068E+03  0.00000000000E+00 0. -1.
          1    1    1    2  502    0 -0.64524044938E+02  0.25066558837E+02  0.64656990542E+02  0.94721756598E+02  0.00000000000E+00 0. -1.
         22    1    3    3    0    0  0.31064808178E+02  0.31446853004E+02  0.17441035470E+02  0.47519644246E+02  0.00000000000E+00 0.  1.
         22    1    3    3    0    0 -0.17783509594E+02 -0.36963423069E+02 -0.87153782522E+02  0.96324086637E+02  0.00000000000E+00 0.  1.
</event>
<event>
 7    1  0.6888431E-006  0.2015036E+03  0.7818608E-02  0.1181275E+00
          2   -1    0    0  502    0  0.00000000000E+00  0.00000000000E+00  0.35230068694E+03  0.35230068694E+03  0.00000000000E+00 0. -1.
          1   -1    0    0  501    0 -0.00000000000E+00 -0.00000000000E+00 -0.93686415441E+03  0.93686415441E+03  0.00000000000E+00 0. -1.
         25    2    1    2    0    0 -0.63987080959E+02  0.20161061108E+03 -0.18873690515E+02  0.24639648727E+03  0.12495530288E+03 0.  0.
          2    1    1    2  501    0  0.13790961298E+03 -0.49386471987E+01 -0.75041888840E+03  0.76300193949E+03  0.00000000000E+00 0. -1.
          1    1    1    2  502    0 -0.73922532026E+02 -0.19667196388E+03  0.18472911144E+03  0.27976641459E+03  0.00000000000E+00 0. -1.
         22    1    3    3    0    0  0.27145126704E+01 -0.14071077510E+02  0.11798000198E+02  0.18562236127E+02  0.00000000000E+00 0. -1.
         22    1    3    3    0    0 -0.66701593629E+02  0.21568168859E+03 -0.30671690714E+02  0.22783425115E+03  0.00000000000E+00 0. -1.
</event>
<event>
 7    1  0.6888431E-006  0.6540129E+02  0.7818608E-02  0.1411833E+00
          2   -1    0    0  502    0  0.00000000000E+00  0.00000000000E+00  0.22804911061E+02  0.22804911061E+02  0.00000000000E+00 0. -1.
          1   -1    0    0  501    0 -0.00000000000E+00 -0.00000000000E+00 -0.80657782931E+03  0.80657782931E+03  0.00000000000E+00 0. -1.
         25    2    1    2    0    0  0.59613055540E+02 -0.88075726488E+01 -0.32429066803E+03  0.35271507079E+03  0.12494876574E+03 0.  0.
          2    1    1    2  501    0 -0.95578038798E+01 -0.48371632596E+02 -0.21817415085E+03  0.22367638801E+03  0.00000000000E+00 0. -1.
          1    1    1    2  502    0 -0.50055251660E+02  0.57179205245E+02 -0.24130809936E+03  0.25299128156E+03  0.00000000000E+00 0. -1.
         22    1    3    3    0    0 -0.25579445365E+02  0.87704702970E+01 -0.13977053955E+02  0.30439895067E+02  0.00000000000E+00 0.  1.
         22    1    3    3    0    0  0.85192500905E+02 -0.17578042946E+02 -0.31031361408E+03  0.32227517572E+03  0.00000000000E+00 0.  1.
</event>
<event>
 7    1  0.6888431E-006  0.2039975E+03  0.7818608E-02  0.1181584E+00
          2   -1    0    0  502    0  0.00000000000E+00  0.00000000000E+00  0.47201182794E+03  0.47201182794E+03  0.00000000000E+00 0. -1.
          1   -1    0    0  501    0 -0.00000000000E+00 -0.00000000000E+00 -0.11709349229E+04  0.11709349229E+04  0.00000000000E+00 0. -1.
         25    2    1    2    0    0  0.98208384701E+02 -0.14248590423E+03 -0.26990613974E+03  0.34412163995E+03  0.12499303613E+03 0.  0.
          2    1    1    2  501    0 -0.11855565729E+03 -0.66311015882E+02 -0.83279504569E+03  0.84380103273E+03  0.00000000000E+00 0. -1.
          1    1    1    2  502    0  0.20347272585E+02  0.20879692011E+03  0.40377809048E+03  0.45502407815E+03  0.00000000000E+00 0. -1.
         22    1    3    3    0    0 -0.15457907061E+02 -0.19506027669E+02 -0.10927442588E+03  0.11207288770E+03  0.00000000000E+00 0.  1.
         22    1    3    3    0    0  0.11366629176E+03 -0.12297987656E+03 -0.16063171386E+03  0.23204875225E+03  0.00000000000E+00 0.  1.
</event>
<event>
 7    1  0.6888431E-006  0.7812079E+02  0.7818608E-02  0.1379667E+00
          2   -1    0    0  502    0  0.00000000000E+00  0.00000000000E+00  0.26011145280E+04  0.26011145280E+04  0.00000000000E+00 0. -1.
          1   -1    0    0  501    0 -0.00000000000E+00 -0.00000000000E+00 -0.67638068290E+02  0.67638068290E+02  0.00000000000E+00 0. -1.
         25    2    1    2    0    0  0.75009405904E+02 -0.37136747713E+02  0.32380425425E+03  0.35704187054E+03  0.12499661293E+03 0.  0.
          2    1    1    2  501    0  0.19135317802E+01  0.53304693624E+02 -0.36200194250E+02  0.64463214548E+02  0.00000000000E+00 0. -1.
          1    1    1    2  502    0 -0.76922937684E+02 -0.16167945910E+02  0.22458723997E+04  0.22472475112E+04  0.00000000000E+00 0. -1.
         22    1    3    3    0    0  0.38188534220E+02 -0.12903413125E+02  0.11887546005E+02  0.42025896375E+02  0.00000000000E+00 0.  1.
         22    1    3    3    0    0  0.36820871684E+02 -0.24233334588E+02  0.31191670825E+03  0.31501597417E+03  0.00000000000E+00 0.  1.
</event>
<event>
 7    1  0.6888431E-006  0.7173296E+02  0.7818608E-02  0.1362473E+00
          2   -1    0    0  502    0  0.00000000000E+00  0.00000000000E+00  0.21908979480E+04  0.21908979480E+04  0.00000000000E+00 0. -1.
          1   -1    0    0  501    0 -0.00000000000E+00 -0.00000000000E+00 -0.86252983414E+03  0.86252983414E+03  0.00000000000E+00 0. -1.
         25    2    1    2    0    0  0.19356136468E+02  0.59152975881E+02  0.86187285423E+02  0.16409474809E+03  0.12500041444E+03 0.  0.
          2    1    1    2  501    0  0.47439179949E+02 -0.54473152656E+02 -0.82144815638E+03  0.82461801689E+03  0.00000000000E+00 0. -1.
          1    1    1    2  502    0 -0.66795316418E+02 -0.46798232254E+01  0.20636289848E+04  0.20647150172E+04  0.00000000000E+00 0. -1.
         22    1    3    3    0    0  0.34864784144E+02 -0.21252336151E+02  0.69375421637E+02  0.80499466412E+02  0.00000000000E+00 0. -1.
         22    1    3    3    0    0 -0.15508647675E+02  0.80405312032E+02  0.16811863786E+02  0.83595281683E+02  0.00000000000E+00 0. -1.
</event>
<event>
 7    1  0.6888431E-006  0.7253148E+02  0.7818608E-02  0.1388695E+00
          2   -1    0    0  502    0  0.00000000000E+00  0.00000000000E+00  0.77602428255E+02  0.77602428255E+02  0.00000000000E+00 0. -1.
          1   -1    0    0  501    0 -0.00000000000E+00 -0.00000000000E+00 -0.56177984781E+03  0.56177984781E+03  0.00000000000E+00 0. -1.
         25    2    1    2    0    0  0.22177651167E+01 -0.35962110618E+01 -0.28240515197E+03  0.30885976512E+03  0.12499533364E+03 0.  0.
          2    1    1    2  501    0 -0.72089482461E+02  0.23057948600E+02 -0.23778683574E+03  0.24954186367E+03  0.00000000000E+00 0. -1.
          1    1    1    2  502    0  0.69871717344E+02 -0.19461737538E+02  0.36014568160E+02  0.80980647270E+02  0.00000000000E+00 0. -1.
         22    1    3    3    0    0 -0.46800995050E+02 -0.38831540364E+02 -0.10349644782E+03  0.12004056138E+03  0.00000000000E+00 0. -1.
         22    1    3    3    0    0  0.49018760166E+02  0.35235329302E+02 -0.17890870415E+03  0.18881920374E+03  0.00000000000E+00 0. -1.
</event>
<event>
 7    1  0.6888431E-006  0.7357860E+02  0.7818608E-02  0.1451278E+00
          2   -1    0    0  502    0  0.00000000000E+00  0.00000000000E+00  0.56534618639E+03  0.56534618639E+03  0.00000000000E+00 0. -1.
          1   -1    0    0  501    0 -0.00000000000E+00 -0.00000000000E+00 -0.85942323445E+03  0.85942323445E+03  0.00000000000E+00 0. -1.
         25    2    1    2    0    0 -0.22228794411E+02  0.55144664366E+02 -0.19094796114E+03  0.23584312018E+03  0.12500320062E+03 0.  0.
          2    1    1    2  501    0  0.26723839796E+02  0.18530348501E+02 -0.64310609706E+03  0.64392778283E+03  0.00000000000E+00 0. -1.
          1    1    1    2  502    0 -0.44950453849E+01 -0.73675012867E+02  0.53997701014E+03  0.54499851783E+03  0.00000000000E+00 0. -1.
         22    1    3    3    0    0 -0.45888832089E+01  0.94380851680E+02 -0.14328271239E+03  0.17163548201E+03  0.00000000000E+00 0. -1.
         22    1    3    3    0    0 -0.17639911202E+02 -0.39236187313E+02 -0.47665248751E+02  0.64207638179E+02  0.00000000000E+00 0. -1.
</event>
<event>
 7    1  0.8444151E-006  0.1391018E+03  0.7818608E-02  0.1257156E+00
          2   -1    0    0  502    0  0.00000000000E+00  0.00000000000E+00  0.13726404080E+04  0.13726404080E+04  0.00000000000E+00 0. -1.
          1   -1    0    0  501    0 -0.00000000000E+00 -0.00000000000E+00 -0.79348246295E+03  0.79348246295E+03  0.00000000000E+00 0. -1.
         25    2    1    2    0    0 -0.40383335402E+02 -0.97420119180E+02 -0.38680582643E+03  0.41995912964E+03  0.12500171922E+03 0.  0.
          2    1    1    2  501    0 -0.83603179167E+02  0.33217467880E+02 -0.38125724571E+03  0.39172691910E+03  0.00000000000E+00 0. -1.
          1    1    1    2  502    0  0.12398651457E+03  0.64202651299E+02  0.13472210172E+04  0.13544368222E+04  0.00000000000E+00 0. -1.
         22    1    3    3    0    0 -0.38035030724E+02  0.13556903346E+02 -0.44422774815E+02  0.60031959095E+02  0.00000000000E+00 0.  1.
         22    1    3    3    0    0 -0.23483046777E+01 -0.11097702253E+03 -0.34238305161E+03  0.35992717054E+03  0.00000000000E+00 0.  1.
</event>
<event>
 7    1  0.6888431E-006  0.5089749E+02  0.7818608E-02  0.1487339E+00
          2   -1    0    0  502    0  0.00000000000E+00  0.00000000000E+00  0.27497073766E+04  0.27497073766E+04  0.00000000000E+00 0. -1.
          1   -1    0    0  501    0 -0.00000000000E+00 -0.00000000000E+00 -0.73858558225E+02  0.73858558225E+02  0.00000000000E+00 0. -1.
         25    2    1    2    0    0  0.29474922744E+02  0.79518318785E+02  0.17096226862E+03  0.22813609076E+03  0.12500417803E+03 0.  0.
          2    1    1    2  501    0 -0.20976052884E+02 -0.29625490652E+02 -0.37702673148E+02  0.52336947307E+02  0.00000000000E+00 0. -1.
          1    1    1    2  502    0 -0.84988698605E+01 -0.49892828133E+02  0.25425892229E+04  0.25430928968E+04  0.00000000000E+00 0. -1.
         22    1    3    3    0    0  0.27825598352E+02  0.68598629666E+02  0.19122807169E+03  0.20505660516E+03  0.00000000000E+00 0.  1.
         22    1    3    3    0    0  0.16493243925E+01  0.10919689119E+02 -0.20265803076E+02  0.23079485604E+02  0.00000000000E+00 0.  1.
</event>
<event>
 7    1  0.6888431E-006  0.1517726E+03  0.7818608E-02  0.1269048E+00
          2   -1    0    0  502    0  0.00000000000E+00  0.00000000000E+00  0.49969569633E+03  0.49969569633E+03  0.00000000000E+00 0. -1.
          1   -1    0    0  501    0 -0.00000000000E+00 -0.00000000000E+00 -0.20038716961E+03  0.20038716961E+03  0.00000000000E+00 0. -1.
         25    2    1    2    0    0 -0.91644246961E+02  0.57010302460E+02  0.37440098163E+02  0.16933662826E+03  0.12499716050E+03 0.  0.
          2    1    1    2  501    0 -0.69776727864E+02 -0.22772181427E+02 -0.10521083743E+03  0.12828360890E+03  0.00000000000E+00 0. -1.
          1    1    1    2  502    0  0.16142097482E+03 -0.34238121032E+02  0.36707926599E+03  0.40246262878E+03  0.00000000000E+00 0. -1.
         22    1    3    3    0    0 -0.37183375728E+01 -0.16356722830E+02  0.51312307021E+02  0.53984453946E+02  0.00000000000E+00 0.  1.
         22    1    3    3    0    0 -0.87925909388E+02  0.73367025289E+02 -0.13872208858E+02  0.11535217432E+03  0.00000000000E+00 0.  1.
</event>
<event>
 7    1  0.6888431E-006  0.6256254E+02  0.7818608E-02  0.1540100E+00
          2   -1    0    0  502    0  0.00000000000E+00  0.00000000000E+00  0.46459274730E+03  0.46459274730E+03  0.00000000000E+00 0. -1.
          1   -1    0    0  501    0 -0.00000000000E+00 -0.00000000000E+00 -0.18169395456E+04  0.18169395456E+04  0.00000000000E+00 0. -1.
         25    2    1    2    0    0 -0.30970033502E+02 -0.28538153087E+02  0.14959674482E+03  0.19943944272E+03  0.12499334421E+03 0.  0.
          2    1    1    2  501    0  0.43776932503E+02  0.44785064176E+02 -0.17911013688E+04  0.17921959255E+04  0.00000000000E+00 0. -1.
          1    1    1    2  502    0 -0.12806899001E+02 -0.16246911089E+02  0.28915782572E+03  0.28989692471E+03  0.00000000000E+00 0. -1.
         22    1    3    3    0    0 -0.73082654227E+02 -0.36717974522E+02  0.12671829474E+03  0.15082045691E+03  0.00000000000E+00 0.  1.
         22    1    3    3    0    0  0.42112620725E+02  0.81798214348E+01  0.22878450080E+02  0.48618985809E+02  0.00000000000E+00 0.  1.
</event>
<event>
 7    1  0.6888431E-006  0.7366582E+02  0.7818608E-02  0.1511970E+00
          2   -1    0    0  502    0  0.00000000000E+00  0.00000000000E+00  0.42103704568E+03  0.42103704568E+03  0.00000000000E+00 0. -1.
          1   -1    0    0  501    0 -0.00000000000E+00 -0.00000000000E+00 -0.20526803939E+03  0.20526803939E+03  0.00000000000E+00 0. -1.
         25    2    1    2    0    0  0.25517064638E+02 -0.51472475477E+02  0.17903212851E+03  0.22578120115E+03  0.12499644569E+03 0.  0.
          2    1    1    2  501    0 -0.19393312782E+02  0.71741004321E+02 -0.17374933446E+03  0.18897540450E+03  0.00000000000E+00 0. -1.
          1    1    1    2  502    0 -0.61237518562E+01 -0.20268528845E+02  0.21048621224E+03  0.21154847942E+03  0.00000000000E+00 0. -1.
         22    1    3    3    0    0 -0.17882271697E+02  0.18796816258E+02 -0.27765708319E+01  0.26092245746E+02  0.00000000000E+00 0.  1.
         22    1    3    3    0    0  0.43399336335E+02 -0.70269291735E+02  0.18180869934E+03  0.19968895540E+03  0.00000000000E+00 0.  1.
</event>
<event>
 7    1  0.6888431E-006  0.8074168E+02  0.7818608E-02  0.1348676E+00
          2   -1    0    0  502    0  0.00000000000E+00  0.00000000000E+00  0.11931662328E+04  0.11931662328E+04  0.00000000000E+00 0. -1.
          1   -1    0    0  501    0 -0.00000000000E+00 -0.00000000000E+00 -0.81345285270E+02  0.81345285270E+02  0.00000000000E+00 0. -1.
         25    2    1    2    0    0 -0.54470044882E+02 -0.29048322408E+02  0.66637393807E+03  0.68080124225E+03  0.12500126115E+03 0.  0.
          2    1    1    2  501    0  0.60144433129E+02 -0.53868965651E+02 -0.47586097917E+02  0.93721155625E+02  0.00000000000E+00 0. -1.
          1    1    1    2  502    0 -0.56743882464E+01  0.82917288059E+02  0.49303310740E+03  0.49998912021E+03  0.00000000000E+00 0. -1.
         22    1    3    3    0    0 -0.35975469082E+02 -0.39215708300E+02  0.93850510193E+02  0.10788894483E+03  0.00000000000E+00 0.  1.
         22    1    3    3    0    0 -0.18494575800E+02  0.10167385891E+02  0.57252342788E+03  0.57291229742E+03  0.00000000000E+00 0.  1.
</event>
<event>
 7    1  0.6888431E-006  0.7469313E+02  0.7818608E-02  0.1358400E+00
          2   -1    0    0  502    0  0.00000000000E+00  0.00000000000E+00  0.67080844708E+03  0.67080844708E+03  0.00000000000E+00 0. -1.
          1   -1    0    0  501    0 -0.00000000000E+00 -0.00000000000E+00 -0.25115191331E+04  0.25115191331E+04  0.00000000000E+00 0. -1.
         25    2    1    2    0    0  0.53888110212E+01  0.74050347148E+02 -0.18739120596E+03  0.23717746156E+03  0.12500076401E+03 0.  0.
          2    1    1    2  501    0  0.57593152742E+02 -0.33331777442E+02 -0.22965742166E+04  0.22975380543E+04  0.00000000000E+00 0. -1.
          1    1    1    2  502    0 -0.62981963763E+02 -0.40718569706E+02  0.64325473658E+03  0.64761206429E+03  0.00000000000E+00 0. -1.
         22    1    3    3    0    0  0.64395776468E+02  0.34852146473E+02 -0.11119299945E+03  0.13313666387E+03  0.00000000000E+00 0.  1.
         22    1    3    3    0    0 -0.59006965447E+02  0.39198200675E+02 -0.76198206519E+02  0.10404079769E+03  0.00000000000E+00 0.  1.
</event>
<event>
 7    1  0.6888431E-006  0.1133864E+03  0.7818608E-02  0.1352742E+00
          2   -1    0    0  502    0  0.00000000000E+00  0.00000000000E+00  0.13819548692E+04  0.13819548692E+04  0.00000000000E+00 0. -1.
          1   -1    0    0  501    0 -0.00000000000E+00 -0.00000000000E+00 -0.51297732501E+02  0.51297732501E+02  0.00000000000E+00 0. -1.
         25    2    1    2    0    0  0.75575090242E+02  0.10966133092E+03  0.19538530359E+03  0.26746400327E+03  0.12499749765E+03 0.  0.
          2    1    1    2  501    0  0.15177245208E+02 -0.43407505646E+02  0.30190227356E+02  0.55009182381E+02  0.00000000000E+00 0. -1.
          1    1    1    2  502    0 -0.90752335450E+02 -0.66253825276E+02  0.11050816057E+04  0.11107794160E+04  0.00000000000E+00 0. -1.
         22    1    3    3    0    0  0.44789709608E+02  0.40983216211E+02  0.28905459347E+01  0.60779086482E+02  0.00000000000E+00 0. -1.
         22    1    3    3    0    0  0.30785380634E+02  0.68678114711E+02  0.19249475766E+03  0.20668491679E+03  0.00000000000E+00 0. -1.
</event>
<event>
 7    1  0.6888431E-006  0.5204499E+02  0.7818608E-02  0.1538375E+00
          2   -1    0    0  502    0  0.00000000000E+00  0.00000000000E+00  0.37906881203E+03  0.37906881203E+03  0.00000000000E+00 0. -1.
          1   -1    0    0  501    0 -0.00000000000E+00 -0.00000000000E+00 -0.37358717340E+02  0.37358717340E+02  0.00000000000E+00 0. -1.
         25    2    1    2    0    0 -0.71021135095E+02  0.11985642341E+02  0.19918104839E+03  0.24593898685E+03  0.12500095185E+03 0.  0.
          2    1    1    2  501    0  0.45947299615E+02 -0.13935357194E+02  0.33373950419E+02  0.58473661495E+02  0.00000000000E+00 0. -1.
          1    1    1    2  502    0  0.25073835479E+02  0.19497148531E+01  0.10915509588E+03  0.11201488102E+03  0.00000000000E+00 0. -1.
         22    1    3    3    0    0 -0.78301345769E+02  0.26713842575E+02  0.21037524283E+03  0.22605856084E+03  0.00000000000E+00 0. -1.
         22    1    3    3    0    0  0.72802106741E+01 -0.14728200234E+02 -0.11194194433E+02  0.19880426017E+02  0.00000000000E+00 0. -1.
</event>
<event>
 7    1  0.6888431E-006  0.2456296E+02  0.7818608E-02  0.1696717E+00
          2   -1    0    0  502    0  0.00000000000E+00  0.00000000000E+00  0.38720569089E+02  0.38720569089E+02  0.00000000000E+00 0. -1.
          1   -1    0    0  501    0 -0.00000000000E+00 -0.00000000000E+00 -0.37521496278E+03  0.37521496278E+03  0.00000000000E+00 0. -1.
         25    2    1    2    0    0 -0.11706689229E+02  0.42177930314E+02 -0.25298469342E+03  0.28554956522E+03  0.12498509796E+03 0.  0.
          2    1    1    2  501    0  0.10534145647E+02 -0.18103236942E+02 -0.98032913436E+02  0.10024543645E+03  0.00000000000E+00 0. -1.
          1    1    1    2  502    0  0.11725435822E+01 -0.24074693372E+02  0.14523213165E+02  0.28140530202E+02  0.00000000000E+00 0. -1.
         22    1    3    3    0    0 -0.49272017340E+02 -0.19848378558E+02 -0.64260235115E+02  0.83373063043E+02  0.00000000000E+00 0. -1.
         22    1    3    3    0    0  0.37565328111E+02  0.62026308872E+02 -0.18872445831E+03  0.20217650217E+03  0.00000000000E+00 0. -1.
</event>
<event>
 7    1  0.6888431E-006  0.1340516E+03  0.7818608E-02  0.1233850E+00
          2   -1    0    0  502    0  0.00000000000E+00  0.00000000000E+00  0.23210104874E+04  0.23210104874E+04  0.00000000000E+00 0. -1.
          1   -1    0    0  501    0 -0.00000000000E+00 -0.00000000000E+00 -0.26942463675E+03  0.26942463675E+03  0.00000000000E+00 0. -1.
         25    2    1    2    0    0 -0.17822888376E+03  0.13859731147E+03  0.93080892668E+03  0.96592182247E+03  0.12499983756E+03 0.  0.
          2    1    1    2  501    0  0.62150265994E+02 -0.11724861139E+03 -0.23163857179E+03  0.26695752542E+03  0.00000000000E+00 0. -1.
          1    1    1    2  502    0  0.11607861777E+03 -0.21348700081E+02  0.13524154958E+04  0.13575557763E+04  0.00000000000E+00 0. -1.
         22    1    3    3    0    0 -0.17761420276E+03  0.15083116315E+03  0.76598627720E+03  0.80064462882E+03  0.00000000000E+00 0. -1.
         22    1    3    3    0    0 -0.61468099761E+00 -0.12233851684E+02  0.16482264948E+03  0.16527719365E+03  0.00000000000E+00 0. -1.
</event>
<event>
 7    1  0.6888431E-006  0.8025858E+02  0.7818608E-02  0.1443207E+00
          2   -1    0    0  502    0  0.00000000000E+00  0.00000000000E+00  0.86134535102E+03  0.86134535102E+03  0.00000000000E+00 0. -1.
          1   -1    0    0  501    0 -0.00000000000E+00 -0.00000000000E+00 -0.64245408579E+03  0.64245408579E+03  0.00000000000E+00 0. -1.
         25    2    1    2    0    0 -0.67943691798E+02  0.53490774004E+01 -0.48867060597E+02  0.15051990635E+03  0.12499317866E+03 0.  0.
          2    1    1    2  501    0 -0.86576811494E+01 -0.30439920411E+02 -0.54029236464E+03  0.54121842493E+03  0.00000000000E+00 0. -1.
          1    1    1    2  502    0  0.76601372947E+02  0.25090843011E+02  0.80805069047E+03  0.81206110553E+03  0.00000000000E+00 0. -1.
         22    1    3    3    0    0 -0.32441407761E+02  0.54644742741E+02  0.11833934668E+02  0.64641587670E+02  0.00000000000E+00 0. -1.
         22    1    3    3    0    0 -0.35502284036E+02 -0.49295665341E+02 -0.60700995265E+02  0.85878318680E+02  0.00000000000E+00 0. -1.
</event>
<event>
 7    1  0.6888431E-006  0.7625423E+02  0.7818608E-02  0.1344121E+00
          2   -1    0    0  502    0  0.00000000000E+00  0.00000000000E+00  0.78321163890E+03  0.78321163890E+03  0.00000000000E+00 0. -1.
          1   -1    0    0  501    0 -0.00000000000E+00 -0.00000000000E+00 -0.17950563086E+04  0.17950563086E+04  0.00000000000E+00 0. -1.
         25    2    1    2    0    0 -0.59513693486E+01  0.88339780041E+01  0.18307617391E+03  0.22193644522E+03  0.12500176918E+03 0.  0.
          2    1    1    2  501    0 -0.75366663582E+02  0.11600578807E+02 -0.17717752335E+04  0.17734154013E+04  0.00000000000E+00 0. -1.
          1    1    1    2  502    0  0.81318032931E+02 -0.20434556811E+02  0.57685438993E+03  0.58291610097E+03  0.00000000000E+00 0. -1.
         22    1    3    3    0    0 -0.17779081481E+02 -0.42805815035E+02  0.15540089313E+03  0.16216618367E+03  0.00000000000E+00 0. -1.
         22    1    3    3    0    0  0.11827712132E+02  0.51639793039E+02  0.27675280777E+02  0.59770261548E+02  0.00000000000E+00 0. -1.
</event>
<event>
 7    1  0.6888431E-006  0.1641609E+03  0.7818608E-02  0.1296099E+00
          2   -1    0    0  502    0  0.00000000000E+00  0.00000000000E+00  0.19029298665E+04  0.19029298665E+04  0.00000000000E+00 0. -1.
          1   -1    0    0  501    0 -0.00000000000E+00 -0.00000000000E+00 -0.42274376051E+03  0.42274376051E+03  0.00000000000E+00 0. -1.
         25    2    1    2    0    0 -0.17366919871E+03 -0.73702126255E+01  0.13505566121E+03  0.25314002042E+03  0.12499811078E+03 0.  0.
          2    1    1    2  501    0  0.15405279570E+03  0.56081985990E+02 -0.34479805064E+03  0.38178940366E+03  0.00000000000E+00 0. -1.
          1    1    1    2  502    0  0.19616403005E+02 -0.48711773364E+02  0.16899284954E+04  0.16907442029E+04  0.00000000000E+00 0. -1.
         22    1    3    3    0    0 -0.15108958948E+03  0.34520228751E+02  0.64126390042E+02  0.16772568123E+03  0.00000000000E+00 0. -1.
         22    1    3    3    0    0 -0.22579609227E+02 -0.41890441377E+02  0.70929271170E+02  0.85414339196E+02  0.00000000000E+00 0. -1.
</event>
<event>
 7    1  0.6888431E-006  0.1497799E+03  0.7818608E-02  0.1271333E+00
          2   -1    0    0  502    0  0.00000000000E+00  0.00000000000E+00  0.58453004522E+03  0.58453004522E+03  0.00000000000E+00 0. -1.
          1   -1    0    0  501    0 -0.00000000000E+00 -0.00000000000E+00 -0.26705264731E+03  0.26705264731E+03  0.00000000000E+00 0. -1.
         25    2    1    2    0    0  0.98635081571E+02  0.81068226431E+02 -0.72738153272E+02  0.19291629568E+03  0.12499968617E+03 0.  0.
          2    1    1    2  501    0 -0.87711468589E+02 -0.15299360561E+03 -0.72202106774E+02  0.19056098578E+03  0.00000000000E+00 0. -1.
          1    1    1    2  502    0 -0.10923612982E+02  0.71925379179E+02  0.46241765795E+03  0.46810541108E+03  0.00000000000E+00 0. -1.
         22    1    3    3    0    0  0.11592806834E+02 -0.32820647123E+02 -0.20228065795E+02  0.40258697119E+02  0.00000000000E+00 0.  1.
         22    1    3    3    0    0  0.87042274737E+02  0.11388887355E+03 -0.52510087476E+02  0.15265759856E+03  0.00000000000E+00 0.  1.
</event>
<event>
 7    1  0.6888431E-006  0.2348703E+03  0.7818608E-02  0.1189832E+00
          2   -1    0    0  502    0  0.00000000000E+00  0.00000000000E+00  0.70522332915E+03  0.70522332915E+03  0.00000000000E+00 0. -1.
          1   -1    0    0  501    0 -0.00000000000E+00 -0.00000000000E+00 -0.86327765548E+03  0.86327765548E+03  0.00000000000E+00 0. -1.
         25    2    1    2    0    0  0.14732718172E+03  0.48054099310E+02  0.29532879906E+03  0.35617273363E+03  0.12500168675E+03 0.  0.
          2    1    1    2  501    0 -0.23949700101E+03  0.75351838472E+01 -0.80745456060E+03  0.84225795332E+03  0.00000000000E+00 0. -1.
          1    1    1    2  502    0  0.92169819287E+02 -0.55589283157E+02  0.35407143521E+03  0.37007029768E+03  0.00000000000E+00 0. -1.
         22    1    3    3    0    0  0.89859213790E+02  0.85659819767E+02  0.14491219695E+03  0.19081883516E+03  0.00000000000E+00 0. -1.
         22    1    3    3    0    0  0.57467967935E+02 -0.37605720458E+02  0.15041660211E+03  0.16535389847E+03  0.00000000000E+00 0. -1.
</event>
<event>
 7    1  0.6888431E-006  0.1215001E+03  0.7818608E-02  0.1397340E+00
          2   -1    0    0  502    0  0.00000000000E+00  0.00000000000E+00  0.18769696360E+04  0.18769696360E+04  0.00000000000E+00 0. -1.
          1   -1    0    0  501    0 -0.00000000000E+00 -0.00000000000E+00 -0.12478304778E+03  0.12478304778E+03  0.00000000000E+00 0. -1.
         25    2    1    2    0    0  0.49419966647E+02 -0.89677409520E+02  0.15504752868E+03  0.22393804181E+03  0.12499655810E+03 0.  0.
          2    1    1    2  501    0 -0.77448549669E+02  0.99637516456E+02 -0.46064189759E+02  0.13434218291E+03  0.00000000000E+00 0. -1.
          1    1    1    2  502    0  0.28028583022E+02 -0.99601069363E+01  0.16432032493E+04  0.16434724590E+04  0.00000000000E+00 0. -1.
         22    1    3    3    0    0  0.88762848309E+02 -0.64102767897E+02  0.13247901860E+03  0.17186825903E+03  0.00000000000E+00 0. -1.
         22    1    3    3    0    0 -0.39342881662E+02 -0.25574641622E+02  0.22568510087E+02  0.52069782784E+02  0.00000000000E+00 0. -1.
</event>
<event>
 7    1  0.6888431E-006  0.1091854E+03  0.7818608E-02  0.1284050E+00
          2   -1    0    0  502    0  0.00000000000E+00  0.00000000000E+00  0.22701800802E+04  0.22701800802E+04  0.00000000000E+00 0. -1.
          1   -1    0    0  501    0 -0.00000000000E+00 -0.00000000000E+00 -0.32623463836E+03  0.32623463836E+03  0.00000000000E+00 0. -1.
         25    2    1    2    0    0 -0.96569218211E+02 -0.15247930932E+03  0.94304542711E+03  0.96826453961E+03  0.12500394955E+03 0.  0.
          2    1    1    2  501    0  0.23617596583E+02  0.85170376556E+02 -0.30547773142E+03  0.31800696267E+03  0.00000000000E+00 0. -1.
          1    1    1    2  502    0  0.72951621628E+02  0.67308932764E+02  0.13063777462E+04  0.13101432163E+04  0.00000000000E+00 0. -1.
         22    1    3    3    0    0 -0.29421219321E+02 -0.13960885164E+03  0.75048131513E+03  0.76392306154E+03  0.00000000000E+00 0. -1.
         22    1    3    3    0    0 -0.67147998891E+02 -0.12870457677E+02  0.19256411198E+03  0.20434147807E+03  0.00000000000E+00 0. -1.
</event>
<event>
 7    1  0.6888431E-006  0.5095061E+02  0.7818608E-02  0.1519388E+00
          2   -1    0    0  502    0  0.00000000000E+00  0.00000000000E+00  0.13865093952E+03  0.13865093952E+03  0.00000000000E+00 0. -1.
          1   -1    0    0  501    0 -0.00000000000E+00 -0.00000000000E+00 -0.18035926557E+04  0.18035926557E+04  0.00000000000E+00 0. -1.
         25    2    1    2    0    0 -0.22035278127E+02 -0.48410014826E+01 -0.52267591184E+03  0.53788951098E+03  0.12500411363E+03 0.  0.
          2    1    1    2  501    0 -0.29081174860E+02  0.15642194272E+01 -0.12681311263E+04  0.12684654962E+04  0.00000000000E+00 0. -1.
          1    1    1    2  502    0  0.51116452987E+02  0.32767820553E+01  0.12586532201E+03  0.13588858801E+03  0.00000000000E+00 0. -1.
         22    1    3    3    0    0 -0.52072383688E+02  0.76003718735E+01 -0.91992829781E+02  0.10598103381E+03  0.00000000000E+00 0.  1.
         22    1    3    3    0    0  0.30037105561E+02 -0.12441373356E+02 -0.43068308206E+03  0.43190847717E+03  0.00000000000E+00 0.  1.
</event>
<event>
 7    1  0.6888431E-006  0.3849934E+02  0.7818608E-02  0.1541670E+00
          2   -1    0    0  502    0  0.00000000000E+00  0.00000000000E+00  0.23426746648E+03  0.23426746648E+03  0.00000000000E+00 0. -1.
          1   -1    0    0  501    0 -0.00000000000E+00 -0.00000000000E+00 -0.68691737114E+03  0.68691737114E+03  0.00000000000E+00 0. -1.
         25    2    1    2    0    0 -0.58861025401E+02 -0.35328053154E+02 -0.17202050813E+03  0.22344492432E+03  0.12499554926E+03 0.  0.
          2    1    1    2  501    0  0.36018461712E+02  0.11129603984E+02 -0.48712430752E+03  0.48858089263E+03  0.00000000000E+00 0. -1.
          1    1    1    2  502    0  0.22842563689E+02  0.24198449171E+02  0.20649491099E+03  0.20915902066E+03  0.00000000000E+00 0. -1.
         22    1    3    3    0    0  0.63253354979E+01  0.32752455822E+02 -0.80521221010E+01  0.34315738399E+02  0.00000000000E+00 0. -1.
         22    1    3    3    0    0 -0.65186360898E+02 -0.68080508977E+02 -0.16396838603E+03  0.18912918592E+03  0.00000000000E+00 0. -1.
</event>
<event>
 7    1  0.6888431E-006  0.9793953E+02  0.7818608E-02  0.1336311E+00
          2   -1    0    0  502    0  0.00000000000E+00  0.00000000000E+00  0.24557584332E+04  0.24557584332E+04  0.00000000000E+00 0. -1.
          1   -1    0    0  501    0 -0.00000000000E+00 -0.00000000000E+00 -0.20970260090E+03  0.20970260090E+03  0.00000000000E+00 0. -1.
         25    2    1    2    0    0 -0.10984655677E+03  0.10299960646E+03  0.86220071960E+03  0.88413136390E+03  0.12499201094E+03 0.  0.
          2    1    1    2  501    0  0.52782037846E+02 -0.31212518414E+02 -0.19264279523E+03  0.20216679099E+03  0.00000000000E+00 0. -1.
          1    1    1    2  502    0  0.57064518922E+02 -0.71787088046E+02  0.15764979079E+04  0.15791628792E+04  0.00000000000E+00 0. -1.
         22    1    3    3    0    0 -0.13469479798E+03  0.67708255701E+02  0.71568329887E+03  0.73138887111E+03  0.00000000000E+00 0. -1.
         22    1    3    3    0    0  0.24848241217E+02  0.35291350759E+02  0.14651742072E+03  0.15274249280E+03  0.00000000000E+00 0. -1.
</event>
<event>
 7    1  0.6888431E-006  0.1306605E+03  0.7818608E-02  0.1379677E+00
          2   -1    0    0  502    0  0.00000000000E+00  0.00000000000E+00  0.13597176258E+03  0.13597176258E+03  0.00000000000E+00 0. -1.
          1   -1    0    0  501    0 -0.00000000000E+00 -0.00000000000E+00 -0.28727159285E+04  0.28727159285E+04  0.00000000000E+00 0. -1.
         25    2    1    2    0    0 -0.15529037088E+03 -0.34403323534E+02 -0.66033720853E+03  0.69062915799E+03  0.12499886774E+03 0.  0.
          2    1    1    2  501    0  0.27311898448E+02  0.16459945678E+02 -0.21625267237E+04  0.21627618224E+04  0.00000000000E+00 0. -1.
          1    1    1    2  502    0  0.12797847243E+03  0.17943377856E+02  0.86119766305E+02  0.15529671073E+03  0.00000000000E+00 0. -1.
         22    1    3    3    0    0 -0.62254185936E+01  0.16052693367E+02 -0.69673947508E+01  0.18573890024E+02  0.00000000000E+00 0.  1.
         22    1    3    3    0    0 -0.14906495229E+03 -0.50456016900E+02 -0.65336981378E+03  0.67205526797E+03  0.00000000000E+00 0.  1.
</event>
<event>
 7    1  0.6888431E-006  0.9020432E+02  0.7818608E-02  0.1347844E+00
          2   -1    0    0  502    0  0.00000000000E+00  0.00000000000E+00  0.34874331147E+04  0.34874331147E+04  0.00000000000E+00 0. -1.
          1   -1    0    0  501    0 -0.00000000000E+00 -0.00000000000E+00 -0.59686660266E+02  0.59686660266E+02  0.00000000000E+00 0. -1.
         25    2    1    2    0    0 -0.12512300908E+03 -0.33844344205E+01  0.37237848147E+03  0.41225918893E+03  0.12499873440E+03 0.  0.
          2    1    1    2  501    0  0.77410847517E+02  0.40204188808E+02  0.87719079955E+01  0.87668480544E+02  0.00000000000E+00 0. -1.
          1    1    1    2  502    0  0.47712161560E+02 -0.36819754387E+02  0.30465960650E+04  0.30471921055E+04  0.00000000000E+00 0. -1.
         22    1    3    3    0    0 -0.98959984428E+01 -0.86082602570E+01 -0.76003651761E+01  0.15159105536E+02  0.00000000000E+00 0. -1.
         22    1    3    3    0    0 -0.11522701063E+03  0.52238258365E+01  0.37997884664E+03  0.39710008340E+03  0.00000000000E+00 0. -1.
</event>
<event>
 7    1  0.6888431E-006  0.1497249E+03  0.7818608E-02  0.1292666E+00
          2   -1    0    0  502    0  0.00000000000E+00  0.00000000000E+00  0.30903734186E+03  0.30903734186E+03  0.00000000000E+00 0. -1.
          1   -1    0    0  501    0 -0.00000000000E+00 -0.00000000000E+00 -0.12510849413E+04  0.12510849413E+04  0.00000000000E+00 0. -1.
         25    2    1    2    0    0  0.92359484692E+02  0.10275564293E+03 -0.38164935607E+03  0.42469976078E+03  0.12499863702E+03 0.  0.
          2    1    1    2  501    0 -0.52772142384E+02 -0.14710068271E+03 -0.83753059009E+03  0.85198650177E+03  0.00000000000E+00 0. -1.
          1    1    1    2  502    0 -0.39587342308E+02  0.44345039785E+02  0.27713234668E+03  0.28343602065E+03  0.00000000000E+00 0. -1.
         22    1    3    3    0    0 -0.19513854427E+02  0.32165989690E+02 -0.17747302953E+03  0.18141697170E+03  0.00000000000E+00 0. -1.
         22    1    3    3    0    0  0.11187333912E+03  0.70589653237E+02 -0.20417632654E+03  0.24328278909E+03  0.00000000000E+00 0. -1.
</event>
<event>
 7    1  0.6888431E-006  0.1355330E+03  0.7818608E-02  0.1269933E+00
          2   -1    0    0  502    0  0.00000000000E+00  0.00000000000E+00  0.13499751679E+04  0.13499751679E+04  0.00000000000E+00 0. -1.
          1   -1    0    0  501    0 -0.00000000000E+00 -0.00000000000E+00 -0.12854411794E+04  0.12854411794E+04  0.00000000000E+00 0. -1.
         25    2    1    2    0    0  0.98028104702E+02  0.70626180629E+02  0.51661124263E+03  0.54507742917E+03  0.12499864433E+03 0.  0.
          2    1    1    2  501    0 -0.41478791336E+02 -0.12930449488E+03 -0.12655399074E+04  0.12728045410E+04  0.00000000000E+00 0. -1.
          1    1    1    2  502    0 -0.56549313366E+02  0.58678314253E+02  0.81346265324E+03  0.81753437703E+03  0.00000000000E+00 0. -1.
         22    1    3    3    0    0  0.51528143978E+02  0.90167859893E+02  0.20924168469E+03  0.23359682188E+03  0.00000000000E+00 0.  1.
         22    1    3    3    0    0  0.46499960724E+02 -0.19541679264E+02  0.30736955793E+03  0.31148060729E+03  0.00000000000E+00 0.  1.
</event>
<event>
 7    1  0.6888431E-006  0.8946797E+02  0.7818608E-02  0.1465967E+00
          2   -1    0    0  502    0  0.00000000000E+00  0.00000000000E+00  0.52651845458E+03  0.52651845458E+03  0.00000000000E+00 0. -1.
          1   -1    0    0  501    0 -0.00000000000E+00 -0.00000000000E+00 -0.47486756610E+03  0.47486756610E+03  0.00000000000E+00 0. -1.
         25    2    1    2    0    0  0.14872014059E+02 -0.93126657993E+02  0.32121529075E+03  0.35734877744E+03  0.12500053798E+03 0.  0.
          2    1    1    2  501    0 -0.36089997292E+02  0.81840731026E+02 -0.45162506683E+03  0.46039721345E+03  0.00000000000E+00 0. -1.
          1    1    1    2  502    0  0.21217983234E+02  0.11285926966E+02  0.18206066457E+03  0.18364002980E+03  0.00000000000E+00 0. -1.
         22    1    3    3    0    0  0.62774926613E+02 -0.20888764698E+02  0.17859127837E+03  0.19045176978E+03  0.00000000000E+00 0.  1.
         22    1    3    3    0    0 -0.47902912555E+02 -0.72237893295E+02  0.14262401238E+03  0.16689700766E+03  0.00000000000E+00 0.  1.
</event>
<event>
 7    1  0.6888431E-006  0.6481149E+02  0.7818608E-02  0.1417660E+00
          2   -1    0    0  502    0  0.00000000000E+00  0.00000000000E+00  0.12950193196E+04  0.12950193196E+04  0.00000000000E+00 0. -1.
          1   -1    0    0  501    0 -0.00000000000E+00 -0.00000000000E+00 -0.37086039786E+02  0.37086039786E+02  0.00000000000E+00 0. -1.
         25    2    1    2    0    0 -0.21183520633E+02  0.33455133139E+02  0.34061239066E+03  0.36497978857E+03  0.12500183163E+03 0.  0.
          2    1    1    2  501    0 -0.44934319850E+02 -0.15580400506E+02  0.30939991282E+00  0.47559832933E+02  0.00000000000E+00 0. -1.
          1    1    1    2  502    0  0.66117840483E+02 -0.17874732633E+02  0.91701148928E+03  0.91956573793E+03  0.00000000000E+00 0. -1.
         22    1    3    3    0    0 -0.62205158322E+02 -0.16789526126E+02  0.20012544981E+03  0.21024168372E+03  0.00000000000E+00 0. -1.
         22    1    3    3    0    0  0.41021637689E+02  0.50244659265E+02  0.14048694085E+03  0.15473810485E+03  0.00000000000E+00 0. -1.
</event>
<event>
 7    1  0.6888431E-006  0.4430605E+02  0.7818608E-02  0.1538551E+00
          2   -1    0    0  502    0  0.00000000000E+00  0.00000000000E+00  0.36883599216E+03  0.36883599216E+03  0.00000000000E+00 0. -1.
          1   -1    0    0  501    0 -0.00000000000E+00 -0.00000000000E+00 -0.74302786594E+03  0.74302786594E+03  0.00000000000E+00 0. -1.
         25    2    1    2    0    0 -0.18719802942E+02 -0.14296075769E+01  0.24889348897E+03  0.27914933914E+03  0.12499563949E+03 0.  0.
          2    1    1    2  501    0  0.40195339125E+02 -0.18807714304E+02 -0.72513119086E+03  0.72648787971E+03  0.00000000000E+00 0. -1.
          1    1    1    2  502    0 -0.21475536184E+02  0.20237321880E+02  0.10204582811E+03  0.10622663925E+03  0.00000000000E+00 0. -1.
         22    1    3    3    0    0 -0.12068422864E+02  0.61233109864E+02  0.10658159188E+03  0.12351022751E+03  0.00000000000E+00 0. -1.
         22    1    3    3    0    0 -0.66513800773E+01 -0.62662717441E+02  0.14231189709E+03  0.15563911163E+03  0.00000000000E+00 0. -1.
</event>
<event>
 7    1  0.6888431E-006  0.5989819E+02  0.7818608E-02  0.1469996E+00
          2   -1    0    0  502    0  0.00000000000E+00  0.00000000000E+00  0.40610094501E+03  0.40610094501E+03  0.00000000000E+00 0. -1.
          1   -1    0    0  501    0 -0.00000000000E+00 -0.00000000000E+00 -0.27697048560E+03  0.27697048560E+03  0.00000000000E+00 0. -1.
         25    2    1    2    0    0  0.51750207816E+02 -0.70950047676E+02  0.15431807785E+03  0.21714477030E+03  0.12500315533E+03 0.  0.
          2    1    1    2  501    0 -0.20322348552E+02  0.55836708943E+02 -0.24053921883E+03  0.24776975545E+03  0.00000000000E+00 0. -1.
          1    1    1    2  502    0 -0.31427859263E+02  0.15113338733E+02  0.21535160040E+03  0.21815690486E+03  0.00000000000E+00 0. -1.
         22    1    3    3    0    0  0.72699569444E+02 -0.51651466014E+01  0.11912585640E+03  0.13965269708E+03  0.00000000000E+00 0. -1.
         22    1    3    3    0    0 -0.20949361629E+02 -0.65784901075E+02  0.35192221442E+02  0.77492073221E+02  0.00000000000E+00 0. -1.
</event>
<event>
 7    1  0.6888431E-006  0.5102682E+02  0.7818608E-02  0.1482460E+00
          2   -1    0    0  502    0  0.00000000000E+00  0.00000000000E+00  0.53803883228E+03  0.53803883228E+03  0.00000000000E+00 0. -1.
          1   -1    0    0  501    0 -0.00000000000E+00 -0.00000000000E+00 -0.52235941973E+03  0.52235941973E+03  0.00000000000E+00 0. -1.
         25    2    1    2    0    0  0.14660102080E+02  0.12002313447E+01 -0.85855478988E+02  0.15235258789E+03  0.12499515438E+03 0.  0.
          2    1    1    2  501    0  0.35853228410E+02 -0.10882490603E+02 -0.40106981132E+03  0.40281618157E+03  0.00000000000E+00 0. -1.
          1    1    1    2  502    0 -0.50513330490E+02  0.96822592586E+01  0.50260470285E+03  0.50522948254E+03  0.00000000000E+00 0. -1.
         22    1    3    3    0    0  0.63683492182E+01  0.51324518055E+02  0.10015921787E+01  0.51727799221E+02  0.00000000000E+00 0.  1.
         22    1    3    3    0    0  0.82917528615E+01 -0.50124286710E+02 -0.86857071167E+02  0.10062478867E+03  0.00000000000E+00 0.  1.
</event>
<event>
 7    1  0.6888431E-006  0.3251668E+03  0.7818608E-02  0.1237122E+00
          2   -1    0    0  502    0  0.00000000000E+00  0.00000000000E+00  0.21778720812E+04  0.21778720812E+04  0.00000000000E+00 0. -1.
          1   -1    0    0  501    0 -0.00000000000E+00 -0.00000000000E+00 -0.74615734198E+03  0.74615734198E+03  0.00000000000E+00 0. -1.
         25    2    1    2    0    0  0.27277439801E+03  0.19992647750E+03 -0.22959975995E+03  0.42745771213E+03  0.12501030865E+03 0.  0.
          2    1    1    2  501    0  0.12820810772E+02 -0.45274498671E+02 -0.40356872832E+03  0.40630268507E+03  0.00000000000E+00 0. -1.
          1    1    1    2  502    0 -0.28559520879E+03 -0.15465197883E+03  0.20648832275E+04  0.20902690260E+04  0.00000000000E+00 0. -1.
         22    1    3    3    0    0  0.73900601829E+02 -0.47580901468E+01 -0.61351572022E+02  0.96166281836E+02  0.00000000000E+00 0. -1.
         22    1    3    3    0    0  0.19887379619E+03  0.20468456765E+03 -0.16824818793E+03  0.33129143029E+03  0.00000000000E+00 0. -1.
</event>
<event>
 7    1  0.6888431E-006  0.7399984E+02  0.7818608E-02  0.1443836E+00
          2   -1    0    0  502    0  0.00000000000E+00  0.00000000000E+00  0.19904370714E+04  0.19904370714E+04  0.00000000000E+00 0. -1.
          1   -1    0    0  501    0 -0.00000000000E+00 -0.00000000000E+00 -0.68260124823E+03  0.68260124823E+03  0.00000000000E+00 0. -1.
         25    2    1    2    0    0 -0.39860433797E+02  0.59406578821E+02 -0.29840337670E+03  0.33134420488E+03  0.12500564424E+03 0.  0.
          2    1    1    2  501    0  0.66140417437E+02 -0.37577453115E+02 -0.36364371817E+03  0.37151497085E+03  0.00000000000E+00 0. -1.
          1    1    1    2  502    0 -0.26279983641E+02 -0.21829125706E+02  0.19698829180E+04  0.19701791439E+04  0.00000000000E+00 0. -1.
         22    1    3    3    0    0 -0.42822947080E+02  0.94822236769E+02 -0.18204444607E+03  0.20967890148E+03  0.00000000000E+00 0. -1.
         22    1    3    3    0    0  0.29625132833E+01 -0.35415657948E+02 -0.11635893063E+03  0.12166530340E+03  0.00000000000E+00 0. -1.
</event>
<event>
 7    1  0.6888431E-006  0.7853738E+02  0.7818608E-02  0.1477805E+00
          2   -1    0    0  502    0  0.00000000000E+00  0.00000000000E+00  0.46034303909E+03  0.46034303909E+03  0.00000000000E+00 0. -1.
          1   -1    0    0  501    0 -0.00000000000E+00 -0.00000000000E+00 -0.59698468015E+02  0.59698468015E+02  0.00000000000E+00 0. -1.
         25    2    1    2    0    0  0.12863253065E+02 -0.56148946683E+02  0.24900407987E+03  0.28451018337E+03  0.12499938062E+03 0.  0.
          2    1    1    2  501    0 -0.10124487531E+02  0.81156773398E+02 -0.32752825575E-01  0.81785867904E+02  0.00000000000E+00 0. -1.
          1    1    1    2  502    0 -0.27387655336E+01 -0.25007826714E+02  0.15167324403E+03  0.15374545583E+03  0.00000000000E+00 0. -1.
         22    1    3    3    0    0 -0.81930526020E+00 -0.12502921233E+01 -0.14714770093E+02  0.14790502033E+02  0.00000000000E+00 0. -1.
         22    1    3    3    0    0  0.13682558325E+02 -0.54898654560E+02  0.26371884996E+03  0.26971968134E+03  0.00000000000E+00 0. -1.
</event>
<event>
 7    1  0.6888431E-006  0.8747996E+02  0.7818608E-02  0.1395646E+00
          2   -1    0    0  502    0  0.00000000000E+00  0.00000000000E+00  0.88315922864E+03  0.88315922864E+03  0.00000000000E+00 0. -1.
          1   -1    0    0  501    0 -0.00000000000E+00 -0.00000000000E+00 -0.22175496180E+03  0.22175496180E+03  0.00000000000E+00 0. -1.
         25    2    1    2    0    0  0.52140279977E+01  0.46540905501E+02 -0.23843239530E+02  0.13559798418E+03  0.12500028508E+03 0.  0.
          2    1    1    2  501    0  0.34507743762E+01  0.41731746942E+02 -0.13650883903E+03  0.14278693806E+03  0.00000000000E+00 0. -1.
          1    1    1    2  502    0 -0.86648023740E+01 -0.88272652443E+02  0.82175634541E+03  0.82652926820E+03  0.00000000000E+00 0. -1.
         22    1    3    3    0    0  0.47691178472E+02  0.67547487912E+02 -0.29680104913E+02  0.87852263801E+02  0.00000000000E+00 0. -1.
         22    1    3    3    0    0 -0.42477150474E+02 -0.21006582411E+02  0.58368653835E+01  0.47745720379E+02  0.00000000000E+00 0. -1.
</event>
<event>
 7    1  0.6888431E-006  0.8660893E+02  0.7818608E-02  0.1462693E+00
          2   -1    0    0  502    0  0.00000000000E+00  0.00000000000E+00  0.37720283458E+03  0.37720283458E+03  0.00000000000E+00 0. -1.
          1   -1    0    0  501    0 -0.00000000000E+00 -0.00000000000E+00 -0.12412066357E+04  0.12412066357E+04  0.00000000000E+00 0. -1.
         25    2    1    2    0    0  0.77630748021E+02 -0.77501367394E+01  0.15479265105E+02  0.14816443193E+03  0.12500597419E+03 0.  0.
          2    1    1    2  501    0 -0.80314723239E+02  0.33027879738E+02 -0.11727087017E+04  0.11759196379E+04  0.00000000000E+00 0. -1.
          1    1    1    2  502    0  0.26839752175E+01 -0.25277742998E+02  0.29322563554E+03  0.29432540045E+03  0.00000000000E+00 0. -1.
         22    1    3    3    0    0  0.98504043675E+01  0.47638453894E+02  0.33147257681E+02  0.58865893753E+02  0.00000000000E+00 0. -1.
         22    1    3    3    0    0  0.67780343654E+02 -0.55388590633E+02 -0.17667992576E+02  0.89298538173E+02  0.00000000000E+00 0. -1.
</event>
<event>
 7    1  0.6888431E-006  0.6813817E+02  0.7818608E-02  0.1383315E+00
          2   -1    0    0  502    0  0.00000000000E+00  0.00000000000E+00  0.24213792811E+03  0.24213792811E+03  0.00000000000E+00 0. -1.
          1   -1    0    0  501    0 -0.00000000000E+00 -0.00000000000E+00 -0.12213370502E+03  0.12213370502E+03  0.00000000000E+00 0. -1.
         25    2    1    2    0    0 -0.42806683916E+02  0.67493379170E+02 -0.26312196061E+01  0.14839121677E+03  0.12500104591E+03 0.  0.
          2    1    1    2  501    0  0.68928171972E+02 -0.14184426100E+02 -0.95106887598E+01  0.71012280880E+02  0.00000000000E+00 0. -1.
          1    1    1    2  502    0 -0.26121488056E+02 -0.53308953071E+02  0.13214613146E+03  0.14486813547E+03  0.00000000000E+00 0. -1.
         22    1    3    3    0    0 -0.51323179326E+02  0.90443464624E+02  0.29409493181E+02  0.10806945599E+03  0.00000000000E+00 0. -1.
         22    1    3    3    0    0  0.85164954103E+01 -0.22950085454E+02 -0.32040712787E+02  0.40321760779E+02  0.00000000000E+00 0. -1.
</event>
<event>
 7    1  0.6888431E-006  0.1307084E+03  0.7818608E-02  0.1343468E+00
          2   -1    0    0  502    0  0.00000000000E+00  0.00000000000E+00  0.70683233888E+03  0.70683233888E+03  0.00000000000E+00 0. -1.
          1   -1    0    0  501    0 -0.00000000000E+00 -0.00000000000E+00 -0.25049978759E+03  0.25049978759E+03  0.00000000000E+00 0. -1.
         25    2    1    2    0    0 -0.76816196943E+02 -0.60170312960E+02  0.21468940205E+02  0.16002402032E+03  0.12500230803E+03 0.  0.
          2    1    1    2  501    0  0.11199599443E+03  0.85215818852E+02 -0.15298908509E+03  0.20787135134E+03  0.00000000000E+00 0. -1.
          1    1    1    2  502    0 -0.35179797488E+02 -0.25045505893E+02  0.58785269618E+03  0.58943675481E+03  0.00000000000E+00 0. -1.
         22    1    3    3    0    0  0.10601804029E+02  0.28871156612E+01 -0.36163675850E+02  0.37796099488E+02  0.00000000000E+00 0.  1.
         22    1    3    3    0    0 -0.87418000973E+02 -0.63057428621E+02  0.57632616055E+02  0.12222792083E+03  0.00000000000E+00 0.  1.
</event>
<event>
 7    1  0.6888431E-006  0.1067896E+03  0.7818608E-02  0.1349772E+00
          2   -1    0    0  502    0  0.00000000000E+00  0.00000000000E+00  0.13785513391E+04  0.13785513391E+04  0.00000000000E+00 0. -1.
          1   -1    0    0  501    0 -0.00000000000E+00 -0.00000000000E+00 -0.13271325793E+03  0.13271325793E+03  0.00000000000E+00 0. -1.
         25    2    1    2    0    0  0.94518169543E+02  0.11823174246E+03  0.20065455099E+03  0.28071321641E+03  0.12500092694E+03 0.  0.
          2    1    1    2  501    0 -0.59758899358E+02 -0.82185709017E+02 -0.64096620973E+02  0.12014155667E+03  0.00000000000E+00 0. -1.
          1    1    1    2  502    0 -0.34759270185E+02 -0.36046033447E+02  0.11092801512E+04  0.11104098240E+04  0.00000000000E+00 0. -1.
         22    1    3    3    0    0  0.27938495259E+02 -0.12726980547E+02  0.94774819627E+02  0.99623300420E+02  0.00000000000E+00 0.  1.
         22    1    3    3    0    0  0.66579674284E+02  0.13095872301E+03  0.10587973136E+03  0.18108991599E+03  0.00000000000E+00 0.  1.
</event>
<event>
 7    1  0.6888431E-006  0.2159732E+03  0.7818608E-02  0.1326009E+00
          2   -1    0    0  502    0  0.00000000000E+00  0.00000000000E+00  0.28258745440E+03  0.28258745440E+03  0.00000000000E+00 0. -1.
          1   -1    0    0  501    0 -0.00000000000E+00 -0.00000000000E+00 -0.29567080247E+04  0.29567080247E+04  0.00000000000E+00 0. -1.
         25    2    1    2    0    0  0.13464759449E+03 -0.15150989952E+03 -0.10949075396E+04  0.11205054057E+04  0.12499847866E+03 0.  0.
          2    1    1    2  501    0  0.28900047388E+02  0.95599682830E+01 -0.18053948184E+04  0.18056514216E+04  0.00000000000E+00 0. -1.
          1    1    1    2  502    0 -0.16354764188E+03  0.14194993124E+03  0.22618178774E+03  0.31313865179E+03  0.00000000000E+00 0. -1.
         22    1    3    3    0    0  0.40864701111E+02  0.13861269922E+02 -0.12778646052E+03  0.13487563936E+03  0.00000000000E+00 0. -1.
         22    1    3    3    0    0  0.93782893380E+02 -0.16537116945E+03 -0.96712107906E+03  0.98562976636E+03  0.00000000000E+00 0. -1.
</event>
<event>
 7    1  0.6888431E-006  0.1284858E+03  0.7818608E-02  0.1335516E+00
          2   -1    0    0  502    0  0.00000000000E+00  0.00000000000E+00  0.10090552992E+04  0.10090552992E+04  0.00000000000E+00 0. -1.
          1   -1    0    0  501    0 -0.00000000000E+00 -0.00000000000E+00 -0.12355759405E+03  0.12355759405E+03  0.00000000000E+00 0. -1.
         25    2    1    2    0    0  0.12126260485E+03 -0.29693743448E+01  0.15458800881E+03  0.23288552068E+03  0.12499910702E+03 0.  0.
          2    1    1    2  501    0  0.14966843330E+01  0.47043159843E+02 -0.72149809074E+02  0.86144610403E+02  0.00000000000E+00 0. -1.
          1    1    1    2  502    0 -0.12275928918E+03 -0.44073785498E+02  0.80305950542E+03  0.81358276216E+03  0.00000000000E+00 0. -1.
         22    1    3    3    0    0  0.29989271483E+02 -0.49985006969E+02  0.10211905435E+03  0.11758468687E+03  0.00000000000E+00 0.  1.
         22    1    3    3    0    0  0.91273333365E+02  0.47015632624E+02  0.52468954467E+02  0.11530083381E+03  0.00000000000E+00 0.  1.
</event>
<event>
 7    1  0.6888431E-006  0.3174202E+02  0.7818608E-02  0.1606166E+00
          2   -1    0    0  502    0  0.00000000000E+00  0.00000000000E+00  0.21825036852E+03  0.21825036852E+03  0.00000000000E+00 0. -1.
          1   -1    0    0  501    0 -0.00000000000E+00 -0.00000000000E+00 -0.18082106918E+03  0.18082106918E+03  0.00000000000E+00 0. -1.
         25    2    1    2    0    0  0.41029833702E+02 -0.17979341951E+02 -0.69866771302E+02  0.15003651818E+03  0.12499154798E+03 0.  0.
          2    1    1    2  501    0 -0.25281076569E+02 -0.95144075031E+01 -0.66812693147E+02  0.72066585517E+02  0.00000000000E+00 0. -1.
          1    1    1    2  502    0 -0.15748757133E+02  0.27493749454E+02  0.17410876378E+03  0.17696833399E+03  0.00000000000E+00 0. -1.
         22    1    3    3    0    0  0.14291504498E+02 -0.44679503084E+02  0.21172889431E+02  0.51466458432E+02  0.00000000000E+00 0.  1.
         22    1    3    3    0    0  0.26738329205E+02  0.26700161134E+02 -0.91039660733E+02  0.98570059752E+02  0.00000000000E+00 0.  1.
</event>
<event>
 7    1  0.6888431E-006  0.1584940E+03  0.7818608E-02  0.1315931E+00
          2   -1    0    0  502    0  0.00000000000E+00  0.00000000000E+00  0.16336695404E+04  0.16336695404E+04  0.00000000000E+00 0. -1.
          1   -1    0    0  501    0 -0.00000000000E+00 -0.00000000000E+00 -0.11385404229E+04  0.11385404229E+04  0.00000000000E+00 0. -1.
         25    2    1    2    0    0 -0.15774417934E+03 -0.40550473939E+02  0.27624603034E+03  0.34418657365E+03  0.12499984461E+03 0.  0.
          2    1    1    2  501    0 -0.85284776360E+00  0.45373515521E+02 -0.10993445313E+04  0.11002808195E+04  0.00000000000E+00 0. -1.
          1    1    1    2  502    0  0.15859702711E+03 -0.48230415823E+01  0.13182276184E+04  0.13277425702E+04  0.00000000000E+00 0. -1.
         22    1    3    3    0    0 -0.10756316071E+03 -0.67123870521E+02  0.25268373632E+03  0.28270924664E+03  0.00000000000E+00 0. -1.
         22    1    3    3    0    0 -0.50181018635E+02  0.26573396582E+02  0.23562294016E+02  0.61477327011E+02  0.00000000000E+00 0. -1.
</event>
<event>
 7    1  0.6888431E-006  0.1363808E+03  0.7818608E-02  0.1239568E+00
          2   -1    0    0  502    0  0.00000000000E+00  0.00000000000E+00  0.18160764904E+04  0.18160764904E+04  0.00000000000E+00 0. -1.
          1   -1    0    0  501    0 -0.00000000000E+00 -0.00000000000E+00 -0.14892553835E+03  0.14892553835E+03  0.00000000000E+00 0. -1.
         25    2    1    2    0    0 -0.20339966517E+03 -0.11463320550E+03  0.53795427235E+03  0.59960958489E+03  0.12499863823E+03 0.  0.
          2    1    1    2  501    0  0.12449498636E+03  0.38811065167E+02 -0.78856513336E+02  0.15239307761E+03  0.00000000000E+00 0. -1.
          1    1    1    2  502    0  0.78904678811E+02  0.75822140338E+02  0.12080531930E+04  0.12129993662E+04  0.00000000000E+00 0. -1.
         22    1    3    3    0    0 -0.13609067170E+03 -0.20090286894E+02  0.20387142991E+03  0.24594277888E+03  0.00000000000E+00 0. -1.
         22    1    3    3    0    0 -0.67308993472E+02 -0.94542918611E+02  0.33408284243E+03  0.35366680601E+03  0.00000000000E+00 0. -1.
</event>
<event>
 7    1  0.6888431E-006  0.4103844E+02  0.7818608E-02  0.1554111E+00
          2   -1    0    0  502    0  0.00000000000E+00  0.00000000000E+00  0.56924125106E+03  0.56924125106E+03  0.00000000000E+00 0. -1.
          1   -1    0    0  501    0 -0.00000000000E+00 -0.00000000000E+00 -0.27505170756E+03  0.27505170756E+03  0.00000000000E+00 0. -1.
         25    2    1    2    0    0 -0.15204968505E+02 -0.61106191947E+01  0.10761608986E+02  0.12652813595E+03  0.12500010490E+03 0.  0.
          2    1    1    2  501    0  0.41413983644E+02 -0.58614039047E+01 -0.21473431171E+03  0.21876996760E+03  0.00000000000E+00 0. -1.
          1    1    1    2  502    0 -0.26209015139E+02  0.11972023099E+02  0.49816224623E+03  0.49899485506E+03  0.00000000000E+00 0. -1.
         22    1    3    3    0    0  0.31751673645E+02 -0.71899457139E+00  0.53884021913E+02  0.62547370448E+02  0.00000000000E+00 0.  1.
         22    1    3    3    0    0 -0.46956642150E+02 -0.53916246233E+01 -0.43122412926E+02  0.63980765506E+02  0.00000000000E+00 0.  1.
</event>
<event>
 7    1  0.6888431E-006  0.1757997E+03  0.7818608E-02  0.1284914E+00
          2   -1    0    0  502    0  0.00000000000E+00  0.00000000000E+00  0.13478279436E+04  0.13478279436E+04  0.00000000000E+00 0. -1.
          1   -1    0    0  501    0 -0.00000000000E+00 -0.00000000000E+00 -0.13832163878E+03  0.13832163878E+03  0.00000000000E+00 0. -1.
         25    2    1    2    0    0  0.37991661702E+02  0.19012566400E+03  0.84468295752E+02  0.24565897824E+03  0.12498922406E+03 0.  0.
          2    1    1    2  501    0  0.10269279388E+02 -0.16491891380E+03  0.62662755189E+02  0.17672104321E+03  0.00000000000E+00 0. -1.
          1    1    1    2  502    0 -0.48260941090E+02 -0.25206750205E+02  0.10623752538E+04  0.10637695609E+04  0.00000000000E+00 0. -1.
         22    1    3    3    0    0  0.81564273198E+02  0.14849961387E+03  0.52095111028E+02  0.17725339652E+03  0.00000000000E+00 0.  1.
         22    1    3    3    0    0 -0.43572611497E+02  0.41626050127E+02  0.32373184724E+02  0.68405581724E+02  0.00000000000E+00 0.  1.
</event>
<event>
 7    1  0.6888431E-006  0.8308018E+02  0.7818608E-02  0.1339626E+00
          2   -1    0    0  502    0  0.00000000000E+00  0.00000000000E+00  0.30213143592E+03  0.30213143592E+03  0.00000000000E+00 0. -1.
          1   -1    0    0  501    0 -0.00000000000E+00 -0.00000000000E+00 -0.12538899391E+04  0.12538899391E+04  0.00000000000E+00 0. -1.
         25    2    1    2    0    0  0.17804730725E+02 -0.18083606426E+02  0.30473357501E+02  0.13114119138E+03  0.12500144519E+03 0.  0.
          2    1    1    2  501    0  0.61094767324E+02 -0.34646696641E+02 -0.11923024335E+04  0.11943693135E+04  0.00000000000E+00 0. -1.
          1    1    1    2  502    0 -0.78899498049E+02  0.52730303067E+02  0.21007057284E+03  0.23051087009E+03  0.00000000000E+00 0. -1.
         22    1    3    3    0    0 -0.23706512520E+02  0.43738053725E+02  0.26978532021E+02  0.56593791793E+02  0.00000000000E+00 0.  1.
         22    1    3    3    0    0  0.41511243245E+02 -0.61821660151E+02  0.34948254800E+01  0.74547399584E+02  0.00000000000E+00 0.  1.
</event>
<event>
 7    1  0.6888431E-006  0.9069742E+02  0.7818608E-02  0.1368167E+00
          2   -1    0    0  502    0  0.00000000000E+00  0.00000000000E+00  0.15559900647E+02  0.15559900647E+02  0.00000000000E+00 0. -1.
          1   -1    0    0  501    0 -0.00000000000E+00 -0.00000000000E+00 -0.28019236267E+04  0.28019236267E+04  0.00000000000E+00 0. -1.
         25    2    1    2    0    0  0.24330216217E+02  0.74573346651E+02 -0.18475314110E+04  0.18534159290E+04  0.12500059102E+03 0.  0.
          2    1    1    2  501    0  0.47929753403E+02 -0.15916025508E+02 -0.76689737844E+03  0.76855850147E+03  0.00000000000E+00 0. -1.
          1    1    1    2  502    0 -0.72259969620E+02 -0.58657321144E+02 -0.17193493656E+03  0.19550909683E+03  0.00000000000E+00 0. -1.
         22    1    3    3    0    0  0.25621191409E+02  0.93102515138E+01 -0.77025621757E+02  0.81707237376E+02  0.00000000000E+00 0. -1.
         22    1    3    3    0    0 -0.12909751913E+01  0.65263095138E+02 -0.17705057893E+04  0.17717086916E+04  0.00000000000E+00 0. -1.
</event>
<event>
 7    1  0.6888431E-006  0.1592917E+03  0.7818608E-02  0.1302919E+00
          2   -1    0    0  502    0  0.00000000000E+00  0.00000000000E+00  0.13921136648E+04  0.13921136648E+04  0.00000000000E+00 0. -1.
          1   -1    0    0  501    0 -0.00000000000E+00 -0.00000000000E+00 -0.23913991534E+03  0.23913991534E+03  0.00000000000E+00 0. -1.
         25    2    1    2    0    0 -0.12346030865E+03  0.24814198868E+02  0.45167849849E+03  0.48527989022E+03  0.12499965432E+03 0.  0.
          2    1    1    2  501    0 -0.46996104926E+02  0.19337086753E+02 -0.21090152431E+03  0.21693780159E+03  0.00000000000E+00 0. -1.
          1    1    1    2  502    0  0.17045641357E+03 -0.44151285621E+02  0.91219677532E+03  0.92903588835E+03  0.00000000000E+00 0. -1.
         22    1    3    3    0    0 -0.13176662032E+03  0.43920857364E+00  0.43519253841E+03  0.45470339851E+03  0.00000000000E+00 0. -1.
         22    1    3    3    0    0  0.83063116704E+01  0.24374990295E+02  0.16485960083E+02  0.30576491710E+02  0.00000000000E+00 0. -1.
</event>
<event>
 7    1  0.6888431E-006  0.1848416E+03  0.7818608E-02  0.1255692E+00
          2   -1    0    0  502    0  0.00000000000E+00  0.00000000000E+00  0.12640603460E+04  0.12640603460E+04  0.00000000000E+00 0. -1.
          1   -1    0    0  501    0 -0.00000000000E+00 -0.00000000000E+00 -0.21906029873E+03  0.21906029873E+03  0.00000000000E+00 0. -1.
         25    2    1    2    0    0 -0.97099526116E+02 -0.19981266825E+03  0.40905359613E+03  0.48197848377E+03  0.12499997580E+03 0.  0.
          2    1    1    2  501    0  0.63339077994E+02  0.26569566221E+02 -0.16618572881E+03  0.17982068043E+03  0.00000000000E+00 0. -1.
          1    1    1    2  502    0  0.33760448122E+02  0.17324310203E+03  0.80213217990E+03  0.82132148048E+03  0.00000000000E+00 0. -1.
         22    1    3    3    0    0  0.13146214464E+02 -0.78637042461E+02  0.20721317162E+03  0.22202230945E+03  0.00000000000E+00 0.  1.
         22    1    3    3    0    0 -0.11024574058E+03 -0.12117562579E+03  0.20184042451E+03  0.25995617432E+03  0.00000000000E+00 0.  1.
</event>
<event>
 7    1  0.6888431E-006  0.4401807E+02  0.7818608E-02  0.1499946E+00
          2   -1    0    0  502    0  0.00000000000E+00  0.00000000000E+00  0.13795023325E+03  0.13795023325E+03  0.00000000000E+00 0. -1.
          1   -1    0    0  501    0 -0.00000000000E+00 -0.00000000000E+00 -0.18637350766E+04  0.18637350766E+04  0.00000000000E+00 0. -1.
         25    2    1    2    0    0  0.14162814681E+02  0.75583816540E+02 -0.68536301605E+03  0.70089966571E+03  0.12499751592E+03 0.  0.
          2    1    1    2  501    0  0.78624270070E+01 -0.37648422725E+02 -0.11665825812E+04  0.11672164067E+04  0.00000000000E+00 0. -1.
          1    1    1    2  502    0 -0.22025241688E+02 -0.37935393815E+02  0.12616075384E+03  0.13356923742E+03  0.00000000000E+00 0. -1.
         22    1    3    3    0    0 -0.73182608396E+00  0.28838965173E+02 -0.23466243675E+02  0.37187176202E+02  0.00000000000E+00 0. -1.
         22    1    3    3    0    0  0.14894640765E+02  0.46744851367E+02 -0.66189677237E+03  0.66371248951E+03  0.00000000000E+00 0. -1.
</event>
<event>
 7    1  0.6888431E-006  0.1613480E+03  0.7818608E-02  0.1243785E+00
          2   -1    0    0  502    0  0.00000000000E+00  0.00000000000E+00  0.26502278434E+03  0.26502278434E+03  0.00000000000E+00 0. -1.
          1   -1    0    0  501    0 -0.00000000000E+00 -0.00000000000E+00 -0.12081835736E+04  0.12081835736E+04  0.00000000000E+00 0. -1.
         25    2    1    2    0    0  0.11403092291E+03 -0.10604643372E+03 -0.15212296559E+03  0.25104368985E+03  0.12503055655E+03 0.  0.
          2    1    1    2  501    0  0.48401065076E+02  0.74247722424E+02 -0.97251335081E+03  0.97654370353E+03  0.00000000000E+00 0. -1.
          1    1    1    2  502    0 -0.16243198799E+03  0.31798711298E+02  0.18147552719E+03  0.24561896452E+03  0.00000000000E+00 0. -1.
         22    1    3    3    0    0  0.67836540551E+02  0.70500535296E+01 -0.19951505820E+02  0.71060270709E+02  0.00000000000E+00 0. -1.
         22    1    3    3    0    0  0.46194382358E+02 -0.11309648725E+03 -0.13217145977E+03  0.17998341915E+03  0.00000000000E+00 0. -1.
</event>
<event>
 7    1  0.6888431E-006  0.2593220E+03  0.7818608E-02  0.1205152E+00
          2   -1    0    0  502    0  0.00000000000E+00  0.00000000000E+00  0.37850255412E+03  0.37850255412E+03  0.00000000000E+00 0. -1.
          1   -1    0    0  501    0 -0.00000000000E+00 -0.00000000000E+00 -0.21552423531E+04  0.21552423531E+04  0.00000000000E+00 0. -1.
         25    2    1    2    0    0  0.42851359977E+02 -0.18889168522E+03 -0.34455196637E+03  0.41455608684E+03  0.12499753523E+03 0.  0.
          2    1    1    2  501    0  0.55204775852E+02 -0.61290018719E+02 -0.17219980906E+04  0.17239725803E+04  0.00000000000E+00 0. -1.
          1    1    1    2  502    0 -0.98056135829E+02  0.25018170394E+03  0.28981025800E+03  0.39521624005E+03  0.00000000000E+00 0. -1.
         22    1    3    3    0    0  0.20231412363E+02 -0.18610122879E+02 -0.16034298875E+03  0.16268226935E+03  0.00000000000E+00 0.  1.
         22    1    3    3    0    0  0.22619947614E+02 -0.17028156234E+03 -0.18420897762E+03  0.25187381749E+03  0.00000000000E+00 0.  1.
</event>
<event>
 7    1  0.6888431E-006  0.3646941E+02  0.7818608E-02  0.1573763E+00
          2   -1    0    0  502    0  0.00000000000E+00  0.00000000000E+00  0.12323416606E+04  0.12323416606E+04  0.00000000000E+00 0. -1.
          1   -1    0    0  501    0 -0.00000000000E+00 -0.00000000000E+00 -0.10438261174E+03  0.10438261174E+03  0.00000000000E+00 0. -1.
         25    2    1    2    0    0 -0.52000976154E+02 -0.48034486275E+01  0.52431630758E+03  0.54153514304E+03  0.12500218445E+03 0.  0.
          2    1    1    2  501    0  0.32586599252E+02 -0.16258513951E+02 -0.92005862451E+02  0.98951020470E+02  0.00000000000E+00 0. -1.
          1    1    1    2  502    0  0.19414376902E+02  0.21061962578E+02  0.69564860378E+03  0.69623810887E+03  0.00000000000E+00 0. -1.
         22    1    3    3    0    0 -0.80509024329E+01  0.53742617314E+02  0.31813887862E+03  0.32274669949E+03  0.00000000000E+00 0.  1.
         22    1    3    3    0    0 -0.43950073721E+02 -0.58546065941E+02  0.20617742896E+03  0.21878844355E+03  0.00000000000E+00 0.  1.
</event>
<event>
 7    1  0.6888431E-006  0.7662354E+02  0.7818608E-02  0.1371994E+00
          2   -1    0    0  502    0  0.00000000000E+00  0.00000000000E+00  0.53016981492E+03  0.53016981492E+03  0.00000000000E+00 0. -1.
          1   -1    0    0  501    0 -0.00000000000E+00 -0.00000000000E+00 -0.11265033715E+03  0.11265033715E+03  0.00000000000E+00 0. -1.
         25    2    1    2    0    0 -0.54839928923E+02 -0.88348026728E+02  0.26299982502E+03  0.30920324024E+03  0.12499977674E+03 0.  0.
          2    1    1    2  501    0 -0.10943037978E+02  0.56872395275E+02 -0.73870140243E+02  0.93867017871E+02  0.00000000000E+00 0. -1.
          1    1    1    2  502    0  0.65782966901E+02  0.31475631453E+02  0.22838979299E+03  0.23974989396E+03  0.00000000000E+00 0. -1.
         22    1    3    3    0    0  0.29092228231E+02 -0.46013837260E+02  0.16347804283E+03  0.17230409586E+03  0.00000000000E+00 0. -1.
         22    1    3    3    0    0 -0.83932157155E+02 -0.42334189467E+02  0.99521782191E+02  0.13689914438E+03  0.00000000000E+00 0. -1.
</event>
<event>
 7    1  0.6888431E-006  0.8716747E+02  0.7818608E-02  0.1429749E+00
          2   -1    0    0  502    0  0.00000000000E+00  0.00000000000E+00  0.73358982794E+03  0.73358982794E+03  0.00000000000E+00 0. -1.
          1   -1    0    0  501    0 -0.00000000000E+00 -0.00000000000E+00 -0.26746200755E+03  0.26746200755E+03  0.00000000000E+00 0. -1.
         25    2    1    2    0    0  0.44753731040E+02 -0.37183680226E+02  0.59672637293E+03  0.61244858603E+03  0.12500153546E+03 0.  0.
          2    1    1    2  501    0 -0.55748790957E+02  0.67488662076E+02 -0.25002302912E+03  0.26490406243E+03  0.00000000000E+00 0. -1.
          1    1    1    2  502    0  0.10995059917E+02 -0.30304981850E+02  0.11942447658E+03  0.12369918704E+03  0.00000000000E+00 0. -1.
         22    1    3    3    0    0  0.37197604588E+02  0.21192480979E+02  0.47817984111E+03  0.48009243222E+03  0.00000000000E+00 0.  1.
         22    1    3    3    0    0  0.75561264524E+01 -0.58376161205E+02  0.11854653182E+03  0.13235615381E+03  0.00000000000E+00 0.  1.
</event>
<event>
 7    1  0.6888431E-006  0.1050499E+03  0.7818608E-02  0.1405644E+00
          2   -1    0    0  502    0  0.00000000000E+00  0.00000000000E+00  0.53503700760E+03  0.53503700760E+03  0.00000000000E+00 0. -1.
          1   -1    0    0  501    0 -0.00000000000E+00 -0.00000000000E+00 -0.45367818732E+03  0.45367818732E+03  0.00000000000E+00 0. -1.
         25    2    1    2    0    0  0.56843931861E+02  0.12428606926E+03 -0.27226708495E+03  0.32929148531E+03  0.12500102857E+03 0.  0.
          2    1    1    2  501    0 -0.12245929349E+02 -0.29800867453E+02 -0.14573270631E+03  0.14925172085E+03  0.00000000000E+00 0. -1.
          1    1    1    2  502    0 -0.44598002512E+02 -0.94485201810E+02  0.49935861155E+03  0.51017198876E+03  0.00000000000E+00 0. -1.
         22    1    3    3    0    0 -0.28890026790E+02 -0.50331095027E+01 -0.54723171185E+02  0.62085354986E+02  0.00000000000E+00 0. -1.
         22    1    3    3    0    0  0.85733958651E+02  0.12931917877E+03 -0.21754391377E+03  0.26720613032E+03  0.00000000000E+00 0. -1.
</event>
<event>
 7    1  0.6888431E-006  0.9921020E+02  0.7818608E-02  0.1305391E+00
          2   -1    0    0  502    0  0.00000000000E+00  0.00000000000E+00  0.40624890754E+03  0.40624890754E+03  0.00000000000E+00 0. -1.
          1   -1    0    0  501    0 -0.00000000000E+00 -0.00000000000E+00 -0.42311259598E+03  0.42311259598E+03  0.00000000000E+00 0. -1.
         25    2    1    2    0    0  0.13561819805E+02 -0.17527924289E+02 -0.22700775934E+03  0.26009760840E+03  0.12500836776E+03 0.  0.
          2    1    1    2  501    0  0.31166102887E+02 -0.73427231569E+02 -0.16360490895E+03  0.18201497339E+03  0.00000000000E+00 0. -1.
          1    1    1    2  502    0 -0.44727922692E+02  0.90955155857E+02  0.37374897985E+03  0.38724892173E+03  0.00000000000E+00 0. -1.
         22    1    3    3    0    0 -0.11599786820E+01  0.25208966059E+02  0.32509231147E+01  0.25444174607E+02  0.00000000000E+00 0. -1.
         22    1    3    3    0    0  0.14721798487E+02 -0.42736890348E+02 -0.23025868245E+03  0.23465343380E+03  0.00000000000E+00 0. -1.
</event>
<event>
 7    1  0.6888431E-006  0.5644064E+02  0.7818608E-02  0.1433274E+00
          2   -1    0    0  502    0  0.00000000000E+00  0.00000000000E+00  0.15217253596E+04  0.15217253596E+04  0.00000000000E+00 0. -1.
          1   -1    0    0  501    0 -0.00000000000E+00 -0.00000000000E+00 -0.11167292669E+02  0.11167292669E+02  0.00000000000E+00 0. -1.
         25    2    1    2    0    0 -0.54647495235E+02 -0.45116610371E+02  0.73692826447E+03  0.75080565299E+03  0.12499601718E+03 0.  0.
          2    1    1    2  501    0 -0.19059695834E+01  0.48441304653E+02  0.20555116863E+03  0.21119061447E+03  0.00000000000E+00 0. -1.
          1    1    1    2  502    0  0.56553464818E+02 -0.33246942819E+01  0.56807863379E+03  0.57089638477E+03  0.00000000000E+00 0. -1.
         22    1    3    3    0    0 -0.22480627019E+02 -0.16667914607E+02  0.67423552484E+03  0.67481607934E+03  0.00000000000E+00 0.  1.
         22    1    3    3    0    0 -0.32166868216E+02 -0.28448695764E+02  0.62692739628E+02  0.75989573650E+02  0.00000000000E+00 0.  1.
</event>
<event>
 7    1  0.1327287E-005  0.1136928E+03  0.7818608E-02  0.1327870E+00
          2   -1    0    0  502    0  0.00000000000E+00  0.00000000000E+00  0.16513451012E+04  0.16513451012E+04  0.00000000000E+00 0. -1.
          1   -1    0    0  501    0 -0.00000000000E+00 -0.00000000000E+00 -0.10731254080E+04  0.10731254080E+04  0.00000000000E+00 0. -1.
         25    2    1    2    0    0 -0.38815343817E+02 -0.73075141769E+02 -0.22398290628E+03  0.26951707916E+03  0.12499802555E+03 0.  0.
          2    1    1    2  501    0 -0.56032924025E+02  0.97897240129E+01 -0.82339721403E+03  0.82535961819E+03  0.00000000000E+00 0. -1.
          1    1    1    2  502    0  0.94848267841E+02  0.63285417756E+02  0.16255998135E+04  0.16295938119E+04  0.00000000000E+00 0. -1.
         22    1    3    3    0    0 -0.42349982027E+02 -0.53563850321E+02 -0.30100557289E+02  0.74623391695E+02  0.00000000000E+00 0. -1.
         22    1    3    3    0    0  0.35346382098E+01 -0.19511291448E+02 -0.19388234899E+03  0.19489368746E+03  0.00000000000E+00 0. -1.
</event>
<event>
 7    1  0.6888431E-006  0.8990907E+02  0.7818608E-02  0.1324018E+00
          2   -1    0    0  502    0  0.00000000000E+00  0.00000000000E+00  0.41818109602E+03  0.41818109602E+03  0.00000000000E+00 0. -1.
          1   -1    0    0  501    0 -0.00000000000E+00 -0.00000000000E+00 -0.54935507021E+03  0.54935507021E+03  0.00000000000E+00 0. -1.
         25    2    1    2    0    0  0.90063276355E+02  0.12728517038E+03 -0.26767776872E+03  0.33405049800E+03  0.12500175600E+03 0.  0.
          2    1    1    2  501    0 -0.20961031613E+02 -0.71410802212E+02 -0.23759422664E+03  0.24897767782E+03  0.00000000000E+00 0. -1.
          1    1    1    2  502    0 -0.69102244742E+02 -0.55874368168E+02  0.37409802117E+03  0.38450799041E+03  0.00000000000E+00 0. -1.
         22    1    3    3    0    0  0.10043127839E+03  0.14555813292E+03 -0.22243107813E+03  0.28416403055E+03  0.00000000000E+00 0. -1.
         22    1    3    3    0    0 -0.10368002033E+02 -0.18272962541E+02 -0.45246690584E+02  0.49886467454E+02  0.00000000000E+00 0. -1.
</event>
<event>
 7    1  0.6888431E-006  0.1534007E+03  0.7818608E-02  0.1263719E+00
          2   -1    0    0  502    0  0.00000000000E+00  0.00000000000E+00  0.97297910777E+03  0.97297910777E+03  0.00000000000E+00 0. -1.
          1   -1    0    0  501    0 -0.00000000000E+00 -0.00000000000E+00 -0.24983302126E+03  0.24983302126E+03  0.00000000000E+00 0. -1.
         25    2    1    2    0    0  0.21163226865E+02 -0.88676470964E+02  0.11812038782E+03  0.19465017749E+03  0.12499946761E+03 0.  0.
          2    1    1    2  501    0  0.23807781152E+02 -0.72683388878E+02 -0.19569370006E+03  0.21010880445E+03  0.00000000000E+00 0. -1.
          1    1    1    2  502    0 -0.44971008017E+02  0.16135985984E+03  0.80071939875E+03  0.81805314709E+03  0.00000000000E+00 0. -1.
         22    1    3    3    0    0  0.58283079340E+02  0.31085445755E+00  0.43401179511E+02  0.72668262335E+02  0.00000000000E+00 0.  1.
         22    1    3    3    0    0 -0.37119852475E+02 -0.88987325422E+02  0.74719208310E+02  0.12198191515E+03  0.00000000000E+00 0.  1.
</event>
<event>
 7    1  0.6888431E-006  0.1261398E+03  0.7818608E-02  0.1260246E+00
          2   -1    0    0  502    0  0.00000000000E+00  0.00000000000E+00  0.11136809366E+04  0.11136809366E+04  0.00000000000E+00 0. -1.
          1   -1    0    0  501    0 -0.00000000000E+00 -0.00000000000E+00 -0.18660538632E+03  0.18660538632E+03  0.00000000000E+00 0. -1.
         25    2    1    2    0    0 -0.16218820544E+02  0.64200994046E+02  0.40484776477E+03  0.42884985451E+03  0.12500266917E+03 0.  0.
          2    1    1    2  501    0 -0.67090420669E+02 -0.11236619289E+03 -0.14614160931E+03  0.19617506422E+03  0.00000000000E+00 0. -1.
          1    1    1    2  502    0  0.83309241213E+02  0.48165198840E+02  0.66836939485E+03  0.67526140421E+03  0.00000000000E+00 0. -1.
         22    1    3    3    0    0 -0.81505488106E+01 -0.19091173540E+02  0.64189901656E+01  0.21728041509E+02  0.00000000000E+00 0.  1.
         22    1    3    3    0    0 -0.80682717332E+01  0.83292167586E+02  0.39842877460E+03  0.40712181300E+03  0.00000000000E+00 0.  1.
</event>
<event>
 7    1  0.6888431E-006  0.4305811E+02  0.7818608E-02  0.1597567E+00
          2   -1    0    0  502    0  0.00000000000E+00  0.00000000000E+00  0.32126921115E+03  0.32126921115E+03  0.00000000000E+00 0. -1.
          1   -1    0    0  501    0 -0.00000000000E+00 -0.00000000000E+00 -0.17532202207E+03  0.17532202207E+03  0.00000000000E+00 0. -1.
         25    2    1    2    0    0  0.32026910249E+02 -0.45321084599E+02  0.33295783633E+02  0.14076070812E+03  0.12500097621E+03 0.  0.
          2    1    1    2  501    0 -0.20548154086E+02  0.41741180036E+01 -0.11871554949E+03  0.12055302397E+03  0.00000000000E+00 0. -1.
          1    1    1    2  502    0 -0.11478756162E+02  0.41146966595E+02  0.23136695494E+03  0.23527750114E+03  0.00000000000E+00 0. -1.
         22    1    3    3    0    0  0.53995395862E+02  0.11162438171E+02 -0.21379731227E+02  0.59137092485E+02  0.00000000000E+00 0.  1.
         22    1    3    3    0    0 -0.21968485613E+02 -0.56483522769E+02  0.54675514861E+02  0.81623615638E+02  0.00000000000E+00 0.  1.
</event>
<event>
 7    1  0.6888431E-006  0.9890711E+02  0.7818608E-02  0.1470612E+00
          2   -1    0    0  502    0  0.00000000000E+00  0.00000000000E+00  0.25519951864E+03  0.25519951864E+03  0.00000000000E+00 0. -1.
          1   -1    0    0  501    0 -0.00000000000E+00 -0.00000000000E+00 -0.63227104997E+03  0.63227104997E+03  0.00000000000E+00 0. -1.
         25    2    1    2    0    0 -0.14778106825E+02 -0.94720525050E+02 -0.28920060146E+03  0.32932062282E+03  0.12499885767E+03 0.  0.
          2    1    1    2  501    0 -0.54246717416E+01  0.10054685682E+03 -0.31466496879E+03  0.33038332292E+03  0.00000000000E+00 0. -1.
          1    1    1    2  502    0  0.20202778567E+02 -0.58263317741E+01  0.22679403892E+03  0.22776662287E+03  0.00000000000E+00 0. -1.
         22    1    3    3    0    0  0.36115970333E+02  0.92564195805E+01 -0.40800968649E+02  0.55269916403E+02  0.00000000000E+00 0.  1.
         22    1    3    3    0    0 -0.50894077158E+02 -0.10397694463E+03 -0.24839963281E+03  0.27405070641E+03  0.00000000000E+00 0.  1.
</event>
<event>
 7    1  0.1117702E-005  0.6142589E+02  0.7818608E-02  0.1421540E+00
          2   -1    0    0  502    0  0.00000000000E+00  0.00000000000E+00  0.97765469109E+03  0.97765469109E+03  0.00000000000E+00 0. -1.
          1   -1    0    0  501    0 -0.00000000000E+00 -0.00000000000E+00 -0.16318618684E+04  0.16318618684E+04  0.00000000000E+00 0. -1.
         25    2    1    2    0    0  0.13113618082E+02 -0.10854002954E+03 -0.31019198234E+03  0.35184718511E+03  0.12499788306E+03 0.  0.
          2    1    1    2  501    0  0.13537250313E+00  0.48703940088E+02 -0.12994042554E+04  0.13003166964E+04  0.00000000000E+00 0. -1.
          1    1    1    2  502    0 -0.13248990585E+02  0.59836089447E+02  0.95538906038E+03  0.95735267798E+03  0.00000000000E+00 0. -1.
         22    1    3    3    0    0  0.52049326018E+02 -0.99679337036E+02 -0.15433685811E+03  0.19095802770E+03  0.00000000000E+00 0.  1.
         22    1    3    3    0    0 -0.38935707936E+02 -0.88606924993E+01 -0.15585512422E+03  0.16088915741E+03  0.00000000000E+00 0.  1.
</event>
<event>
 7    1  0.6888431E-006  0.1992955E+03  0.7818608E-02  0.1335444E+00
          2   -1    0    0  502    0  0.00000000000E+00  0.00000000000E+00  0.91762667518E+03  0.91762667518E+03  0.00000000000E+00 0. -1.
          1   -1    0    0  501    0 -0.00000000000E+00 -0.00000000000E+00 -0.55675922399E+03  0.55675922399E+03  0.00000000000E+00 0. -1.
         25    2    1    2    0    0 -0.20134191931E+03 -0.60659449051E+02 -0.15237710992E+03  0.28820562171E+03  0.12500223807E+03 0.  0.
          2    1    1    2  501    0  0.17802913048E+03  0.80112838678E+02 -0.30784557992E+03  0.36452892793E+03  0.00000000000E+00 0. -1.
          1    1    1    2  502    0  0.23312788835E+02 -0.19453389627E+02  0.82109014104E+03  0.82165134954E+03  0.00000000000E+00 0. -1.
         22    1    3    3    0    0 -0.13263417728E+03 -0.77786398513E+02 -0.15366560641E+03  0.21738368699E+03  0.00000000000E+00 0.  1.
         22    1    3    3    0    0 -0.68707742034E+02  0.17126949462E+02  0.12884964913E+01  0.70821934713E+02  0.00000000000E+00 0.  1.
</event>
<event>
 7    1  0.6888431E-006  0.8833250E+02  0.7818608E-02  0.1345347E+00
          2   -1    0    0  502    0  0.00000000000E+00  0.00000000000E+00  0.23919722391E+03  0.23919722391E+03  0.00000000000E+00 0. -1.
          1   -1    0    0  501    0 -0.00000000000E+00 -0.00000000000E+00 -0.64557902705E+03  0.64557902705E+03  0.00000000000E+00 0. -1.
         25    2    1    2    0    0  0.34679170011E+02 -0.41031775175E+02 -0.12659774137E+03  0.18584401632E+03  0.12499903549E+03 0.  0.
          2    1    1    2  501    0 -0.32291298027E+01  0.95477427698E+02 -0.47982487609E+03  0.48924255558E+03  0.00000000000E+00 0. -1.
          1    1    1    2  502    0 -0.31450040208E+02 -0.54445652523E+02  0.20004081432E+03  0.20968967905E+03  0.00000000000E+00 0. -1.
         22    1    3    3    0    0  0.68010250165E+02 -0.29709177357E+02 -0.24988746421E+02  0.78310068283E+02  0.00000000000E+00 0. -1.
         22    1    3    3    0    0 -0.33331080154E+02 -0.11322597818E+02 -0.10160899495E+03  0.10753394804E+03  0.00000000000E+00 0. -1.
</event>
<event>
 7    1  0.6888431E-006  0.2899401E+03  0.7818608E-02  0.1168349E+00
          2   -1    0    0  502    0  0.00000000000E+00  0.00000000000E+00  0.17983995554E+04  0.17983995554E+04  0.00000000000E+00 0. -1.
          1   -1    0    0  501    0 -0.00000000000E+00 -0.00000000000E+00 -0.16773672976E+04  0.16773672976E+04  0.00000000000E+00 0. -1.
         25    2    1    2    0    0 -0.14505598303E+03  0.19675427042E+03 -0.32804179168E+03  0.42776938021E+03  0.12498697697E+03 0.  0.
          2    1    1    2  501    0  0.70759913909E+02  0.85586282329E+02 -0.12848632063E+04  0.12896532232E+04  0.00000000000E+00 0. -1.
          1    1    1    2  502    0  0.74296069117E+02 -0.28234055275E+03  0.17339372557E+04  0.17583442497E+04  0.00000000000E+00 0. -1.
         22    1    3    3    0    0 -0.13553808051E+03  0.11582663522E+03 -0.15397197684E+03  0.23557111526E+03  0.00000000000E+00 0.  1.
         22    1    3    3    0    0 -0.95179025131E+01  0.80927635206E+02 -0.17406981484E+03  0.19219826494E+03  0.00000000000E+00 0.  1.
</event>
<event>
 7    1  0.6888431E-006  0.8349738E+02  0.7818608E-02  0.1357848E+00
          2   -1    0    0  502    0  0.00000000000E+00  0.00000000000E+00  0.89492730530E+03  0.89492730530E+03  0.00000000000E+00 0. -1.
          1   -1    0    0  501    0 -0.00000000000E+00 -0.00000000000E+00 -0.37788468967E+03  0.37788468967E+03  0.00000000000E+00 0. -1.
         25    2    1    2    0    0 -0.12946273956E+03 -0.55917411844E+02 -0.93007441286E+02  0.21015421113E+03  0.12500820149E+03 0.  0.
          2    1    1    2  501    0  0.58145707751E+02  0.13984264422E+02 -0.22026093277E+03  0.22823532042E+03  0.00000000000E+00 0. -1.
          1    1    1    2  502    0  0.71317031807E+02  0.41933147422E+02  0.83031098968E+03  0.83442246342E+03  0.00000000000E+00 0. -1.
         22    1    3    3    0    0 -0.46991048423E+02 -0.88147062693E+02 -0.50702303066E+02  0.11202136774E+03  0.00000000000E+00 0.  1.
         22    1    3    3    0    0 -0.82471691136E+02  0.32229650848E+02 -0.42305138221E+02  0.98132843393E+02  0.00000000000E+00 0.  1.
</event>
<event>
 7    1  0.6888431E-006  0.1028996E+03  0.7818608E-02  0.1277612E+00
          2   -1    0    0  502    0  0.00000000000E+00  0.00000000000E+00  0.43798109536E+03  0.43798109536E+03  0.00000000000E+00 0. -1.
          1   -1    0    0  501    0 -0.00000000000E+00 -0.00000000000E+00 -0.10554661383E+04  0.10554661383E+04  0.00000000000E+00 0. -1.
         25    2    1    2    0    0  0.26703204263E+01 -0.16188530816E+02 -0.31759404795E+03  0.34170222025E+03  0.12500091556E+03 0.  0.
          2    1    1    2  501    0 -0.91732907082E+02 -0.39055042935E+02 -0.71586343349E+03  0.72277290903E+03  0.00000000000E+00 0. -1.
          1    1    1    2  502    0  0.89062586656E+02  0.55243573751E+02  0.41597243848E+03  0.42897210441E+03  0.00000000000E+00 0. -1.
         22    1    3    3    0    0  0.25337191744E+01 -0.70536956730E+02 -0.15630577630E+03  0.17150328773E+03  0.00000000000E+00 0.  1.
         22    1    3    3    0    0  0.13660125189E+00  0.54348425914E+02 -0.16128827165E+03  0.17019893252E+03  0.00000000000E+00 0.  1.
</event>
<event>
 7    1  0.6888431E-006  0.7396799E+02  0.7818608E-02  0.1440264E+00
          2   -1    0    0  502    0  0.00000000000E+00  0.00000000000E+00  0.28957404836E+03  0.28957404836E+03  0.00000000000E+00 0. -1.
          1   -1    0    0  501    0 -0.00000000000E+00 -0.00000000000E+00 -0.78359358072E+02  0.78359358072E+02  0.00000000000E+00 0. -1.
         25    2    1    2    0    0  0.72440747884E+02 -0.51486919354E+02  0.10905603880E+03  0.18819334828E+03  0.12499980769E+03 0.  0.
          2    1    1    2  501    0 -0.69673000661E+02  0.16495984449E+02 -0.12720381499E+00  0.71599306595E+02  0.00000000000E+00 0. -1.
          1    1    1    2  502    0 -0.27677472223E+01  0.34990934905E+02  0.10228585530E+03  0.10814075155E+03  0.00000000000E+00 0. -1.
         22    1    3    3    0    0  0.55517497632E+02  0.60635516403E+01  0.11506906481E+03  0.12790562489E+03  0.00000000000E+00 0.  1.
         22    1    3    3    0    0  0.16923250252E+02 -0.57550470994E+02 -0.60130260120E+01  0.60287723398E+02  0.00000000000E+00 0.  1.
</event>
<event>
 7    1  0.6888431E-006  0.6302693E+02  0.7818608E-02  0.1477267E+00
          2   -1    0    0  502    0  0.00000000000E+00  0.00000000000E+00  0.23536366143E+03  0.23536366143E+03  0.00000000000E+00 0. -1.
          1   -1    0    0  501    0 -0.00000000000E+00 -0.00000000000E+00 -0.63225580254E+03  0.63225580254E+03  0.00000000000E+00 0. -1.
         25    2    1    2    0    0  0.32193714842E+02  0.10077564764E+02 -0.34644528198E+01  0.12951522840E+03  0.12499679743E+03 0.  0.
          2    1    1    2  501    0 -0.56133907834E+02 -0.30500968488E+02 -0.56250615159E+03  0.56612233242E+03  0.00000000000E+00 0. -1.
          1    1    1    2  502    0  0.23940192992E+02  0.20423403724E+02  0.16907846330E+03  0.17198190315E+03  0.00000000000E+00 0. -1.
         22    1    3    3    0    0  0.50337122303E+02  0.58843703620E+02 -0.18952271585E+01  0.77459661911E+02  0.00000000000E+00 0.  1.
         22    1    3    3    0    0 -0.18143407461E+02 -0.48766138856E+02 -0.15692256614E+01  0.52055566488E+02  0.00000000000E+00 0.  1.
</event>
<event>
 7    1  0.6888431E-006  0.1153215E+03  0.7818608E-02  0.1253603E+00
          2   -1    0    0  502    0  0.00000000000E+00  0.00000000000E+00  0.33692411948E+03  0.33692411948E+03  0.00000000000E+00 0. -1.
          1   -1    0    0  501    0 -0.00000000000E+00 -0.00000000000E+00 -0.42902848113E+03  0.42902848113E+03  0.00000000000E+00 0. -1.
         25    2    1    2    0    0  0.42816111891E+01 -0.94069583704E+02  0.51163780918E+01  0.15658413768E+03  0.12499998430E+03 0.  0.
          2    1    1    2  501    0  0.10481447490E+03  0.67034067422E+02 -0.32901925726E+03  0.35175746188E+03  0.00000000000E+00 0. -1.
          1    1    1    2  502    0 -0.10909608609E+03  0.27035516283E+02  0.23179851751E+03  0.25761100105E+03  0.00000000000E+00 0. -1.
         22    1    3    3    0    0  0.51237194196E+02 -0.18459670927E+01  0.12691882468E+02  0.52818003977E+02  0.00000000000E+00 0.  1.
         22    1    3    3    0    0 -0.46955583007E+02 -0.92223616611E+02 -0.75755043757E+01  0.10376613370E+03  0.00000000000E+00 0.  1.
</event>
<event>
 7    1  0.6888431E-006  0.1581240E+03  0.7818608E-02  0.1264299E+00
          2   -1    0    0  502    0  0.00000000000E+00  0.00000000000E+00  0.64707306264E+03  0.64707306264E+03  0.00000000000E+00 0. -1.
          1   -1    0    0  501    0 -0.00000000000E+00 -0.00000000000E+00 -0.80183547245E+03  0.80183547245E+03  0.00000000000E+00 0. -1.
         25    2    1    2    0    0  0.85429961127E+01 -0.94523533171E+02  0.81945703303E+02  0.17705236954E+03  0.12499904865E+03 0.  0.
          2    1    1    2  501    0  0.23793445952E+02  0.16083931440E+03 -0.74281444000E+03  0.76040035862E+03  0.00000000000E+00 0. -1.
          1    1    1    2  502    0 -0.32336442065E+02 -0.66315781226E+02  0.50610632689E+03  0.51145580693E+03  0.00000000000E+00 0. -1.
         22    1    3    3    0    0  0.61161281428E+02 -0.41953452689E+02  0.12346407357E+02  0.75187953244E+02  0.00000000000E+00 0.  1.
         22    1    3    3    0    0 -0.52618285315E+02 -0.52570080482E+02  0.69599295945E+02  0.10186441630E+03  0.00000000000E+00 0.  1.
</event>
<event>
 7    1  0.6888431E-006  0.1437311E+03  0.7818608E-02  0.1344453E+00
          2   -1    0    0  502    0  0.00000000000E+00  0.00000000000E+00  0.33961712733E+03  0.33961712733E+03  0.00000000000E+00 0. -1.
          1   -1    0    0  501    0 -0.00000000000E+00 -0.00000000000E+00 -0.39026323538E+03  0.39026323538E+03  0.00000000000E+00 0. -1.
         25    2    1    2    0    0  0.11603196450E+01  0.13411717882E+03 -0.19754230443E+03  0.26951137627E+03  0.12499862361E+03 0.  0.
          2    1    1    2  501    0  0.33162835161E+02 -0.15250855289E+03 -0.11609124859E+03  0.19451429341E+03  0.00000000000E+00 0. -1.
          1    1    1    2  502    0 -0.34323154806E+02  0.18391374076E+02  0.26298744496E+03  0.26585469303E+03  0.00000000000E+00 0. -1.
         22    1    3    3    0    0  0.36694134243E+02  0.50540291533E+02 -0.12945049490E+02  0.63783656702E+02  0.00000000000E+00 0.  1.
         22    1    3    3    0    0 -0.35533814597E+02  0.83576887285E+02 -0.18459725494E+03  0.20572771957E+03  0.00000000000E+00 0.  1.
</event>
<event>
 7    1  0.6888431E-006  0.1432805E+03  0.7818608E-02  0.1240585E+00
          2   -1    0    0  502    0  0.00000000000E+00  0.00000000000E+00  0.54712150963E+03  0.54712150963E+03  0.00000000000E+00 0. -1.
          1   -1    0    0  501    0 -0.00000000000E+00 -0.00000000000E+00 -0.25185060909E+03  0.25185060909E+03  0.00000000000E+00 0. -1.
         25    2    1    2    0    0  0.37461628888E+02 -0.11457368883E+03  0.72073993260E+02  0.18801580798E+03  0.12499911893E+03 0.  0.
          2    1    1    2  501    0  0.96802972792E+02  0.35452700691E+02 -0.16392275363E+03  0.19364498105E+03  0.00000000000E+00 0. -1.
          1    1    1    2  502    0 -0.13426460168E+03  0.79120988139E+02  0.38711966091E+03  0.41731132969E+03  0.00000000000E+00 0. -1.
         22    1    3    3    0    0 -0.47085336093E+01 -0.62445146094E+02  0.97857328014E+02  0.11617927184E+03  0.00000000000E+00 0. -1.
         22    1    3    3    0    0  0.42170162497E+02 -0.52128542736E+02 -0.25783334755E+02  0.71836536135E+02  0.00000000000E+00 0. -1.
</event>
<event>
 7    1  0.6888431E-006  0.1416765E+03  0.7818608E-02  0.1230801E+00
          2   -1    0    0  502    0  0.00000000000E+00  0.00000000000E+00  0.12181527255E+04  0.12181527255E+04  0.00000000000E+00 0. -1.
          1   -1    0    0  501    0 -0.00000000000E+00 -0.00000000000E+00 -0.91301303537E+02  0.91301303537E+02  0.00000000000E+00 0. -1.
         25    2    1    2    0    0 -0.78174131508E+02  0.60241514908E+02  0.17600851854E+03  0.23737102683E+03  0.12500308326E+03 0.  0.
          2    1    1    2  501    0 -0.38262126620E+02 -0.14095603535E+03  0.41596034880E+02  0.15186449339E+03  0.00000000000E+00 0. -1.
          1    1    1    2  502    0  0.11643625813E+03  0.80714520441E+02  0.90924686850E+03  0.92021850878E+03  0.00000000000E+00 0. -1.
         22    1    3    3    0    0 -0.81092099982E+01 -0.27424048365E+02 -0.36590267924E-01  0.28597885487E+02  0.00000000000E+00 0. -1.
         22    1    3    3    0    0 -0.70064921510E+02  0.87665563273E+02  0.17604510881E+03  0.20877314134E+03  0.00000000000E+00 0. -1.
</event>
<event>
 7    1  0.6888431E-006  0.6072709E+02  0.7818608E-02  0.1480512E+00
          2   -1    0    0  502    0  0.00000000000E+00  0.00000000000E+00  0.10720790294E+04  0.10720790294E+04  0.00000000000E+00 0. -1.
          1   -1    0    0  501    0 -0.00000000000E+00 -0.00000000000E+00 -0.38471340836E+03  0.38471340836E+03  0.00000000000E+00 0. -1.
         25    2    1    2    0    0 -0.25803418737E+02 -0.25038248829E+02 -0.12558863542E+03  0.18080593343E+03  0.12500219956E+03 0.  0.
          2    1    1    2  501    0  0.57156675071E+02  0.31019534821E+02 -0.22669961788E+03  0.23584277346E+03  0.00000000000E+00 0. -1.
          1    1    1    2  502    0 -0.31353256335E+02 -0.59812859921E+01  0.10396538743E+04  0.10401437308E+04  0.00000000000E+00 0. -1.
         22    1    3    3    0    0  0.76663937843E+01 -0.29621173264E+02 -0.14056239585E+03  0.14385400455E+03  0.00000000000E+00 0.  1.
         22    1    3    3    0    0 -0.33469812521E+02  0.45829244346E+01  0.14973760428E+02  0.36951928879E+02  0.00000000000E+00 0.  1.
</event>
<event>
 7    1  0.6888431E-006  0.5389147E+02  0.7818608E-02  0.1501673E+00
          2   -1    0    0  502    0  0.00000000000E+00  0.00000000000E+00  0.18622033603E+04  0.18622033603E+04  0.00000000000E+00 0. -1.
          1   -1    0    0  501    0 -0.00000000000E+00 -0.00000000000E+00 -0.95511809772E+01  0.95511809772E+01  0.00000000000E+00 0. -1.
         25    2    1    2    0    0  0.58642535636E+02 -0.18403624971E+02  0.64128651921E+03  0.65624044654E+03  0.12500193421E+03 0.  0.
          2    1    1    2  501    0 -0.51069884933E+02 -0.11702776228E+02  0.38301505711E+03  0.38658197331E+03  0.00000000000E+00 0. -1.
          1    1    1    2  502    0 -0.75726507033E+01  0.30106401199E+02  0.82835060296E+03  0.82893212138E+03  0.00000000000E+00 0. -1.
         22    1    3    3    0    0 -0.21193494217E+02 -0.14020399133E+02  0.42314314861E+03  0.42390548475E+03  0.00000000000E+00 0.  1.
         22    1    3    3    0    0  0.79836029853E+02 -0.43832258386E+01  0.21814337060E+03  0.23233496179E+03  0.00000000000E+00 0.  1.
</event>
<event>
 7    1  0.6888431E-006  0.4702119E+02  0.7818608E-02  0.1467587E+00
          2   -1    0    0  502    0  0.00000000000E+00  0.00000000000E+00  0.85548862867E+03  0.85548862867E+03  0.00000000000E+00 0. -1.
          1   -1    0    0  501    0 -0.00000000000E+00 -0.00000000000E+00 -0.14654913531E+04  0.14654913531E+04  0.00000000000E+00 0. -1.
         25    2    1    2    0    0  0.83247766042E+00  0.83918638324E+02 -0.30935382761E+02  0.15370425833E+03  0.12499988098E+03 0.  0.
          2    1    1    2  501    0  0.18430525354E+02 -0.41269185223E+02 -0.13721096358E+04  0.13728538460E+04  0.00000000000E+00 0. -1.
          1    1    1    2  502    0 -0.19263003014E+02 -0.42649453101E+02  0.79304229410E+03  0.79442187744E+03  0.00000000000E+00 0. -1.
         22    1    3    3    0    0 -0.28305143153E+02 -0.22583786789E+02 -0.23225707984E+02  0.43019089553E+02  0.00000000000E+00 0.  1.
         22    1    3    3    0    0  0.29137620813E+02  0.10650242511E+03 -0.77096747764E+01  0.11068516878E+03  0.00000000000E+00 0.  1.
</event>
<event>
 7    1  0.6888431E-006  0.9953613E+02  0.7818608E-02  0.1341504E+00
          2   -1    0    0  502    0  0.00000000000E+00  0.00000000000E+00  0.76741789290E+03  0.76741789290E+03  0.00000000000E+00 0. -1.
          1   -1    0    0  501    0 -0.00000000000E+00 -0.00000000000E+00 -0.84673116763E+02  0.84673116763E+02  0.00000000000E+00 0. -1.
         25    2    1    2    0    0 -0.60452322831E+02  0.21842646998E+02  0.99670382882E+02  0.17232082665E+03  0.12501478916E+03 0.  0.
          2    1    1    2  501    0  0.10379709356E+03 -0.59895365621E+02  0.29787674643E+02  0.12348520970E+03  0.00000000000E+00 0. -1.
          1    1    1    2  502    0 -0.43344770729E+02  0.38052718624E+02  0.55328671861E+03  0.55628497332E+03  0.00000000000E+00 0. -1.
         22    1    3    3    0    0 -0.74414479325E+02 -0.17915178412E+01  0.11785519886E+03  0.13939358726E+03  0.00000000000E+00 0. -1.
         22    1    3    3    0    0  0.13962156493E+02  0.23634164839E+02 -0.18184815980E+02  0.32927239390E+02  0.00000000000E+00 0. -1.
</event>
<event>
 7    1  0.6888431E-006  0.1056825E+03  0.7818608E-02  0.1420989E+00
          2   -1    0    0  502    0  0.00000000000E+00  0.00000000000E+00  0.20245441342E+04  0.20245441342E+04  0.00000000000E+00 0. -1.
          1   -1    0    0  501    0 -0.00000000000E+00 -0.00000000000E+00 -0.10182837775E+04  0.10182837775E+04  0.00000000000E+00 0. -1.
         25    2    1    2    0    0  0.11814484562E+03  0.55356874853E+02  0.51222031012E+03  0.54315484146E+03  0.12499979026E+03 0.  0.
          2    1    1    2  501    0 -0.27720376778E+02 -0.63051088484E+01 -0.10008469610E+04  0.10012506245E+04  0.00000000000E+00 0. -1.
          1    1    1    2  502    0 -0.90424468840E+02 -0.49051766005E+02  0.14948870076E+04  0.14984224457E+04  0.00000000000E+00 0. -1.
         22    1    3    3    0    0  0.12305729634E+03  0.67555532626E+02  0.51101807599E+03  0.52994935811E+03  0.00000000000E+00 0. -1.
         22    1    3    3    0    0 -0.49124507245E+01 -0.12198657773E+02  0.12022341244E+01  0.13205483348E+02  0.00000000000E+00 0. -1.
</event>
<event>
 7    1  0.6888431E-006  0.6832220E+02  0.7818608E-02  0.1386778E+00
          2   -1    0    0  502    0  0.00000000000E+00  0.00000000000E+00  0.40219045485E+03  0.40219045485E+03  0.00000000000E+00 0. -1.
          1   -1    0    0  501    0 -0.00000000000E+00 -0.00000000000E+00 -0.71191153025E+03  0.71191153025E+03  0.00000000000E+00 0. -1.
         25    2    1    2    0    0 -0.69008707870E+02  0.65687904480E+02 -0.11708384416E+03  0.19598646734E+03  0.12499986504E+03 0.  0.
          2    1    1    2  501    0  0.67343322172E+02 -0.81435610439E+01 -0.55099918578E+03  0.55515902529E+03  0.00000000000E+00 0. -1.
          1    1    1    2  502    0  0.16653856978E+01 -0.57544343436E+02  0.35836195454E+03  0.36295649248E+03  0.00000000000E+00 0. -1.
         22    1    3    3    0    0 -0.84128215021E+02  0.93953772604E+01 -0.27305258934E+02  0.88946089526E+02  0.00000000000E+00 0. -1.
         22    1    3    3    0    0  0.15119507151E+02  0.56292527220E+02 -0.89778585225E+02  0.10704037781E+03  0.00000000000E+00 0. -1.
</event>
<event>
 7    1  0.6888431E-006  0.7047486E+02  0.7818608E-02  0.1413618E+00
          2   -1    0    0  502    0  0.00000000000E+00  0.00000000000E+00  0.66977821552E+03  0.66977821552E+03  0.00000000000E+00 0. -1.
          1   -1    0    0  501    0 -0.00000000000E+00 -0.00000000000E+00 -0.22279332557E+04  0.22279332557E+04  0.00000000000E+00 0. -1.
         25    2    1    2    0    0 -0.65423043000E+01  0.24952847239E+02 -0.30874472378E+03  0.33408612494E+03  0.12499915232E+03 0.  0.
          2    1    1    2  501    0 -0.17809331000E+02  0.41463932717E+02 -0.19043458836E+04  0.19048804882E+04  0.00000000000E+00 0. -1.
          1    1    1    2  502    0  0.24351635300E+02 -0.66416779955E+02  0.65493556722E+03  0.65874485805E+03  0.00000000000E+00 0. -1.
         22    1    3    3    0    0 -0.64078811954E+02  0.27904764545E+02 -0.17670793952E+03  0.19002753989E+03  0.00000000000E+00 0. -1.
         22    1    3    3    0    0  0.57536507654E+02 -0.29519173061E+01 -0.13203678426E+03  0.14405858505E+03  0.00000000000E+00 0. -1.
</event>
<event>
 7    1  0.6888431E-006  0.1559421E+03  0.7818608E-02  0.1249261E+00
          2   -1    0    0  502    0  0.00000000000E+00  0.00000000000E+00  0.33176963398E+03  0.33176963398E+03  0.00000000000E+00 0. -1.
          1   -1    0    0  501    0 -0.00000000000E+00 -0.00000000000E+00 -0.18111856492E+04  0.18111856492E+04  0.00000000000E+00 0. -1.
         25    2    1    2    0    0  0.52458329754E+02 -0.60973599790E+02 -0.14019995131E+02  0.14930186083E+03  0.12499931661E+03 0.  0.
          2    1    1    2  501    0 -0.13582066777E+03  0.85138654896E+02 -0.17185624351E+04  0.17260222153E+04  0.00000000000E+00 0. -1.
          1    1    1    2  502    0  0.83362338011E+02 -0.24165055107E+02  0.25316641502E+03  0.26763120704E+03  0.00000000000E+00 0. -1.
         22    1    3    3    0    0  0.81212430077E+02 -0.72829672535E+02 -0.31606058283E+02  0.11357184035E+03  0.00000000000E+00 0.  1.
         22    1    3    3    0    0 -0.28754100323E+02  0.11856072745E+02  0.17586063151E+02  0.35730020480E+02  0.00000000000E+00 0.  1.
</event>
<event>
 7    1  0.6888431E-006  0.6870449E+02  0.7818608E-02  0.1400837E+00
          2   -1    0    0  502    0  0.00000000000E+00  0.00000000000E+00  0.14686252010E+03  0.14686252010E+03  0.00000000000E+00 0. -1.
          1   -1    0    0  501    0 -0.00000000000E+00 -0.00000000000E+00 -0.22980526005E+04  0.22980526005E+04  0.00000000000E+00 0. -1.
         25    2    1    2    0    0 -0.20702548307E+02  0.32694372877E+01 -0.23170441858E+03  0.26410253200E+03  0.12499570030E+03 0.  0.
          2    1    1    2  501    0 -0.41852267115E+02  0.29432310722E+02 -0.20402718474E+04  0.20409132967E+04  0.00000000000E+00 0. -1.
          1    1    1    2  502    0  0.62554815422E+02 -0.32701748009E+02  0.12078618558E+03  0.13989929193E+03  0.00000000000E+00 0. -1.
         22    1    3    3    0    0 -0.45953079746E+02  0.51597199884E+02 -0.99912422379E+02  0.12147612407E+03  0.00000000000E+00 0. -1.
         22    1    3    3    0    0  0.25250531439E+02 -0.48327762597E+02 -0.13179199620E+03  0.14262640793E+03  0.00000000000E+00 0. -1.
</event>
<event>
 7    1  0.6888431E-006  0.1106812E+03  0.7818608E-02  0.1267322E+00
          2   -1    0    0  502    0  0.00000000000E+00  0.00000000000E+00  0.50704337736E+03  0.50704337736E+03  0.00000000000E+00 0. -1.
          1   -1    0    0  501    0 -0.00000000000E+00 -0.00000000000E+00 -0.15414571916E+04  0.15414571916E+04  0.00000000000E+00 0. -1.
         25    2    1    2    0    0  0.26395107103E+02  0.43704858478E+02 -0.32912890988E+01  0.13506930896E+03  0.12500427715E+03 0.  0.
          2    1    1    2  501    0 -0.11312896342E+03  0.10630592191E+02 -0.14641096323E+04  0.14685122360E+04  0.00000000000E+00 0. -1.
          1    1    1    2  502    0  0.86733856320E+02 -0.54335450669E+02  0.43298710712E+03  0.44491902405E+03  0.00000000000E+00 0. -1.
         22    1    3    3    0    0 -0.14162196996E+02  0.78206727997E+02  0.10223941386E+02  0.80133570401E+02  0.00000000000E+00 0.  1.
         22    1    3    3    0    0  0.40557304099E+02 -0.34501869519E+02 -0.13515230485E+02  0.54935738560E+02  0.00000000000E+00 0.  1.
</event>
<event>
 7    1  0.6888431E-006  0.3571964E+02  0.7818608E-02  0.1550974E+00
          2   -1    0    0  502    0  0.00000000000E+00  0.00000000000E+00  0.15064503660E+03  0.15064503660E+03  0.00000000000E+00 0. -1.
          1   -1    0    0  501    0 -0.00000000000E+00 -0.00000000000E+00 -0.30541174389E+03  0.30541174389E+03  0.00000000000E+00 0. -1.
         25    2    1    2    0    0  0.21114325972E+02 -0.62703530139E+02 -0.50928977662E+02  0.15031736013E+03  0.12499600208E+03 0.  0.
          2    1    1    2  501    0 -0.17226833467E+01  0.33731956370E+02 -0.20032223029E+03  0.20314971933E+03  0.00000000000E+00 0. -1.
          1    1    1    2  502    0 -0.19391642625E+02  0.28971573769E+02  0.96484500661E+02  0.10258970103E+03  0.00000000000E+00 0. -1.
         22    1    3    3    0    0  0.44793220248E+02  0.24165557379E+02 -0.24462184738E+02  0.56469507044E+02  0.00000000000E+00 0.  1.
         22    1    3    3    0    0 -0.23678894276E+02 -0.86869087519E+02 -0.26466792923E+02  0.93847853082E+02  0.00000000000E+00 0.  1.
</event>
<event>
 7    1  0.6888431E-006  0.7719979E+02  0.7818608E-02  0.1418512E+00
          2   -1    0    0  502    0  0.00000000000E+00  0.00000000000E+00  0.13542978920E+03  0.13542978920E+03  0.00000000000E+00 0. -1.
          1   -1    0    0  501    0 -0.00000000000E+00 -0.00000000000E+00 -0.12948102545E+04  0.12948102545E+04  0.00000000000E+00 0. -1.
         25    2    1    2    0    0  0.21510684360E+02  0.10084568372E+03 -0.81516547415E+01  0.16224914599E+03  0.12500309769E+03 0.  0.
          2    1    1    2  501    0  0.96257423084E+01 -0.76271502284E+02 -0.12014990862E+04  0.12039560005E+04  0.00000000000E+00 0. -1.
          1    1    1    2  502    0 -0.31136426669E+02 -0.24574181439E+02  0.50270275600E+02  0.64034897268E+02  0.00000000000E+00 0. -1.
         22    1    3    3    0    0  0.24605441320E+02  0.60619429456E+02  0.56232610443E+02  0.86268473079E+02  0.00000000000E+00 0.  1.
         22    1    3    3    0    0 -0.30947569597E+01  0.40226254267E+02 -0.64384265185E+02  0.75980672913E+02  0.00000000000E+00 0.  1.
</event>
<event>
 7    1  0.6888431E-006  0.1571535E+03  0.7818608E-02  0.1307942E+00
          2   -1    0    0  502    0  0.00000000000E+00  0.00000000000E+00  0.23142247682E+04  0.23142247682E+04  0.00000000000E+00 0. -1.
          1   -1    0    0  501    0 -0.00000000000E+00 -0.00000000000E+00 -0.61528248012E+02  0.61528248012E+02  0.00000000000E+00 0. -1.
         25    2    1    2    0    0  0.16296554848E+03  0.72143701623E+02  0.19209972394E+04  0.19332917240E+04  0.12499605084E+03 0.  0.
          2    1    1    2  501    0 -0.12136204189E+03 -0.98405575211E+02  0.61651126977E+02  0.16796804429E+03  0.00000000000E+00 0. -1.
          1    1    1    2  502    0 -0.41603506587E+02  0.26261873588E+02  0.27004815384E+03  0.27449324793E+03  0.00000000000E+00 0. -1.
         22    1    3    3    0    0  0.15932617600E+03  0.74118689967E+02  0.12509503830E+04  0.12632320734E+04  0.00000000000E+00 0.  1.
         22    1    3    3    0    0  0.36393724750E+01 -0.19749883443E+01  0.67004685641E+03  0.67005965063E+03  0.00000000000E+00 0.  1.
</event>
<event>
 7    1  0.6888431E-006  0.5050599E+02  0.7818608E-02  0.1479184E+00
          2   -1    0    0  502    0  0.00000000000E+00  0.00000000000E+00  0.11618180627E+03  0.11618180627E+03  0.00000000000E+00 0. -1.
          1   -1    0    0  501    0 -0.00000000000E+00 -0.00000000000E+00 -0.80681494300E+03  0.80681494300E+03  0.00000000000E+00 0. -1.
         25    2    1    2    0    0  0.11610288804E+02 -0.21448203051E+02 -0.69045139930E+03  0.70209845985E+03  0.12499715323E+03 0.  0.
          2    1    1    2  501    0 -0.60856004121E+01  0.71651116101E+02 -0.91601461785E+02  0.11645490446E+03  0.00000000000E+00 0. -1.
          1    1    1    2  502    0 -0.55246883919E+01 -0.50202913050E+02  0.91419724354E+02  0.10444338496E+03  0.00000000000E+00 0. -1.
         22    1    3    3    0    0  0.58240050624E+02 -0.46322688061E+02 -0.39070987145E+03  0.39773345167E+03  0.00000000000E+00 0. -1.
         22    1    3    3    0    0 -0.46629761820E+02  0.24874485010E+02 -0.29974152784E+03  0.30436500818E+03  0.00000000000E+00 0. -1.
</event>
<event>
 7    1  0.6888431E-006  0.2416375E+03  0.7818608E-02  0.1277431E+00
          2   -1    0    0  502    0  0.00000000000E+00  0.00000000000E+00  0.40934540814E+04  0.40934540814E+04  0.00000000000E+00 0. -1.
          1   -1    0    0  501    0 -0.00000000000E+00 -0.00000000000E+00 -0.28224917026E+02  0.28224917026E+02  0.00000000000E+00 0. -1.
         25    2    1    2    0    0  0.18768288684E+03  0.16405015577E+03  0.96735736650E+03  0.10067485411E+04  0.12500012379E+03 0.  0.
          2    1    1    2  501    0 -0.14743947444E+03 -0.17780764458E+03  0.16135261484E+04  0.16299756405E+04  0.00000000000E+00 0. -1.
          1    1    1    2  502    0 -0.40243412403E+02  0.13757488809E+02  0.14843456495E+04  0.14849548168E+04  0.00000000000E+00 0. -1.
         22    1    3    3    0    0 -0.10530420359E+02  0.35953705771E+02  0.21515126106E+03  0.21838869900E+03  0.00000000000E+00 0.  1.
         22    1    3    3    0    0  0.19821330720E+03  0.12809645000E+03  0.75220610543E+03  0.78835984214E+03  0.00000000000E+00 0.  1.
</event>
<event>
 7    1  0.6888431E-006  0.9832287E+02  0.7818608E-02  0.1354909E+00
          2   -1    0    0  502    0  0.00000000000E+00  0.00000000000E+00  0.19101535395E+04  0.19101535395E+04  0.00000000000E+00 0. -1.
          1   -1    0    0  501    0 -0.00000000000E+00 -0.00000000000E+00 -0.24764860692E+03  0.24764860692E+03  0.00000000000E+00 0. -1.
         25    2    1    2    0    0 -0.49286692643E+02  0.18319782719E+02  0.18752550590E+03  0.23140750026E+03  0.12497529076E+03 0.  0.
          2    1    1    2  501    0 -0.51635235097E+02 -0.66615804518E+01 -0.22116504403E+03  0.22721036697E+03  0.00000000000E+00 0. -1.
          1    1    1    2  502    0  0.10092192774E+03 -0.11658202267E+02  0.16961444707E+04  0.16991842792E+04  0.00000000000E+00 0. -1.
         22    1    3    3    0    0  0.40420273856E+02 -0.28003800077E+01  0.36773090244E+02  0.54716549899E+02  0.00000000000E+00 0. -1.
         22    1    3    3    0    0 -0.89706966499E+02  0.21120162727E+02  0.15075241566E+03  0.17669095036E+03  0.00000000000E+00 0. -1.
</event>
<event>
 7    1  0.6888431E-006  0.2519983E+02  0.7818608E-02  0.1671776E+00
          2   -1    0    0  502    0  0.00000000000E+00  0.00000000000E+00  0.29912441652E+03  0.29912441652E+03  0.00000000000E+00 0. -1.
          1   -1    0    0  501    0 -0.00000000000E+00 -0.00000000000E+00 -0.88099439949E+03  0.88099439949E+03  0.00000000000E+00 0. -1.
         25    2    1    2    0    0  0.11085522376E+02 -0.43362049145E+02 -0.88686390239E+02  0.15966650099E+03  0.12499983845E+03 0.  0.
          2    1    1    2  501    0 -0.14782072517E+02  0.20289831125E+02 -0.75609147719E+03  0.75650810227E+03  0.00000000000E+00 0. -1.
          1    1    1    2  502    0  0.36965501401E+01  0.23072218020E+02  0.26290788447E+03  0.26394421275E+03  0.00000000000E+00 0. -1.
         22    1    3    3    0    0  0.36676714443E+01 -0.81297308687E+02 -0.89549225120E+02  0.12100317324E+03  0.00000000000E+00 0.  1.
         22    1    3    3    0    0  0.74178509322E+01  0.37935259543E+02  0.86283488111E+00  0.38663327754E+02  0.00000000000E+00 0.  1.
</event>
<event>
 7    1  0.6888431E-006  0.2141543E+03  0.7818608E-02  0.1284447E+00
          2   -1    0    0  502    0  0.00000000000E+00  0.00000000000E+00  0.24275042395E+04  0.24275042395E+04  0.00000000000E+00 0. -1.
          1   -1    0    0  501    0 -0.00000000000E+00 -0.00000000000E+00 -0.13249844414E+04  0.13249844414E+04  0.00000000000E+00 0. -1.
         25    2    1    2    0    0  0.12286885061E+03  0.18603202394E+03  0.12235192625E+04  0.12499312846E+04  0.12499664901E+03 0.  0.
          2    1    1    2  501    0 -0.44103018638E+02  0.83869657816E+01 -0.13021503646E+04  0.13029240152E+04  0.00000000000E+00 0. -1.
          1    1    1    2  502    0 -0.78765831972E+02 -0.19441898973E+03  0.11811509003E+04  0.11996333811E+04  0.00000000000E+00 0. -1.
         22    1    3    3    0    0  0.29914442474E+02 -0.15352855337E+02  0.17700160723E+03  0.18016701418E+03  0.00000000000E+00 0. -1.
         22    1    3    3    0    0  0.92954408136E+02  0.20138487928E+03  0.10465176553E+04  0.10697642705E+04  0.00000000000E+00 0. -1.
</event>
<event>
 7    1  0.6888431E-006  0.1451164E+03  0.7818608E-02  0.1276523E+00
          2   -1    0    0  502    0  0.00000000000E+00  0.00000000000E+00  0.33257530951E+02  0.33257530951E+02  0.00000000000E+00 0. -1.
          1   -1    0    0  501    0 -0.00000000000E+00 -0.00000000000E+00 -0.33210316479E+04  0.33210316479E+04  0.00000000000E+00 0. -1.
         25    2    1    2    0    0  0.87344844053E+02  0.97096080583E+02 -0.14740507228E+04  0.14850951571E+04  0.12500128586E+03 0.  0.
          2    1    1    2  501    0 -0.52900297811E+02  0.48006271791E+02 -0.16343993204E+04  0.16359597129E+04  0.00000000000E+00 0. -1.
          1    1    1    2  502    0 -0.34444546242E+02 -0.14510235237E+03 -0.17932407374E+03  0.23323430891E+03  0.00000000000E+00 0. -1.
         22    1    3    3    0    0  0.92760953777E+01  0.99235506350E+02 -0.68939787451E+03  0.69656525972E+03  0.00000000000E+00 0. -1.
         22    1    3    3    0    0  0.78068748675E+02 -0.21394257675E+01 -0.78465284830E+03  0.78852989735E+03  0.00000000000E+00 0. -1.
</event>
<event>
 7    1  0.6888431E-006  0.2424100E+03  0.7818608E-02  0.1199292E+00
          2   -1    0    0  502    0  0.00000000000E+00  0.00000000000E+00  0.56419043538E+03  0.56419043538E+03  0.00000000000E+00 0. -1.
          1   -1    0    0  501    0 -0.00000000000E+00 -0.00000000000E+00 -0.14330798783E+04  0.14330798783E+04  0.00000000000E+00 0. -1.
         25    2    1    2    0    0  0.24700346335E+03  0.59368335064E+02  0.16864552475E+03  0.32954790003E+03  0.12500078114E+03 0.  0.
          2    1    1    2  501    0 -0.24020305782E+03  0.34401324101E+02 -0.13344219596E+04  0.13563048796E+04  0.00000000000E+00 0. -1.
          1    1    1    2  502    0 -0.68004055253E+01 -0.93769659165E+02  0.29688699197E+03  0.31141753403E+03  0.00000000000E+00 0. -1.
         22    1    3    3    0    0  0.15127206581E+03  0.97563990118E+02  0.11023929233E+03  0.21107977552E+03  0.00000000000E+00 0. -1.
         22    1    3    3    0    0  0.95731397541E+02 -0.38195655053E+02  0.58406232415E+02  0.11846812451E+03  0.00000000000E+00 0. -1.
</event>
<event>
 7    1  0.6888431E-006  0.6288323E+02  0.7818608E-02  0.1418235E+00
          2   -1    0    0  502    0  0.00000000000E+00  0.00000000000E+00  0.63979303455E+02  0.63979303455E+02  0.00000000000E+00 0. -1.
          1   -1    0    0  501    0 -0.00000000000E+00 -0.00000000000E+00 -0.35416540889E+04  0.35416540889E+04  0.00000000000E+00 0. -1.
         25    2    1    2    0    0  0.61126218246E+02  0.77286270493E+01 -0.30362288544E+03  0.33408225423E+03  0.12501179861E+03 0.  0.
          2    1    1    2  501    0 -0.37928681267E+02 -0.50663067689E+02 -0.32101981134E+04  0.32108218976E+04  0.00000000000E+00 0. -1.
          1    1    1    2  502    0 -0.23197536979E+02  0.42934440640E+02  0.36146213338E+02  0.60729240515E+02  0.00000000000E+00 0. -1.
         22    1    3    3    0    0 -0.50733672127E+01  0.40924738560E+02 -0.31029072464E+02  0.51607912369E+02  0.00000000000E+00 0.  1.
         22    1    3    3    0    0  0.66199585459E+02 -0.33196111511E+02 -0.27259381298E+03  0.28247434186E+03  0.00000000000E+00 0.  1.
</event>
<event>
 7    1  0.6888431E-006  0.7773619E+02  0.7818608E-02  0.1389161E+00
          2   -1    0    0  502    0  0.00000000000E+00  0.00000000000E+00  0.11611686699E+03  0.11611686699E+03  0.00000000000E+00 0. -1.
          1   -1    0    0  501    0 -0.00000000000E+00 -0.00000000000E+00 -0.43391937829E+03  0.43391937829E+03  0.00000000000E+00 0. -1.
         25    2    1    2    0    0  0.57054507411E+02 -0.19278981102E+02 -0.20964733529E+03  0.25140349277E+03  0.12499926023E+03 0.  0.
          2    1    1    2  501    0 -0.57366029089E+02  0.68912390929E+02 -0.18590034248E+03  0.20639456449E+03  0.00000000000E+00 0. -1.
          1    1    1    2  502    0  0.31152167760E+00 -0.49633409827E+02  0.77745166477E+02  0.92238188010E+02  0.00000000000E+00 0. -1.
         22    1    3    3    0    0  0.88711606795E+02  0.16656329346E+02 -0.14779824098E+03  0.17318054892E+03  0.00000000000E+00 0. -1.
         22    1    3    3    0    0 -0.31657099384E+02 -0.35935310448E+02 -0.61849094311E+02  0.78222943856E+02  0.00000000000E+00 0. -1.
</event>
<event>
 7    1  0.6888431E-006  0.1720943E+03  0.7818608E-02  0.1184970E+00
          2   -1    0    0  502    0  0.00000000000E+00  0.00000000000E+00  0.16969961520E+04  0.16969961520E+04  0.00000000000E+00 0. -1.
          1   -1    0    0  501    0 -0.00000000000E+00 -0.00000000000E+00 -0.30813403202E+03  0.30813403202E+03  0.00000000000E+00 0. -1.
         25    2    1    2    0    0  0.10334504008E+02 -0.22576460525E+03  0.32146686020E+02  0.26025500832E+03  0.12499120359E+03 0.  0.
          2    1    1    2  501    0 -0.12227670270E+03  0.11849300159E+03 -0.15198092164E+03  0.22823317899E+03  0.00000000000E+00 0. -1.
          1    1    1    2  502    0  0.11194219869E+03  0.10727160366E+03  0.15086963556E+04  0.15166419967E+04  0.00000000000E+00 0. -1.
         22    1    3    3    0    0  0.10816031422E+02 -0.34094563799E+02 -0.41620757745E+02  0.54879078815E+02  0.00000000000E+00 0.  1.
         22    1    3    3    0    0 -0.48152741367E+00 -0.19167004145E+03  0.73767443765E+02  0.20537592950E+03  0.00000000000E+00 0.  1.
</event>
<event>
 7    1  0.6888431E-006  0.1049533E+03  0.7818608E-02  0.1316408E+00
          2   -1    0    0  502    0  0.00000000000E+00  0.00000000000E+00  0.34810652126E+03  0.34810652126E+03  0.00000000000E+00 0. -1.
          1   -1    0    0  501    0 -0.00000000000E+00 -0.00000000000E+00 -0.94041535219E+03  0.94041535219E+03  0.00000000000E+00 0. -1.
         25    2    1    2    0    0 -0.16147894081E+03  0.45050970840E+02 -0.20227025740E+03  0.29093442824E+03  0.12499818480E+03 0.  0.
          2    1    1    2  501    0  0.97649915960E+02 -0.20917862638E+02 -0.68632085597E+03  0.69354839803E+03  0.00000000000E+00 0. -1.
          1    1    1    2  502    0  0.63829024853E+02 -0.24133108203E+02  0.29628228244E+03  0.30403904718E+03  0.00000000000E+00 0. -1.
         22    1    3    3    0    0  0.73297743938E+01  0.20299160717E+02  0.53207281288E+01  0.22228172806E+02  0.00000000000E+00 0.  1.
         22    1    3    3    0    0 -0.16880871521E+03  0.24751810124E+02 -0.20759098553E+03  0.26870625543E+03  0.00000000000E+00 0.  1.
</event>
<event>
 7    1  0.6888431E-006  0.7714452E+02  0.7818608E-02  0.1338697E+00
          2   -1    0    0  502    0  0.00000000000E+00  0.00000000000E+00  0.27624256529E+03  0.27624256529E+03  0.00000000000E+00 0. -1.
          1   -1    0    0  501    0 -0.00000000000E+00 -0.00000000000E+00 -0.49641093240E+03  0.49641093240E+03  0.00000000000E+00 0. -1.
         25    2    1    2    0    0  0.29936130449E+02 -0.94446292950E+02 -0.14917863278E+03  0.21839263622E+03  0.12499921968E+03 0.  0.
          2    1    1    2  501    0 -0.70722492122E+02  0.28504342207E+02 -0.30153493020E+03  0.31102649814E+03  0.00000000000E+00 0. -1.
          1    1    1    2  502    0  0.40786361673E+02  0.65941950743E+02  0.23054519587E+03  0.24323436333E+03  0.00000000000E+00 0. -1.
         22    1    3    3    0    0 -0.17451347071E+02 -0.10024991278E+03 -0.62451530910E+02  0.11939341791E+03  0.00000000000E+00 0.  1.
         22    1    3    3    0    0  0.47387477519E+02  0.58036198264E+01 -0.86727101869E+02  0.98999218317E+02  0.00000000000E+00 0.  1.
</event>
<event>
 7    1  0.6888431E-006  0.7385772E+02  0.7818608E-02  0.1440017E+00
          2   -1    0    0  502    0  0.00000000000E+00  0.00000000000E+00  0.94548878535E+03  0.94548878535E+03  0.00000000000E+00 0. -1.
          1   -1    0    0  501    0 -0.00000000000E+00 -0.00000000000E+00 -0.43221296962E+03  0.43221296962E+03  0.00000000000E+00 0. -1.
         25    2    1    2    0    0  0.45494339810E+01 -0.91617879320E+02  0.81278446182E+02  0.17508236569E+03  0.12503245898E+03 0.  0.
          2    1    1    2  501    0 -0.29904692023E+02  0.67176364402E+02 -0.38141834637E+03  0.38844164232E+03  0.00000000000E+00 0. -1.
          1    1    1    2  502    0  0.25355258042E+02  0.24441514918E+02  0.81341571592E+03  0.81417774697E+03  0.00000000000E+00 0. -1.
         22    1    3    3    0    0 -0.34024467667E+02 -0.76793367571E+02  0.10282067653E+00  0.83993429952E+02  0.00000000000E+00 0.  1.
         22    1    3    3    0    0  0.38573901648E+02 -0.14824511749E+02  0.81175625505E+02  0.91088935734E+02  0.00000000000E+00 0.  1.
</event>
<event>
 7    1  0.6888431E-006  0.4676937E+02  0.7818608E-02  0.1492063E+00
          2   -1    0    0  502    0  0.00000000000E+00  0.00000000000E+00  0.15836013667E+04  0.15836013667E+04  0.00000000000E+00 0. -1.
          1   -1    0    0  501    0 -0.00000000000E+00 -0.00000000000E+00 -0.20059271786E+02  0.20059271786E+02  0.00000000000E+00 0. -1.
         25    2    1    2    0    0 -0.40611860829E+01 -0.28031023714E+02  0.68317767640E+03  0.69509953495E+03  0.12501757651E+03 0.  0.
          2    1    1    2  501    0  0.36939708452E+02 -0.98268576238E+01  0.13940041615E+02  0.40687024363E+02  0.00000000000E+00 0. -1.
          1    1    1    2  502    0 -0.32878522369E+02  0.37857881338E+02  0.86642437687E+03  0.86787407914E+03  0.00000000000E+00 0. -1.
         22    1    3    3    0    0  0.38805711098E+02  0.28971236250E+02  0.16258731796E+03  0.16964625462E+03  0.00000000000E+00 0. -1.
         22    1    3    3    0    0 -0.42866897181E+02 -0.57002259965E+02  0.52059035844E+03  0.52545328033E+03  0.00000000000E+00 0. -1.
</event>
<event>
 7    1  0.6888431E-006  0.1792579E+03  0.7818608E-02  0.1344844E+00
          2   -1    0    0  502    0  0.00000000000E+00  0.00000000000E+00  0.36247693246E+03  0.36247693246E+03  0.00000000000E+00 0. -1.
          1   -1    0    0  501    0 -0.00000000000E+00 -0.00000000000E+00 -0.14773256938E+04  0.14773256938E+04  0.00000000000E+00 0. -1.
         25    2    1    2    0    0  0.12479418052E+03 -0.15526276079E+03 -0.22093494950E+03  0.32267111242E+03  0.12499712997E+03 0.  0.
          2    1    1    2  501    0 -0.94177315665E+02  0.14970172863E+03 -0.11982381867E+04  0.12112203460E+04  0.00000000000E+00 0. -1.
          1    1    1    2  502    0 -0.30616864855E+02  0.55610321505E+01  0.30432437488E+03  0.30591116788E+03  0.00000000000E+00 0. -1.
         22    1    3    3    0    0  0.93326324476E+02 -0.10885571926E+03 -0.65891831123E+02  0.15780083607E+03  0.00000000000E+00 0.  1.
         22    1    3    3    0    0  0.31467856044E+02 -0.46407041527E+02 -0.15504311838E+03  0.16487027635E+03  0.00000000000E+00 0.  1.
</event>
<event>
 7    1  0.6888431E-006  0.5841518E+02  0.7818608E-02  0.1426899E+00
          2   -1    0    0  502    0  0.00000000000E+00  0.00000000000E+00  0.44201949520E+02  0.44201949520E+02  0.00000000000E+00 0. -1.
          1   -1    0    0  501    0 -0.00000000000E+00 -0.00000000000E+00 -0.60740949730E+03  0.60740949730E+03  0.00000000000E+00 0. -1.
         25    2    1    2    0    0  0.49861351227E+01  0.17637069999E+02 -0.19624249701E+03  0.23339300410E+03  0.12500099578E+03 0.  0.
          2    1    1    2  501    0 -0.43533484671E+02 -0.48144308262E+02 -0.36315741088E+03  0.36891237955E+03  0.00000000000E+00 0. -1.
          1    1    1    2  502    0  0.38547349549E+02  0.30507238264E+02 -0.38076398807E+01  0.49306063168E+02  0.00000000000E+00 0. -1.
         22    1    3    3    0    0  0.14532886335E+02 -0.49087076811E+02 -0.46415315575E+02  0.69102296742E+02  0.00000000000E+00 0.  1.
         22    1    3    3    0    0 -0.95467512126E+01  0.66724146809E+02 -0.14982718144E+03  0.16429070736E+03  0.00000000000E+00 0.  1.
</event>
<event>
 7    1  0.6888431E-006  0.1598078E+03  0.7818608E-02  0.1262166E+00
          2   -1    0    0  502    0  0.00000000000E+00  0.00000000000E+00  0.14852574232E+04  0.14852574232E+04  0.00000000000E+00 0. -1.
          1   -1    0    0  501    0 -0.00000000000E+00 -0.00000000000E+00 -0.35471682462E+04  0.35471682462E+04  0.00000000000E+00 0. -1.
         25    2    1    2    0    0  0.14958678826E+03 -0.48085779786E+02 -0.14105094407E+04  0.14247282729E+04  0.12500128022E+03 0.  0.
          2    1    1    2  501    0  0.81523571874E+01  0.74092987832E+02 -0.21245712310E+04  0.21258784414E+04  0.00000000000E+00 0. -1.
          1    1    1    2  502    0 -0.15773914545E+03 -0.26007208046E+02  0.14731698487E+04  0.14818189552E+04  0.00000000000E+00 0. -1.
         22    1    3    3    0    0 -0.46613249138E+01  0.29126700526E+01 -0.48746482763E+03  0.48749581513E+03  0.00000000000E+00 0. -1.
         22    1    3    3    0    0  0.15424811318E+03 -0.50998449839E+02 -0.92304461303E+03  0.93723245779E+03  0.00000000000E+00 0. -1.
</event>
<event>
 7    1  0.6888431E-006  0.6004050E+02  0.7818608E-02  0.1443919E+00
          2   -1    0    0  502    0  0.00000000000E+00  0.00000000000E+00  0.77341369555E+03  0.77341369555E+03  0.00000000000E+00 0. -1.
          1   -1    0    0  501    0 -0.00000000000E+00 -0.00000000000E+00 -0.16228605521E+03  0.16228605521E+03  0.00000000000E+00 0. -1.
         25    2    1    2    0    0 -0.40694381319E+02 -0.40633766102E+01  0.21626306646E+03  0.25311455252E+03  0.12499887632E+03 0.  0.
          2    1    1    2  501    0  0.39718071631E+02  0.46132715630E+02 -0.13655126994E+03  0.14950585938E+03  0.00000000000E+00 0. -1.
          1    1    1    2  502    0  0.97630968733E+00 -0.42069339019E+02  0.53141584382E+03  0.53307933887E+03  0.00000000000E+00 0. -1.
         22    1    3    3    0    0 -0.83468281586E+01  0.82401132228E+01  0.21814020619E+03  0.21845530107E+03  0.00000000000E+00 0. -1.
         22    1    3    3    0    0 -0.32347553160E+02 -0.12303489833E+02 -0.18771397353E+01  0.34659251450E+02  0.00000000000E+00 0. -1.
</event>
<event>
 7    1  0.9174813E-006  0.9571064E+02  0.7818608E-02  0.1366673E+00
          2   -1    0    0  502    0  0.00000000000E+00  0.00000000000E+00  0.14816288684E+04  0.14816288684E+04  0.00000000000E+00 0. -1.
          1   -1    0    0  501    0 -0.00000000000E+00 -0.00000000000E+00 -0.69732158479E+03  0.69732158479E+03  0.00000000000E+00 0. -1.
         25    2    1    2    0    0  0.37819185654E+01  0.65801267205E+02 -0.37652874041E+02  0.14624182659E+03  0.12499929298E+03 0.  0.
          2    1    1    2  501    0  0.45334453816E+02  0.17109595147E+02 -0.60277431522E+03  0.60471879914E+03  0.00000000000E+00 0. -1.
          1    1    1    2  502    0 -0.49116372381E+02 -0.82910862351E+02  0.14247344729E+04  0.14279898275E+04  0.00000000000E+00 0. -1.
         22    1    3    3    0    0 -0.24875770691E+02  0.95638889711E+02 -0.18026988337E+02  0.10045184668E+03  0.00000000000E+00 0. -1.
         22    1    3    3    0    0  0.28657689257E+02 -0.29837622507E+02 -0.19625885704E+02  0.45789979909E+02  0.00000000000E+00 0. -1.
</event>
<event>
 7    1  0.6888431E-006  0.3570191E+02  0.7818608E-02  0.1616550E+00
          2   -1    0    0  502    0  0.00000000000E+00  0.00000000000E+00  0.47474729028E+03  0.47474729028E+03  0.00000000000E+00 0. -1.
          1   -1    0    0  501    0 -0.00000000000E+00 -0.00000000000E+00 -0.32012770184E+03  0.32012770184E+03  0.00000000000E+00 0. -1.
         25    2    1    2    0    0  0.76611875181E+01 -0.11766922347E+02 -0.45595218559E+02  0.13379567074E+03  0.12500081319E+03 0.  0.
          2    1    1    2  501    0  0.18885938044E+02 -0.12380323091E+02 -0.22912861555E+03  0.23023873158E+03  0.00000000000E+00 0. -1.
          1    1    1    2  502    0 -0.26547125562E+02  0.24147245438E+02  0.42934342255E+03  0.43084058980E+03  0.00000000000E+00 0. -1.
         22    1    3    3    0    0 -0.15363033982E+02  0.91272285391E+01  0.39415804605E+02  0.43277416358E+02  0.00000000000E+00 0.  1.
         22    1    3    3    0    0  0.23024221500E+02 -0.20894150887E+02 -0.85011023164E+02  0.90518254382E+02  0.00000000000E+00 0.  1.
</event>
<event>
 7    1  0.6888431E-006  0.8118449E+02  0.7818608E-02  0.1474911E+00
          2   -1    0    0  502    0  0.00000000000E+00  0.00000000000E+00  0.23206382920E+03  0.23206382920E+03  0.00000000000E+00 0. -1.
          1   -1    0    0  501    0 -0.00000000000E+00 -0.00000000000E+00 -0.25963153332E+03  0.25963153332E+03  0.00000000000E+00 0. -1.
         25    2    1    2    0    0  0.89169842106E+02  0.21393588122E+02  0.13371369233E+03  0.20472823670E+03  0.12500141211E+03 0.  0.
          2    1    1    2  501    0 -0.80829263999E+02  0.20066913882E+01 -0.21395849806E+03  0.22872611486E+03  0.00000000000E+00 0. -1.
          1    1    1    2  502    0 -0.83405781065E+01 -0.23400279510E+02  0.52677101605E+02  0.58241010961E+02  0.00000000000E+00 0. -1.
         22    1    3    3    0    0 -0.11584232278E+01  0.99681008119E+00  0.10882994191E+03  0.10884067177E+03  0.00000000000E+00 0.  1.
         22    1    3    3    0    0  0.90328265333E+02  0.20396778041E+02  0.24883750419E+02  0.95887564926E+02  0.00000000000E+00 0.  1.
</event>
<event>
 7    1  0.6888431E-006  0.8131465E+02  0.7818608E-02  0.1362340E+00
          2   -1    0    0  502    0  0.00000000000E+00  0.00000000000E+00  0.21388747842E+03  0.21388747842E+03  0.00000000000E+00 0. -1.
          1   -1    0    0  501    0 -0.00000000000E+00 -0.00000000000E+00 -0.41689982440E+03  0.41689982440E+03  0.00000000000E+00 0. -1.
         25    2    1    2    0    0  0.16146798525E+02 -0.55670086179E+02 -0.12748478393E+03  0.18771157691E+03  0.12499355334E+03 0.  0.
          2    1    1    2  501    0  0.36215174140E+02  0.83150241293E+02 -0.24623999785E+03  0.26241120023E+03  0.00000000000E+00 0. -1.
          1    1    1    2  502    0 -0.52361972665E+02 -0.27480155113E+02  0.17071243579E+03  0.18066452569E+03  0.00000000000E+00 0. -1.
         22    1    3    3    0    0  0.64547833464E+01 -0.75520923343E+01 -0.13729706922E+03  0.13765603344E+03  0.00000000000E+00 0.  1.
         22    1    3    3    0    0  0.96920151788E+01 -0.48117993845E+02  0.98122852912E+01  0.50055543474E+02  0.00000000000E+00 0.  1.
</event>
<event>
 7    1  0.6888431E-006  0.2082444E+03  0.7818608E-02  0.1232124E+00
          2   -1    0    0  502    0  0.00000000000E+00  0.00000000000E+00  0.68737768504E+03  0.68737768504E+03  0.00000000000E+00 0. -1.
          1   -1    0    0  501    0 -0.00000000000E+00 -0.00000000000E+00 -0.12041501356E+04  0.12041501356E+04  0.00000000000E+00 0. -1.
         25    2    1    2    0    0 -0.80111613320E+02  0.25688496972E+03 -0.42604138311E+03  0.51917344482E+03  0.12498818916E+03 0.  0.
          2    1    1    2  501    0  0.55704481147E+02 -0.18350253764E+03 -0.71655359950E+03  0.74177168421E+03  0.00000000000E+00 0. -1.
          1    1    1    2  502    0  0.24407132173E+02 -0.73382432076E+02  0.62582253200E+03  0.63058269165E+03  0.00000000000E+00 0. -1.
         22    1    3    3    0    0  0.34267288662E+01  0.17626550129E+03 -0.29875608200E+03  0.34689546833E+03  0.00000000000E+00 0.  1.
         22    1    3    3    0    0 -0.83538342186E+02  0.80619468432E+02 -0.12728530110E+03  0.17227797649E+03  0.00000000000E+00 0.  1.
</event>
<event>
 7    1  0.6888431E-006  0.5956437E+02  0.7818608E-02  0.1426483E+00
          2   -1    0    0  502    0  0.00000000000E+00  0.00000000000E+00  0.42729864482E+03  0.42729864482E+03  0.00000000000E+00 0. -1.
          1   -1    0    0  501    0 -0.00000000000E+00 -0.00000000000E+00 -0.38090140586E+03  0.38090140586E+03  0.00000000000E+00 0. -1.
         25    2    1    2    0    0  0.20926364666E+02  0.95385380948E+00 -0.12249172640E+03  0.17626156825E+03  0.12500037932E+03 0.  0.
          2    1    1    2  501    0  0.22329847912E+02 -0.42900029381E+02 -0.22669263725E+03  0.23179427606E+03  0.00000000000E+00 0. -1.
          1    1    1    2  502    0 -0.43256212577E+02  0.41946175572E+02  0.39558160261E+03  0.40014420638E+03  0.00000000000E+00 0. -1.
         22    1    3    3    0    0 -0.34479922217E+01 -0.31721393671E+02 -0.13081952110E+03  0.13465467896E+03  0.00000000000E+00 0. -1.
         22    1    3    3    0    0  0.24374356887E+02  0.32675247481E+02  0.83277946964E+01  0.41606889287E+02  0.00000000000E+00 0. -1.
</event>
<event>
 7    1  0.9620601E-006  0.6621064E+02  0.7818608E-02  0.1437952E+00
          2   -1    0    0  502    0  0.00000000000E+00  0.00000000000E+00  0.29312483230E+04  0.29312483230E+04  0.00000000000E+00 0. -1.
          1   -1    0    0  501    0 -0.00000000000E+00 -0.00000000000E+00 -0.45883514136E+03  0.45883514136E+03  0.00000000000E+00 0. -1.
         25    2    1    2    0    0 -0.81936194056E+02  0.40882648438E+02 -0.21629387386E+03  0.26606964203E+03  0.12500033480E+03 0.  0.
          2    1    1    2  501    0  0.15893090488E+02 -0.36594610938E+02 -0.21544489170E+03  0.21910786667E+03  0.00000000000E+00 0. -1.
          1    1    1    2  502    0  0.66043103568E+02 -0.42880375000E+01  0.29041519472E+04  0.29049059557E+04  0.00000000000E+00 0. -1.
         22    1    3    3    0    0 -0.77208221736E+02  0.82499462564E+02 -0.15408010913E+03  0.19107053896E+03  0.00000000000E+00 0. -1.
         22    1    3    3    0    0 -0.47279723203E+01 -0.41616814126E+02 -0.62213764724E+02  0.74999103071E+02  0.00000000000E+00 0. -1.
</event>
<event>
 7    1  0.6888431E-006  0.9099189E+02  0.7818608E-02  0.1422828E+00
          2   -1    0    0  502    0  0.00000000000E+00  0.00000000000E+00  0.72759640715E+03  0.72759640715E+03  0.00000000000E+00 0. -1.
          1   -1    0    0  501    0 -0.00000000000E+00 -0.00000000000E+00 -0.15158651460E+04  0.15158651460E+04  0.00000000000E+00 0. -1.
         25    2    1    2    0    0 -0.65374265066E+02  0.10122254335E+03 -0.10850831405E+04  0.10988859181E+04  0.12500016541E+03 0.  0.
          2    1    1    2  501    0  0.26363944890E+02 -0.19100088541E+02 -0.42038141233E+03  0.42164013424E+03  0.00000000000E+00 0. -1.
          1    1    1    2  502    0  0.39010320177E+02 -0.82122454809E+02  0.71719581401E+03  0.72293550079E+03  0.00000000000E+00 0. -1.
         22    1    3    3    0    0 -0.40221142444E+02  0.57204993127E+02 -0.19154762210E+03  0.20391332245E+03  0.00000000000E+00 0.  1.
         22    1    3    3    0    0 -0.25153122622E+02  0.44017550222E+02 -0.89353551840E+03  0.89497259564E+03  0.00000000000E+00 0.  1.
</event>
<event>
 7    1  0.6888431E-006  0.5465526E+02  0.7818608E-02  0.1496809E+00
          2   -1    0    0  502    0  0.00000000000E+00  0.00000000000E+00  0.22605993014E+03  0.22605993014E+03  0.00000000000E+00 0. -1.
          1   -1    0    0  501    0 -0.00000000000E+00 -0.00000000000E+00 -0.52105190265E+03  0.52105190265E+03  0.00000000000E+00 0. -1.
         25    2    1    2    0    0 -0.26019955294E+02  0.17895798587E+02  0.60528316381E+02  0.14243383015E+03  0.12500568470E+03 0.  0.
          2    1    1    2  501    0  0.54864166364E+02 -0.48631699851E+01 -0.47647629472E+03  0.47964923288E+03  0.00000000000E+00 0. -1.
          1    1    1    2  502    0 -0.28844211070E+02 -0.13032628602E+02  0.12095600583E+03  0.12502876976E+03  0.00000000000E+00 0. -1.
         22    1    3    3    0    0 -0.35229240095E+02 -0.43987430894E+02  0.14359536328E+01  0.56374244094E+02  0.00000000000E+00 0. -1.
         22    1    3    3    0    0  0.92092848009E+01  0.61883229481E+02  0.59092362748E+02  0.86059586060E+02  0.00000000000E+00 0. -1.
</event>
<event>
 7    1  0.6888431E-006  0.9971492E+02  0.7818608E-02  0.1372594E+00
          2   -1    0    0  502    0  0.00000000000E+00  0.00000000000E+00  0.73804887413E+03  0.73804887413E+03  0.00000000000E+00 0. -1.
          1   -1    0    0  501    0 -0.00000000000E+00 -0.00000000000E+00 -0.74256318336E+02  0.74256318336E+02  0.00000000000E+00 0. -1.
         25    2    1    2    0    0 -0.14772120295E+02  0.82841513153E+02  0.27519680053E+03  0.31375039936E+03  0.12500040894E+03 0.  0.
          2    1    1    2  501    0  0.59002025648E+02 -0.85029593052E+02 -0.39000051025E+01  0.10356872484E+03  0.00000000000E+00 0. -1.
          1    1    1    2  502    0 -0.44229905353E+02  0.21880798998E+01  0.39249576036E+03  0.39498606826E+03  0.00000000000E+00 0. -1.
         22    1    3    3    0    0 -0.55203752087E+02  0.83297200105E+02  0.13577989039E+03  0.16858842316E+03  0.00000000000E+00 0.  1.
         22    1    3    3    0    0  0.40431631792E+02 -0.45568695230E+00  0.13941691015E+03  0.14516197620E+03  0.00000000000E+00 0.  1.
</event>
<event>
 7    1  0.6888431E-006  0.8796411E+02  0.7818608E-02  0.1381364E+00
          2   -1    0    0  502    0  0.00000000000E+00  0.00000000000E+00  0.91467005136E+03  0.91467005136E+03  0.00000000000E+00 0. -1.
          1   -1    0    0  501    0 -0.00000000000E+00 -0.00000000000E+00 -0.22145001702E+04  0.22145001702E+04  0.00000000000E+00 0. -1.
         25    2    1    2    0    0 -0.75726040989E+02 -0.81483143438E+02  0.70930253260E+01  0.16748272167E+03  0.12500486030E+03 0.  0.
          2    1    1    2  501    0  0.46706204763E+02 -0.11176035545E+01 -0.21317326065E+04  0.21322445039E+04  0.00000000000E+00 0. -1.
          1    1    1    2  502    0  0.29019836226E+02  0.82600746992E+02  0.82480946240E+03  0.82944299597E+03  0.00000000000E+00 0. -1.
         22    1    3    3    0    0  0.52562104411E+01 -0.41894587363E+02 -0.46343083764E+02  0.62693425582E+02  0.00000000000E+00 0.  1.
         22    1    3    3    0    0 -0.80982251430E+02 -0.39588556075E+02  0.53436109090E+02  0.10478929608E+03  0.00000000000E+00 0.  1.
</event>
<event>
 7    1  0.6888431E-006  0.1432302E+03  0.7818608E-02  0.1338706E+00
          2   -1    0    0  502    0  0.00000000000E+00  0.00000000000E+00  0.67385527746E+02  0.67385527746E+02  0.00000000000E+00 0. -1.
          1   -1    0    0  501    0 -0.00000000000E+00 -0.00000000000E+00 -0.20516394251E+04  0.20516394251E+04  0.00000000000E+00 0. -1.
         25    2    1    2    0    0  0.10959058963E+03  0.92448863335E+02 -0.42440232175E+03  0.46508043945E+03  0.12500237909E+03 0.  0.
          2    1    1    2  501    0 -0.30025581686E+02  0.28015411105E+02 -0.14951950255E+04  0.14957588587E+04  0.00000000000E+00 0. -1.
          1    1    1    2  502    0 -0.79565007943E+02 -0.12046427444E+03 -0.64656550063E+02  0.15818565476E+03  0.00000000000E+00 0. -1.
         22    1    3    3    0    0  0.11882818932E+03  0.11298554026E+03 -0.33627091773E+03  0.37411762989E+03  0.00000000000E+00 0.  1.
         22    1    3    3    0    0 -0.92375996912E+01 -0.20536676920E+02 -0.88131404021E+02  0.90962809553E+02  0.00000000000E+00 0.  1.
</event>
<event>
 7    1  0.6888431E-006  0.6938991E+02  0.7818608E-02  0.1481343E+00
          2   -1    0    0  502    0  0.00000000000E+00  0.00000000000E+00  0.37517944175E+03  0.37517944175E+03  0.00000000000E+00 0. -1.
          1   -1    0    0  501    0 -0.00000000000E+00 -0.00000000000E+00 -0.77123919429E+03  0.77123919429E+03  0.00000000000E+00 0. -1.
         25    2    1    2    0    0 -0.20877459186E+02 -0.37826119685E+02 -0.13243098644E+03  0.18718747481E+03  0.12503799793E+03 0.  0.
          2    1    1    2  501    0 -0.20841596737E+02 -0.18353115757E+02 -0.60758992060E+03  0.60822423548E+03  0.00000000000E+00 0. -1.
          1    1    1    2  502    0  0.41719055922E+02  0.56179235441E+02  0.34396115450E+03  0.35100692575E+03  0.00000000000E+00 0. -1.
         22    1    3    3    0    0 -0.98613926671E+01 -0.76101280236E+02 -0.12499396203E+03  0.14667018260E+03  0.00000000000E+00 0.  1.
         22    1    3    3    0    0 -0.11016066518E+02  0.38275160551E+02 -0.74370244080E+01  0.40517292219E+02  0.00000000000E+00 0.  1.
</event>
<event>
 7    1  0.6888431E-006  0.1551665E+03  0.7818608E-02  0.1304320E+00
          2   -1    0    0  502    0  0.00000000000E+00  0.00000000000E+00  0.11414296112E+04  0.11414296112E+04  0.00000000000E+00 0. -1.
          1   -1    0    0  501    0 -0.00000000000E+00 -0.00000000000E+00 -0.15275658813E+04  0.15275658813E+04  0.00000000000E+00 0. -1.
         25    2    1    2    0    0  0.26379135303E+02 -0.13538088012E+03  0.24837888624E+03  0.31041093998E+03  0.12505614357E+03 0.  0.
          2    1    1    2  501    0  0.21637280362E+02  0.15401108627E+03 -0.14917342814E+04  0.14998195735E+04  0.00000000000E+00 0. -1.
          1    1    1    2  502    0 -0.48016415665E+02 -0.18630206149E+02  0.85721912511E+03  0.85876497903E+03  0.00000000000E+00 0. -1.
         22    1    3    3    0    0 -0.31656042523E+02 -0.11144944918E+03  0.20008567168E+03  0.23120847900E+03  0.00000000000E+00 0.  1.
         22    1    3    3    0    0  0.58035177826E+02 -0.23931430948E+02  0.48293214567E+02  0.79202460983E+02  0.00000000000E+00 0.  1.
</event>
<event>
 7    1  0.6888431E-006  0.2214644E+03  0.7818608E-02  0.1160228E+00
          2   -1    0    0  502    0  0.00000000000E+00  0.00000000000E+00  0.13398665133E+04  0.13398665133E+04  0.00000000000E+00 0. -1.
          1   -1    0    0  501    0 -0.00000000000E+00 -0.00000000000E+00 -0.15976432930E+04  0.15976432930E+04  0.00000000000E+00 0. -1.
         25    2    1    2    0    0 -0.33471174354E+02 -0.12000172642E+03 -0.17367713611E+03  0.24760600745E+03  0.12499701382E+03 0.  0.
          2    1    1    2  501    0  0.17985879677E+03  0.18379618978E+03 -0.13701014135E+04  0.13940258640E+04  0.00000000000E+00 0. -1.
          1    1    1    2  502    0 -0.14638762241E+03 -0.63794463360E+02  0.12860017699E+04  0.12958779348E+04  0.00000000000E+00 0. -1.
         22    1    3    3    0    0  0.13372779498E+02 -0.64473483286E+02 -0.75356398418E+01  0.66275539578E+02  0.00000000000E+00 0. -1.
         22    1    3    3    0    0 -0.46843953852E+02 -0.55528243129E+02 -0.16614149627E+03  0.18133046788E+03  0.00000000000E+00 0. -1.
</event>
<event>
 7    1  0.6888431E-006  0.8460490E+02  0.7818608E-02  0.1395598E+00
          2   -1    0    0  502    0  0.00000000000E+00  0.00000000000E+00  0.13920542423E+04  0.13920542423E+04  0.00000000000E+00 0. -1.
          1   -1    0    0  501    0 -0.00000000000E+00 -0.00000000000E+00 -0.58953395185E+03  0.58953395185E+03  0.00000000000E+00 0. -1.
         25    2    1    2    0    0  0.18322889395E+02 -0.67935780839E+02 -0.24870242009E+03  0.28710391093E+03  0.12499905326E+03 0.  0.
          2    1    1    2  501    0  0.19229995710E+02  0.89519699121E+02 -0.31476409896E+03  0.32781093219E+03  0.00000000000E+00 0. -1.
          1    1    1    2  502    0 -0.37552885105E+02 -0.21583918282E+02  0.13659868095E+04  0.13666733510E+04  0.00000000000E+00 0. -1.
         22    1    3    3    0    0  0.63122615670E+02 -0.72757180694E+02 -0.19080159859E+03  0.21373657146E+03  0.00000000000E+00 0.  1.
         22    1    3    3    0    0 -0.44799726275E+02  0.48213998548E+01 -0.57900821498E+02  0.73367339471E+02  0.00000000000E+00 0.  1.
</event>
<event>
 7    1  0.6888431E-006  0.5909024E+02  0.7818608E-02  0.1433883E+00
          2   -1    0    0  502    0  0.00000000000E+00  0.00000000000E+00  0.16446505531E+04  0.16446505531E+04  0.00000000000E+00 0. -1.
          1   -1    0    0  501    0 -0.00000000000E+00 -0.00000000000E+00 -0.79814827815E+02  0.79814827815E+02  0.00000000000E+00 0. -1.
         25    2    1    2    0    0 -0.79763094208E+02  0.67387868624E+02  0.10841080810E+04  0.10962753800E+04  0.12500440535E+03 0.  0.
          2    1    1    2  501    0  0.42238565586E+02 -0.40621218535E+02 -0.60951496634E+02  0.84553324949E+02  0.00000000000E+00 0. -1.
          1    1    1    2  502    0  0.37524528622E+02 -0.26766650089E+02  0.54167914093E+03  0.54363667603E+03  0.00000000000E+00 0. -1.
         22    1    3    3    0    0 -0.47868963901E+02 -0.28933316109E+02  0.53099984921E+03  0.53393765024E+03  0.00000000000E+00 0. -1.
         22    1    3    3    0    0 -0.31894130307E+02  0.96321184733E+02  0.55310823182E+03  0.56233772974E+03  0.00000000000E+00 0. -1.
</event>
<event>
 7    1  0.6888431E-006  0.1524218E+03  0.7818608E-02  0.1236659E+00
          2   -1    0    0  502    0  0.00000000000E+00  0.00000000000E+00  0.18089503695E+04  0.18089503695E+04  0.00000000000E+00 0. -1.
          1   -1    0    0  501    0 -0.00000000000E+00 -0.00000000000E+00 -0.25217439516E+03  0.25217439516E+03  0.00000000000E+00 0. -1.
         25    2    1    2    0    0 -0.17665187904E+03 -0.33714173023E+02  0.17783528152E+03  0.28212203563E+03  0.12499969522E+03 0.  0.
          2    1    1    2  501    0  0.68609363760E+02 -0.73927500921E+02 -0.18336364140E+03  0.20927194072E+03  0.00000000000E+00 0. -1.
          1    1    1    2  502    0  0.10804251528E+03  0.10764167394E+03  0.15623043342E+04  0.15697307883E+04  0.00000000000E+00 0. -1.
         22    1    3    3    0    0 -0.17750486036E+03 -0.63271893437E+02  0.14385523086E+03  0.23707727727E+03  0.00000000000E+00 0.  1.
         22    1    3    3    0    0  0.85298132172E+00  0.29557720414E+02  0.33980050656E+02  0.45044758361E+02  0.00000000000E+00 0.  1.
</event>
<event>
 7    1  0.7621141E-006  0.1210499E+03  0.7818608E-02  0.1243555E+00
          2   -1    0    0  502    0  0.00000000000E+00  0.00000000000E+00  0.18921010149E+04  0.18921010149E+04  0.00000000000E+00 0. -1.
          1   -1    0    0  501    0 -0.00000000000E+00 -0.00000000000E+00 -0.12557435185E+04  0.12557435185E+04  0.00000000000E+00 0. -1.
         25    2    1    2    0    0 -0.10583290646E+03 -0.17499101683E+03 -0.36120706045E+03  0.43349487530E+03  0.12499922534E+03 0.  0.
          2    1    1    2  501    0 -0.87131015177E+00  0.11840665441E+03 -0.85233037666E+03  0.86051610442E+03  0.00000000000E+00 0. -1.
          1    1    1    2  502    0  0.10670421661E+03  0.56584362413E+02  0.18498949335E+04  0.18538335537E+04  0.00000000000E+00 0. -1.
         22    1    3    3    0    0 -0.66635683916E+02 -0.18649240903E+03 -0.31194852771E+03  0.36950184970E+03  0.00000000000E+00 0. -1.
         22    1    3    3    0    0 -0.39197222540E+02  0.11501392201E+02 -0.49258532745E+02  0.63993025601E+02  0.00000000000E+00 0. -1.
</event>
<event>
 7    1  0.6888431E-006  0.1117455E+03  0.7818608E-02  0.1426746E+00
          2   -1    0    0  502    0  0.00000000000E+00  0.00000000000E+00  0.13002324795E+04  0.13002324795E+04  0.00000000000E+00 0. -1.
          1   -1    0    0  501    0 -0.00000000000E+00 -0.00000000000E+00 -0.51254249694E+02  0.51254249694E+02  0.00000000000E+00 0. -1.
         25    2    1    2    0    0 -0.94691104474E+02  0.25976449457E+02  0.24275874066E+03  0.29016967495E+03  0.12500181159E+03 0.  0.
          2    1    1    2  501    0  0.11774542400E+03 -0.14556234446E+02  0.10122321079E+03  0.15595514495E+03  0.00000000000E+00 0. -1.
          1    1    1    2  502    0 -0.23054319528E+02 -0.11420215012E+02  0.90499627837E+03  0.90536190930E+03  0.00000000000E+00 0. -1.
         22    1    3    3    0    0  0.17336223437E+02  0.40318410592E+02  0.48054707788E+02  0.65079749664E+02  0.00000000000E+00 0.  1.
         22    1    3    3    0    0 -0.11202732791E+03 -0.14341961135E+02  0.19470403287E+03  0.22508992528E+03  0.00000000000E+00 0.  1.
</event>
<event>
 7    1  0.6888431E-006  0.7843848E+02  0.7818608E-02  0.1394801E+00
          2   -1    0    0  502    0  0.00000000000E+00  0.00000000000E+00  0.30518252149E+04  0.30518252149E+04  0.00000000000E+00 0. -1.
          1   -1    0    0  501    0 -0.00000000000E+00 -0.00000000000E+00 -0.22089856453E+03  0.22089856453E+03  0.00000000000E+00 0. -1.
         25    2    1    2    0    0 -0.11095921555E+03  0.54885105344E+02  0.52756984214E+03  0.55612871238E+03  0.12499953635E+03 0.  0.
          2    1    1    2  501    0  0.72890793910E+02 -0.27292115857E+02 -0.19906063851E+03  0.21373597083E+03  0.00000000000E+00 0. -1.
          1    1    1    2  502    0  0.38068421642E+02 -0.27592989487E+02  0.25024174468E+04  0.25028590963E+04  0.00000000000E+00 0. -1.
         22    1    3    3    0    0 -0.91104139929E+02 -0.14306588883E+02  0.19297856960E+03  0.21388167552E+03  0.00000000000E+00 0.  1.
         22    1    3    3    0    0 -0.19855075623E+02  0.69191694227E+02  0.33459127254E+03  0.34224703686E+03  0.00000000000E+00 0.  1.
</event>
<event>
 7    1  0.9674100E-006  0.7127235E+02  0.7818608E-02  0.1368797E+00
          2   -1    0    0  502    0  0.00000000000E+00  0.00000000000E+00  0.84725375732E+03  0.84725375732E+03  0.00000000000E+00 0. -1.
          1   -1    0    0  501    0 -0.00000000000E+00 -0.00000000000E+00 -0.33228019930E+04  0.33228019930E+04  0.00000000000E+00 0. -1.
         25    2    1    2    0    0 -0.85439177994E+02 -0.18729052226E+01 -0.13964882894E+04  0.14046740269E+04  0.12500487375E+03 0.  0.
          2    1    1    2  501    0  0.35759009585E+02  0.52996576860E+02 -0.19201811195E+04  0.19212451368E+04  0.00000000000E+00 0. -1.
          1    1    1    2  502    0  0.49680168409E+02 -0.51123671638E+02  0.84112117320E+03  0.84413658667E+03  0.00000000000E+00 0. -1.
         22    1    3    3    0    0 -0.10889176225E+03  0.28964918820E+02 -0.10437588552E+04  0.10498232853E+04  0.00000000000E+00 0. -1.
         22    1    3    3    0    0  0.23452584252E+02 -0.30837824042E+02 -0.35272943416E+03  0.35485074161E+03  0.00000000000E+00 0. -1.
</event>
<event>
 7    1  0.6888431E-006  0.6130611E+02  0.7818608E-02  0.1398580E+00
          2   -1    0    0  502    0  0.00000000000E+00  0.00000000000E+00  0.54627805698E+03  0.54627805698E+03  0.00000000000E+00 0. -1.
          1   -1    0    0  501    0 -0.00000000000E+00 -0.00000000000E+00 -0.44172869158E+03  0.44172869158E+03  0.00000000000E+00 0. -1.
         25    2    1    2    0    0 -0.11718897207E+03  0.20691679204E+02 -0.15009619674E+03  0.22873124566E+03  0.12501085434E+03 0.  0.
          2    1    1    2  501    0  0.57891274807E+02 -0.74916761632E+01 -0.24708182831E+03  0.25388374267E+03  0.00000000000E+00 0. -1.
          1    1    1    2  502    0  0.59297697265E+02 -0.13200003041E+02  0.50172739044E+03  0.50539176022E+03  0.00000000000E+00 0. -1.
         22    1    3    3    0    0 -0.28554570253E+01 -0.19646825050E+02  0.14297117720E+02  0.24465464321E+02  0.00000000000E+00 0.  1.
         22    1    3    3    0    0 -0.11433351505E+03  0.40338504254E+02 -0.16439331446E+03  0.20426578134E+03  0.00000000000E+00 0.  1.
</event>
<event>
 7    1  0.6888431E-006  0.1636552E+03  0.7818608E-02  0.1330641E+00
          2   -1    0    0  502    0  0.00000000000E+00  0.00000000000E+00  0.36346125264E+03  0.36346125264E+03  0.00000000000E+00 0. -1.
          1   -1    0    0  501    0 -0.00000000000E+00 -0.00000000000E+00 -0.88259117795E+03  0.88259117795E+03  0.00000000000E+00 0. -1.
         25    2    1    2    0    0  0.17273446998E+03 -0.91061846831E+01 -0.63888671833E+03  0.67358755092E+03  0.12499532062E+03 0.  0.
          2    1    1    2  501    0 -0.14701059423E+03  0.37836363465E+02 -0.19961208659E+03  0.25077617576E+03  0.00000000000E+00 0. -1.
          1    1    1    2  502    0 -0.25723875751E+02 -0.28730178782E+02  0.31936887962E+03  0.32168870391E+03  0.00000000000E+00 0. -1.
         22    1    3    3    0    0  0.79839840007E+02  0.27912971537E+02 -0.13086750421E+03  0.15581988863E+03  0.00000000000E+00 0. -1.
         22    1    3    3    0    0  0.92894629977E+02 -0.37019156220E+02 -0.50801921412E+03  0.51776766229E+03  0.00000000000E+00 0. -1.
</event>
<event>
 7    1  0.6888431E-006  0.5223554E+02  0.7818608E-02  0.1467365E+00
          2   -1    0    0  502    0  0.00000000000E+00  0.00000000000E+00  0.27599230002E+03  0.27599230002E+03  0.00000000000E+00 0. -1.
          1   -1    0    0  501    0 -0.00000000000E+00 -0.00000000000E+00 -0.64783155150E+03  0.64783155150E+03  0.00000000000E+00 0. -1.
         25    2    1    2    0    0 -0.41597548215E+02  0.84410702469E+01 -0.42057188072E+02  0.13854586366E+03  0.12499816632E+03 0.  0.
          2    1    1    2  501    0  0.15427292967E+02  0.37717663570E+02 -0.55368043252E+03  0.55517802989E+03  0.00000000000E+00 0. -1.
          1    1    1    2  502    0  0.26170255248E+02 -0.46158733817E+02  0.22389836911E+03  0.23009995797E+03  0.00000000000E+00 0. -1.
         22    1    3    3    0    0 -0.86051423426E+02  0.13877537383E+02 -0.29751075255E+02  0.92100814309E+02  0.00000000000E+00 0. -1.
         22    1    3    3    0    0  0.44453875211E+02 -0.54364671366E+01 -0.12306112817E+02  0.46445049347E+02  0.00000000000E+00 0. -1.
</event>
<event>
 7    1  0.6888431E-006  0.1552266E+03  0.7818608E-02  0.1295958E+00
          2   -1    0    0  502    0  0.00000000000E+00  0.00000000000E+00  0.32882174344E+03  0.32882174344E+03  0.00000000000E+00 0. -1.
          1   -1    0    0  501    0 -0.00000000000E+00 -0.00000000000E+00 -0.24887358697E+04  0.24887358697E+04  0.00000000000E+00 0. -1.
         25    2    1    2    0    0  0.68486477614E+02 -0.77131152332E+02 -0.11751217012E+04  0.11862442889E+04  0.12499955276E+03 0.  0.
          2    1    1    2  501    0  0.49864065740E+02 -0.24614597534E+02 -0.12885796355E+04  0.12897789658E+04  0.00000000000E+00 0. -1.
          1    1    1    2  502    0 -0.11835054335E+03  0.10174574987E+03  0.30378721046E+03  0.34153435840E+03  0.00000000000E+00 0. -1.
         22    1    3    3    0    0  0.80525371057E+02 -0.86831461560E+02 -0.63784332880E+03  0.64874351650E+03  0.00000000000E+00 0. -1.
         22    1    3    3    0    0 -0.12038893443E+02  0.97003092280E+01 -0.53727837236E+03  0.53750077243E+03  0.00000000000E+00 0. -1.
</event>
<event>
 7    1  0.6888431E-006  0.1453600E+03  0.7818608E-02  0.1276192E+00
          2   -1    0    0  502    0  0.00000000000E+00  0.00000000000E+00  0.56115655416E+02  0.56115655416E+02  0.00000000000E+00 0. -1.
          1   -1    0    0  501    0 -0.00000000000E+00 -0.00000000000E+00 -0.34422193720E+04  0.34422193720E+04  0.00000000000E+00 0. -1.
         25    2    1    2    0    0  0.51289071168E+02 -0.78571922901E+02 -0.14292851873E+04  0.14378051546E+04  0.12499360049E+03 0.  0.
          2    1    1    2  501    0  0.71121800425E+02 -0.77459930357E+01 -0.18984147519E+04  0.18997623222E+04  0.00000000000E+00 0. -1.
          1    1    1    2  502    0 -0.12241087159E+03  0.86317915936E+02 -0.58403777445E+02  0.16076755057E+03  0.00000000000E+00 0. -1.
         22    1    3    3    0    0  0.64268664959E+02 -0.16687610456E+01 -0.36124676395E+03  0.36692297628E+03  0.00000000000E+00 0. -1.
         22    1    3    3    0    0 -0.12979593791E+02 -0.76903161855E+02 -0.10680384233E+04  0.10708821783E+04  0.00000000000E+00 0. -1.
</event>
<event>
 7    1  0.7535043E-006  0.4892395E+02  0.7818608E-02  0.1469547E+00
          2   -1    0    0  502    0  0.00000000000E+00  0.00000000000E+00  0.17782847553E+04  0.17782847553E+04  0.00000000000E+00 0. -1.
          1   -1    0    0  501    0 -0.00000000000E+00 -0.00000000000E+00 -0.69936571712E+03  0.69936571712E+03  0.00000000000E+00 0. -1.
         25    2    1    2    0    0  0.71293000403E+02  0.45001299556E+02 -0.17104116148E+03  0.22800978181E+03  0.12500229123E+03 0.  0.
          2    1    1    2  501    0 -0.46650557138E+02 -0.99667539916E+01 -0.49843918268E+03  0.50071671582E+03  0.00000000000E+00 0. -1.
          1    1    1    2  502    0 -0.24642443266E+02 -0.35034545564E+02  0.17483993823E+04  0.17489239747E+04  0.00000000000E+00 0. -1.
         22    1    3    3    0    0  0.42238488897E+02 -0.34211973835E+02 -0.11361385795E+03  0.12594704369E+03  0.00000000000E+00 0. -1.
         22    1    3    3    0    0  0.29054511507E+02  0.79213273391E+02 -0.57427303536E+02  0.10206273812E+03  0.00000000000E+00 0. -1.
</event>
<event>
 7    1  0.6888431E-006  0.6944884E+02  0.7818608E-02  0.1463054E+00
          2   -1    0    0  502    0  0.00000000000E+00  0.00000000000E+00  0.19975078686E+04  0.19975078686E+04  0.00000000000E+00 0. -1.
          1   -1    0    0  501    0 -0.00000000000E+00 -0.00000000000E+00 -0.35621883775E+03  0.35621883775E+03  0.00000000000E+00 0. -1.
         25    2    1    2    0    0 -0.36306624221E+02  0.33931422387E+02  0.17808311429E+03  0.22317844317E+03  0.12500203805E+03 0.  0.
          2    1    1    2  501    0  0.65984015737E+02 -0.23024128088E+02 -0.32987097754E+03  0.33719261947E+03  0.00000000000E+00 0. -1.
          1    1    1    2  502    0 -0.29677391516E+02 -0.10907294299E+02  0.17930768941E+04  0.17933556437E+04  0.00000000000E+00 0. -1.
         22    1    3    3    0    0  0.15929810462E+02  0.55716714495E+02  0.14830683823E+03  0.15922634644E+03  0.00000000000E+00 0.  1.
         22    1    3    3    0    0 -0.52236434683E+02 -0.21785292108E+02  0.29776276057E+02  0.63952096732E+02  0.00000000000E+00 0.  1.
</event>
<event>
 7    1  0.6888431E-006  0.8654214E+02  0.7818608E-02  0.1329596E+00
          2   -1    0    0  502    0  0.00000000000E+00  0.00000000000E+00  0.25648665930E+04  0.25648665930E+04  0.00000000000E+00 0. -1.
          1   -1    0    0  501    0 -0.00000000000E+00 -0.00000000000E+00 -0.57249219225E+03  0.57249219225E+03  0.00000000000E+00 0. -1.
         25    2    1    2    0    0 -0.44053531415E+02 -0.63589796537E+02 -0.33616498017E+03  0.36689995155E+03  0.12499721878E+03 0.  0.
          2    1    1    2  501    0 -0.41225639882E+02  0.78320897139E+02 -0.21132979604E+03  0.22911568913E+03  0.00000000000E+00 0. -1.
          1    1    1    2  502    0  0.85279171297E+02 -0.14731100603E+02  0.25398691770E+04  0.25413431446E+04  0.00000000000E+00 0. -1.
         22    1    3    3    0    0 -0.31484215337E+02 -0.90717622901E+02 -0.31738361615E+03  0.33159207277E+03  0.00000000000E+00 0. -1.
         22    1    3    3    0    0 -0.12569316078E+02  0.27127826364E+02 -0.18781364020E+02  0.35307878786E+02  0.00000000000E+00 0. -1.
</event>
<event>
 7    1  0.6888431E-006  0.5478578E+02  0.7818608E-02  0.1510961E+00
          2   -1    0    0  502    0  0.00000000000E+00  0.00000000000E+00  0.93364560525E+03  0.93364560525E+03  0.00000000000E+00 0. -1.
          1   -1    0    0  501    0 -0.00000000000E+00 -0.00000000000E+00 -0.82565846699E+03  0.82565846699E+03  0.00000000000E+00 0. -1.
         25    2    1    2    0    0  0.27612849468E+01 -0.82406880497E+02  0.17399194938E+03  0.22955795918E+03  0.12500055810E+03 0.  0.
          2    1    1    2  501    0 -0.26217268967E+00  0.28663923331E+02 -0.79662858165E+03  0.79714414401E+03  0.00000000000E+00 0. -1.
          1    1    1    2  502    0 -0.24991122571E+01  0.53742957167E+02  0.73062377052E+03  0.73260196905E+03  0.00000000000E+00 0. -1.
         22    1    3    3    0    0  0.33366606422E+02 -0.54876057294E+02  0.15856824154E+02  0.66152482648E+02  0.00000000000E+00 0. -1.
         22    1    3    3    0    0 -0.30605321476E+02 -0.27530823203E+02  0.15813512523E+03  0.16340547653E+03  0.00000000000E+00 0. -1.
</event>
<event>
 7    1  0.6888431E-006  0.2611469E+03  0.7818608E-02  0.1202103E+00
          2   -1    0    0  502    0  0.00000000000E+00  0.00000000000E+00  0.59381573542E+03  0.59381573542E+03  0.00000000000E+00 0. -1.
          1   -1    0    0  501    0 -0.00000000000E+00 -0.00000000000E+00 -0.48142189329E+03  0.48142189329E+03  0.00000000000E+00 0. -1.
         25    2    1    2    0    0  0.10662421291E+03 -0.16619687956E+03  0.24712857075E+03  0.34012991637E+03  0.12500281588E+03 0.  0.
          2    1    1    2  501    0 -0.18520721341E+03  0.19766736289E+03 -0.38509672502E+03  0.47082224445E+03  0.00000000000E+00 0. -1.
          1    1    1    2  502    0  0.78583000500E+02 -0.31470483332E+02  0.25036199641E+03  0.26428546788E+03  0.00000000000E+00 0. -1.
         22    1    3    3    0    0  0.40765356976E+02 -0.80655787691E+02  0.20537641741E+03  0.22438057680E+03  0.00000000000E+00 0.  1.
         22    1    3    3    0    0  0.65858855930E+02 -0.85541091871E+02  0.41752153338E+02  0.11574933957E+03  0.00000000000E+00 0.  1.
</event>
<event>
 7    1  0.6888431E-006  0.3441680E+02  0.7818608E-02  0.1616018E+00
          2   -1    0    0  502    0  0.00000000000E+00  0.00000000000E+00  0.29889816420E+03  0.29889816420E+03  0.00000000000E+00 0. -1.
          1   -1    0    0  501    0 -0.00000000000E+00 -0.00000000000E+00 -0.11407558017E+04  0.11407558017E+04  0.00000000000E+00 0. -1.
         25    2    1    2    0    0 -0.28166201865E+02 -0.35060583292E+02 -0.23720717551E+02  0.13494269724E+03  0.12499711865E+03 0.  0.
          2    1    1    2  501    0  0.46880093151E+01  0.34074799597E+02 -0.10605772090E+04  0.10611348104E+04  0.00000000000E+00 0. -1.
          1    1    1    2  502    0  0.23478192550E+02  0.98578369491E+00  0.24244028906E+03  0.24357645834E+03  0.00000000000E+00 0. -1.
         22    1    3    3    0    0  0.28302158476E+02 -0.40135452247E+01 -0.55996748738E+02  0.62870951869E+02  0.00000000000E+00 0. -1.
         22    1    3    3    0    0 -0.56468360341E+02 -0.31047038067E+02  0.32276031187E+02  0.72071745376E+02  0.00000000000E+00 0. -1.
</event>
<event>
 7    1  0.6888431E-006  0.4298142E+02  0.7818608E-02  0.1573908E+00
          2   -1    0    0  502    0  0.00000000000E+00  0.00000000000E+00  0.70233537106E+02  0.70233537106E+02  0.00000000000E+00 0. -1.
          1   -1    0    0  501    0 -0.00000000000E+00 -0.00000000000E+00 -0.28164759787E+04  0.28164759787E+04  0.00000000000E+00 0. -1.
         25    2    1    2    0    0  0.18992637714E+02 -0.36366312311E+00 -0.10484485591E+04  0.10560444702E+04  0.12499875766E+03 0.  0.
          2    1    1    2  501    0  0.23892072364E+02 -0.43389543963E+01 -0.17571328921E+04  0.17573006738E+04  0.00000000000E+00 0. -1.
          1    1    1    2  502    0 -0.42884710078E+02  0.47026175194E+01  0.59339009679E+02  0.73364371732E+02  0.00000000000E+00 0. -1.
         22    1    3    3    0    0 -0.29658979624E+02 -0.38830271833E+02 -0.22404254880E+03  0.22930876293E+03  0.00000000000E+00 0.  1.
         22    1    3    3    0    0  0.48651617337E+02  0.38466608710E+02 -0.82440601029E+03  0.82673570726E+03  0.00000000000E+00 0.  1.
</event>
<event>
 7    1  0.6888431E-006  0.6397562E+02  0.7818608E-02  0.1404570E+00
          2   -1    0    0  502    0  0.00000000000E+00  0.00000000000E+00  0.53853178103E+03  0.53853178103E+03  0.00000000000E+00 0. -1.
          1   -1    0    0  501    0 -0.00000000000E+00 -0.00000000000E+00 -0.17385679563E+03  0.17385679563E+03  0.00000000000E+00 0. -1.
         25    2    1    2    0    0  0.75553565132E+02  0.78225133906E+02  0.19247330761E+03  0.25396318871E+03  0.12499525709E+03 0.  0.
          2    1    1    2  501    0 -0.55820629699E+02 -0.28655743480E+02 -0.13381340410E+03  0.14779418612E+03  0.00000000000E+00 0. -1.
          1    1    1    2  502    0 -0.19732935433E+02 -0.49569390426E+02  0.30601508189E+03  0.31063120184E+03  0.00000000000E+00 0. -1.
         22    1    3    3    0    0  0.10146951587E+03  0.88030817775E+02  0.17707385050E+03  0.22226253859E+03  0.00000000000E+00 0.  1.
         22    1    3    3    0    0 -0.25915950735E+02 -0.98056838693E+01  0.15399457112E+02  0.31700650119E+02  0.00000000000E+00 0.  1.
</event>
<event>
 7    1  0.6888431E-006  0.1411037E+03  0.7818608E-02  0.1270717E+00
          2   -1    0    0  502    0  0.00000000000E+00  0.00000000000E+00  0.20419460721E+04  0.20419460721E+04  0.00000000000E+00 0. -1.
          1   -1    0    0  501    0 -0.00000000000E+00 -0.00000000000E+00 -0.92089246834E+03  0.92089246834E+03  0.00000000000E+00 0. -1.
         25    2    1    2    0    0  0.12598659645E+03  0.13130601674E+03  0.34546775896E+03  0.40998534899E+03  0.12500448548E+03 0.  0.
          2    1    1    2  501    0 -0.77672321101E+02 -0.13479188182E+01 -0.88403965060E+03  0.88744628580E+03  0.00000000000E+00 0. -1.
          1    1    1    2  502    0 -0.48314275345E+02 -0.12995809792E+03  0.16596254954E+04  0.16654069057E+04  0.00000000000E+00 0. -1.
         22    1    3    3    0    0  0.33126425845E+02  0.11936194025E+03  0.16121509247E+03  0.20330995773E+03  0.00000000000E+00 0. -1.
         22    1    3    3    0    0  0.92860170601E+02  0.11944076490E+02  0.18425266648E+03  0.20667539126E+03  0.00000000000E+00 0. -1.
</event>
<event>
 7    1  0.6888431E-006  0.2485602E+03  0.7818608E-02  0.1269503E+00
          2   -1    0    0  502    0  0.00000000000E+00  0.00000000000E+00  0.11631963631E+04  0.11631963631E+04  0.00000000000E+00 0. -1.
          1   -1    0    0  501    0 -0.00000000000E+00 -0.00000000000E+00 -0.61329471791E+03  0.61329471791E+03  0.00000000000E+00 0. -1.
         25    2    1    2    0    0  0.12703141192E+03  0.22039927265E+03 -0.12121235427E+03  0.30827103618E+03  0.12500311166E+03 0.  0.
          2    1    1    2  501    0 -0.42613302588E+02  0.13233242106E+02 -0.38281683163E+03  0.38540853498E+03  0.00000000000E+00 0. -1.
          1    1    1    2  502    0 -0.84418109334E+02 -0.23363251475E+03  0.10539308311E+04  0.10828115099E+04  0.00000000000E+00 0. -1.
         22    1    3    3    0    0  0.71082922508E+02  0.20418668990E+03 -0.12527811536E+03  0.24987915558E+03  0.00000000000E+00 0.  1.
         22    1    3    3    0    0  0.55948489414E+02  0.16212582742E+02  0.40657610888E+01  0.58391880601E+02  0.00000000000E+00 0.  1.
</event>
<event>
 7    1  0.6888431E-006  0.1644452E+03  0.7818608E-02  0.1340493E+00
          2   -1    0    0  502    0  0.00000000000E+00  0.00000000000E+00  0.32886952931E+03  0.32886952931E+03  0.00000000000E+00 0. -1.
          1   -1    0    0  501    0 -0.00000000000E+00 -0.00000000000E+00 -0.66144625315E+03  0.66144625315E+03  0.00000000000E+00 0. -1.
         25    2    1    2    0    0  0.37407426292E+02 -0.16770674658E+03  0.24143248759E+03  0.32161914088E+03  0.12499742927E+03 0.  0.
          2    1    1    2  501    0 -0.23568091665E+01  0.16427487787E+03 -0.60180703335E+03  0.62382970067E+03  0.00000000000E+00 0. -1.
          1    1    1    2  502    0 -0.35050617125E+02  0.34318687111E+01  0.27797821914E+02  0.44866940913E+02  0.00000000000E+00 0. -1.
         22    1    3    3    0    0  0.18415795214E+02 -0.16067426555E-01  0.99255237251E+02  0.10094921443E+03  0.00000000000E+00 0.  1.
         22    1    3    3    0    0  0.18991631078E+02 -0.16769067915E+03  0.14217725034E+03  0.22066992645E+03  0.00000000000E+00 0.  1.
</event>
<event>
 7    1  0.6888431E-006  0.5678328E+02  0.7818608E-02  0.1487650E+00
          2   -1    0    0  502    0  0.00000000000E+00  0.00000000000E+00  0.72279885380E+03  0.72279885380E+03  0.00000000000E+00 0. -1.
          1   -1    0    0  501    0 -0.00000000000E+00 -0.00000000000E+00 -0.22670869230E+03  0.22670869230E+03  0.00000000000E+00 0. -1.
         25    2    1    2    0    0  0.44584700672E+02 -0.76071427946E+02  0.91205071349E+02  0.17809616278E+03  0.12500088189E+03 0.  0.
          2    1    1    2  501    0 -0.29804891601E+02  0.47164159531E+02 -0.17855501113E+03  0.18706865453E+03  0.00000000000E+00 0. -1.
          1    1    1    2  502    0 -0.14779809070E+02  0.28907268415E+02  0.58344010127E+03  0.58434272880E+03  0.00000000000E+00 0. -1.
         22    1    3    3    0    0 -0.38575854744E+02 -0.46764567999E+02  0.17289389536E+02  0.63039228897E+02  0.00000000000E+00 0. -1.
         22    1    3    3    0    0  0.83160555416E+02 -0.29306859947E+02  0.73915681813E+02  0.11505693388E+03  0.00000000000E+00 0. -1.
</event>
<event>
 7    1  0.6888431E-006  0.1982962E+03  0.7818608E-02  0.1239268E+00
          2   -1    0    0  502    0  0.00000000000E+00  0.00000000000E+00  0.80347666313E+03  0.80347666313E+03  0.00000000000E+00 0. -1.
          1   -1    0    0  501    0 -0.00000000000E+00 -0.00000000000E+00 -0.12511039931E+04  0.12511039931E+04  0.00000000000E+00 0. -1.
         25    2    1    2    0    0 -0.95049439738E+02 -0.16660927884E+03 -0.51689338114E+03  0.56532860569E+03  0.12499846862E+03 0.  0.
          2    1    1    2  501    0  0.16140400262E+03  0.13060796109E+03 -0.69290864036E+03  0.72334782466E+03  0.00000000000E+00 0. -1.
          1    1    1    2  502    0 -0.66354562878E+02  0.36001317744E+02  0.76217469150E+03  0.76590422591E+03  0.00000000000E+00 0. -1.
         22    1    3    3    0    0  0.26358649797E+02 -0.33118966607E+02 -0.54725336776E+02  0.69184585375E+02  0.00000000000E+00 0. -1.
         22    1    3    3    0    0 -0.12140808954E+03 -0.13349031223E+03 -0.46216804436E+03  0.49614402031E+03  0.00000000000E+00 0. -1.
</event>
<event>
 7    1  0.6888431E-006  0.5546979E+02  0.7818608E-02  0.1448790E+00
          2   -1    0    0  502    0  0.00000000000E+00  0.00000000000E+00  0.14562747400E+04  0.14562747400E+04  0.00000000000E+00 0. -1.
          1   -1    0    0  501    0 -0.00000000000E+00 -0.00000000000E+00 -0.32339732188E+03  0.32339732188E+03  0.00000000000E+00 0. -1.
         25    2    1    2    0    0  0.81471592407E+01  0.14937776257E+02  0.29240481533E+02  0.12950020821E+03  0.12500313917E+03 0.  0.
          2    1    1    2  501    0 -0.17782868403E+02  0.40174466472E+02 -0.27092883187E+03  0.27446794003E+03  0.00000000000E+00 0. -1.
          1    1    1    2  502    0  0.96357091620E+01 -0.55112242729E+02  0.13745657685E+04  0.13757039137E+04  0.00000000000E+00 0. -1.
         22    1    3    3    0    0  0.48120763199E+02 -0.14799591154E+02  0.54031409143E+02  0.73851397571E+02  0.00000000000E+00 0.  1.
         22    1    3    3    0    0 -0.39973603958E+02  0.29737367411E+02 -0.24790927610E+02  0.55648810640E+02  0.00000000000E+00 0.  1.
</event>
<event>
 7    1  0.6888431E-006  0.8632557E+02  0.7818608E-02  0.1356697E+00
          2   -1    0    0  502    0  0.00000000000E+00  0.00000000000E+00  0.17635220923E+04  0.17635220923E+04  0.00000000000E+00 0. -1.
          1   -1    0    0  501    0 -0.00000000000E+00 -0.00000000000E+00 -0.13279202003E+03  0.13279202003E+03  0.00000000000E+00 0. -1.
         25    2    1    2    0    0 -0.60059182122E+02 -0.51453374491E+02  0.91927206276E+02  0.17415069310E+03  0.12499319001E+03 0.  0.
          2    1    1    2  501    0 -0.27006160681E+02  0.51790556848E+02 -0.81088086611E+02  0.99934339862E+02  0.00000000000E+00 0. -1.
          1    1    1    2  502    0  0.87065342803E+02 -0.33718235765E+00  0.16198909526E+04  0.16222290793E+04  0.00000000000E+00 0. -1.
         22    1    3    3    0    0  0.15381290102E+02 -0.56517852279E+02  0.77551653042E+02  0.97185958868E+02  0.00000000000E+00 0.  1.
         22    1    3    3    0    0 -0.75440472224E+02  0.50644777888E+01  0.14375553234E+02  0.76964734233E+02  0.00000000000E+00 0.  1.
</event>
<event>
 7    1  0.6888431E-006  0.1110008E+03  0.7818608E-02  0.1328474E+00
          2   -1    0    0  502    0  0.00000000000E+00  0.00000000000E+00  0.15384681167E+04  0.15384681167E+04  0.00000000000E+00 0. -1.
          1   -1    0    0  501    0 -0.00000000000E+00 -0.00000000000E+00 -0.38274676737E+03  0.38274676737E+03  0.00000000000E+00 0. -1.
         25    2    1    2    0    0  0.21399644147E+02  0.90406044654E+02 -0.67053166255E+02  0.16956233428E+03  0.12499624163E+03 0.  0.
          2    1    1    2  501    0  0.56907412416E+02 -0.10951303161E+02 -0.25914211562E+03  0.26554287924E+03  0.00000000000E+00 0. -1.
          1    1    1    2  502    0 -0.78307056562E+02 -0.79454741493E+02  0.14819166312E+04  0.14861096705E+04  0.00000000000E+00 0. -1.
         22    1    3    3    0    0  0.76781592328E+01  0.10298139270E+03 -0.92090584344E+02  0.13836472490E+03  0.00000000000E+00 0.  1.
         22    1    3    3    0    0  0.13721484914E+02 -0.12575348042E+02  0.25037418090E+02  0.31197609383E+02  0.00000000000E+00 0.  1.
</event>
<event>
 7    1  0.6888431E-006  0.3758101E+02  0.7818608E-02  0.1547369E+00
          2   -1    0    0  502    0  0.00000000000E+00  0.00000000000E+00  0.50287146238E+02  0.50287146238E+02  0.00000000000E+00 0. -1.
          1   -1    0    0  501    0 -0.00000000000E+00 -0.00000000000E+00 -0.84320059724E+03  0.84320059724E+03  0.00000000000E+00 0. -1.
         25    2    1    2    0    0 -0.20345576997E+02 -0.58063818691E+02 -0.57078073136E+03  0.58753803887E+03  0.12499981712E+03 0.  0.
          2    1    1    2  501    0 -0.27583765924E+01  0.34703481930E+02 -0.25623848407E+03  0.25859253860E+03  0.00000000000E+00 0. -1.
          1    1    1    2  502    0  0.23103953590E+02  0.23360336760E+02  0.34105764432E+02  0.47357166010E+02  0.00000000000E+00 0. -1.
         22    1    3    3    0    0 -0.19622029294E+02 -0.61848368234E+02 -0.57677437818E+03  0.58041272213E+03  0.00000000000E+00 0. -1.
         22    1    3    3    0    0 -0.72354770331E+00  0.37845495430E+01  0.59936468147E+01  0.71253167411E+01  0.00000000000E+00 0. -1.
</event>
<event>
 7    1  0.6888431E-006  0.3885753E+02  0.7818608E-02  0.1575928E+00
          2   -1    0    0  502    0  0.00000000000E+00  0.00000000000E+00  0.24031018024E+04  0.24031018024E+04  0.00000000000E+00 0. -1.
          1   -1    0    0  501    0 -0.00000000000E+00 -0.00000000000E+00 -0.11990111832E+02  0.11990111832E+02  0.00000000000E+00 0. -1.
         25    2    1    2    0    0 -0.16603394462E+02  0.12875942336E+02  0.12807222692E+04  0.12869798313E+04  0.12500437070E+03 0.  0.
          2    1    1    2  501    0  0.96028051658E+01 -0.38460305467E+02  0.36470472064E+02  0.53865613300E+02  0.00000000000E+00 0. -1.
          1    1    1    2  502    0  0.70005892959E+01  0.25584363131E+02  0.10739189493E+04  0.10742464697E+04  0.00000000000E+00 0. -1.
         22    1    3    3    0    0 -0.48184305226E+02 -0.25147313586E+02  0.10299311622E+04  0.10313642972E+04  0.00000000000E+00 0.  1.
         22    1    3    3    0    0  0.31580910765E+02  0.38023255922E+02  0.25079110695E+03  0.25561553404E+03  0.00000000000E+00 0.  1.
</event>
<event>
 7    1  0.6888431E-006  0.1393050E+03  0.7818608E-02  0.1273285E+00
          2   -1    0    0  502    0  0.00000000000E+00  0.00000000000E+00  0.17050878214E+03  0.17050878214E+03  0.00000000000E+00 0. -1.
          1   -1    0    0  501    0 -0.00000000000E+00 -0.00000000000E+00 -0.69351106959E+03  0.69351106959E+03  0.00000000000E+00 0. -1.
         25    2    1    2    0    0  0.72613583239E+02  0.75774037003E+02 -0.72116291137E+01  0.16335771665E+03  0.12497719328E+03 0.  0.
          2    1    1    2  501    0 -0.13961701107E+03 -0.38314086875E+02 -0.58172410661E+03  0.59946961161E+03  0.00000000000E+00 0. -1.
          1    1    1    2  502    0  0.67003427827E+02 -0.37459950128E+02  0.65933448276E+02  0.10119252347E+03  0.00000000000E+00 0. -1.
         22    1    3    3    0    0  0.82475020396E+02  0.77393060951E+02 -0.46893375779E+02  0.12243693709E+03  0.00000000000E+00 0.  1.
         22    1    3    3    0    0 -0.98614371569E+01 -0.16190239477E+01  0.39681746665E+02  0.40920779559E+02  0.00000000000E+00 0.  1.
</event>
<event>
 7    1  0.6888431E-006  0.6935580E+02  0.7818608E-02  0.1431429E+00
          2   -1    0    0  502    0  0.00000000000E+00  0.00000000000E+00  0.87443512119E+03  0.87443512119E+03  0.00000000000E+00 0. -1.
          1   -1    0    0  501    0 -0.00000000000E+00 -0.00000000000E+00 -0.14262198664E+04  0.14262198664E+04  0.00000000000E+00 0. -1.
         25    2    1    2    0    0 -0.33585819703E+02  0.46766924402E+02  0.87228183046E+02  0.16293543809E+03  0.12499619421E+03 0.  0.
          2    1    1    2  501    0 -0.32628225341E+02 -0.23147050365E+02 -0.13864282618E+04  0.13870053035E+04  0.00000000000E+00 0. -1.
          1    1    1    2  502    0  0.66214045044E+02 -0.23619874037E+02  0.74741533354E+03  0.75071424592E+03  0.00000000000E+00 0. -1.
         22    1    3    3    0    0  0.19614704228E+02 -0.16694126249E+02  0.74908919228E+02  0.79213487823E+02  0.00000000000E+00 0. -1.
         22    1    3    3    0    0 -0.53200523931E+02  0.63461050651E+02  0.12319263818E+02  0.83721950271E+02  0.00000000000E+00 0. -1.
</event>
<event>
 7    1  0.6888431E-006  0.8442366E+02  0.7818608E-02  0.1336457E+00
          2   -1    0    0  502    0  0.00000000000E+00  0.00000000000E+00  0.13578609122E+04  0.13578609122E+04  0.00000000000E+00 0. -1.
          1   -1    0    0  501    0 -0.00000000000E+00 -0.00000000000E+00 -0.14514550940E+03  0.14514550940E+03  0.00000000000E+00 0. -1.
         25    2    1    2    0    0  0.35280663613E+02 -0.13823945997E+03  0.16575156507E+03  0.25189942837E+03  0.12499946869E+03 0.  0.
          2    1    1    2  501    0  0.11549830794E+02  0.70101701554E+02 -0.88019990653E+02  0.11311571910E+03  0.00000000000E+00 0. -1.
          1    1    1    2  502    0 -0.46830494407E+02  0.68137758414E+02  0.11349838284E+04  0.11379912742E+04  0.00000000000E+00 0. -1.
         22    1    3    3    0    0  0.20218408847E+02 -0.39576851160E+02  0.14270805847E+03  0.14946806065E+03  0.00000000000E+00 0.  1.
         22    1    3    3    0    0  0.15062254767E+02 -0.98662608808E+02  0.23043506598E+02  0.10243136771E+03  0.00000000000E+00 0.  1.
</event>
<event>
 7    1  0.6888431E-006  0.4504954E+02  0.7818608E-02  0.1562475E+00
          2   -1    0    0  502    0  0.00000000000E+00  0.00000000000E+00  0.31534076296E+03  0.31534076296E+03  0.00000000000E+00 0. -1.
          1   -1    0    0  501    0 -0.00000000000E+00 -0.00000000000E+00 -0.18622368557E+03  0.18622368557E+03  0.00000000000E+00 0. -1.
         25    2    1    2    0    0 -0.37965065462E+02  0.42795192647E+02 -0.14680051902E+02  0.13825083740E+03  0.12500006164E+03 0.  0.
          2    1    1    2  501    0  0.24889790565E+02  0.12105892803E+00 -0.10632515580E+03  0.10919961119E+03  0.00000000000E+00 0. -1.
          1    1    1    2  502    0  0.13075274897E+02 -0.42916251575E+02  0.25012228509E+03  0.25411399993E+03  0.00000000000E+00 0. -1.
         22    1    3    3    0    0 -0.57654694699E+01  0.10577350066E+02  0.54282508615E+02  0.55603162807E+02  0.00000000000E+00 0. -1.
         22    1    3    3    0    0 -0.32199595992E+02  0.32217842581E+02 -0.68962560517E+02  0.82647674594E+02  0.00000000000E+00 0. -1.
</event>
<event>
 7    1  0.6888431E-006  0.7653579E+02  0.7818608E-02  0.1404652E+00
          2   -1    0    0  502    0  0.00000000000E+00  0.00000000000E+00  0.42198568412E+03  0.42198568412E+03  0.00000000000E+00 0. -1.
          1   -1    0    0  501    0 -0.00000000000E+00 -0.00000000000E+00 -0.12289578230E+04  0.12289578230E+04  0.00000000000E+00 0. -1.
         25    2    1    2    0    0  0.18810951717E+02  0.49704116376E+02  0.31257721067E+02  0.13938219642E+03  0.12500400179E+03 0.  0.
          2    1    1    2  501    0  0.44519173139E+02 -0.20935756593E+01 -0.11698038541E+04  0.11706525517E+04  0.00000000000E+00 0. -1.
          1    1    1    2  502    0 -0.63330124855E+02 -0.47610540717E+02  0.33157399418E+03  0.34090875893E+03  0.00000000000E+00 0. -1.
         22    1    3    3    0    0  0.30045320430E+02 -0.31596157563E+02  0.36894507060E+02  0.57116049440E+02  0.00000000000E+00 0. -1.
         22    1    3    3    0    0 -0.11234368713E+02  0.81300273939E+02 -0.56367859939E+01  0.82266146982E+02  0.00000000000E+00 0. -1.
</event>
<event>
 7    1  0.6888431E-006  0.4405660E+02  0.7818608E-02  0.1570534E+00
          2   -1    0    0  502    0  0.00000000000E+00  0.00000000000E+00  0.43263003067E+03  0.43263003067E+03  0.00000000000E+00 0. -1.
          1   -1    0    0  501    0 -0.00000000000E+00 -0.00000000000E+00 -0.55121357164E+03  0.55121357164E+03  0.00000000000E+00 0. -1.
         25    2    1    2    0    0  0.47679980607E+01  0.67934712518E+02 -0.16733154383E+03  0.21968780758E+03  0.12500011307E+03 0.  0.
          2    1    1    2  501    0 -0.14817062065E+01 -0.24148760291E+02 -0.35610634903E+03  0.35692728937E+03  0.00000000000E+00 0. -1.
          1    1    1    2  502    0 -0.32862918542E+01 -0.43785952228E+02  0.40485435189E+03  0.40722850536E+03  0.00000000000E+00 0. -1.
         22    1    3    3    0    0  0.41291165034E+02 -0.85931163210E+01 -0.13942891172E+02  0.44420785362E+02  0.00000000000E+00 0. -1.
         22    1    3    3    0    0 -0.36523166973E+02  0.76527828839E+02 -0.15338865266E+03  0.17526702222E+03  0.00000000000E+00 0. -1.
</event>
<event>
 7    1  0.6888431E-006  0.7403847E+02  0.7818608E-02  0.1422309E+00
          2   -1    0    0  502    0  0.00000000000E+00  0.00000000000E+00  0.42208707374E+03  0.42208707374E+03  0.00000000000E+00 0. -1.
          1   -1    0    0  501    0 -0.00000000000E+00 -0.00000000000E+00 -0.64732682100E+03  0.64732682100E+03  0.00000000000E+00 0. -1.
         25    2    1    2    0    0 -0.84959935097E+02 -0.11501931006E+02  0.30081838860E+03  0.33684773677E+03  0.12499683942E+03 0.  0.
          2    1    1    2  501    0  0.19210384939E+02  0.35278442897E+02 -0.61674770695E+03  0.61805448097E+03  0.00000000000E+00 0. -1.
          1    1    1    2  502    0  0.65749550158E+02 -0.23776511891E+02  0.90689571092E+02  0.11451167700E+03  0.00000000000E+00 0. -1.
         22    1    3    3    0    0 -0.15175144136E+02  0.43505579893E+02  0.18621956398E+03  0.19183520660E+03  0.00000000000E+00 0.  1.
         22    1    3    3    0    0 -0.69784790961E+02 -0.55007510899E+02  0.11459882461E+03  0.14501253017E+03  0.00000000000E+00 0.  1.
</event>
<event>
 7    1  0.6888431E-006  0.1258766E+03  0.7818608E-02  0.1367399E+00
          2   -1    0    0  502    0  0.00000000000E+00  0.00000000000E+00  0.66506827943E+02  0.66506827943E+02  0.00000000000E+00 0. -1.
          1   -1    0    0  501    0 -0.00000000000E+00 -0.00000000000E+00 -0.66781479049E+03  0.66781479049E+03  0.00000000000E+00 0. -1.
         25    2    1    2    0    0  0.91656813259E+02 -0.80780444472E+02 -0.29169910697E+03  0.34005824978E+03  0.12499917042E+03 0.  0.
          2    1    1    2  501    0  0.24799805866E+02  0.26946635420E+02 -0.25022231818E+03  0.25288803856E+03  0.00000000000E+00 0. -1.
          1    1    1    2  502    0 -0.11645661913E+03  0.53833809052E+02 -0.59386537388E+02  0.14137533009E+03  0.00000000000E+00 0. -1.
         22    1    3    3    0    0  0.91685255287E+01  0.48216414080E+01 -0.16863752309E+03  0.16895539139E+03  0.00000000000E+00 0. -1.
         22    1    3    3    0    0  0.82488287731E+02 -0.85602085880E+02 -0.12306158388E+03  0.17110285838E+03  0.00000000000E+00 0. -1.
</event>
<event>
 7    1  0.6888431E-006  0.1305321E+03  0.7818608E-02  0.1246699E+00
          2   -1    0    0  502    0  0.00000000000E+00  0.00000000000E+00  0.16662543972E+04  0.16662543972E+04  0.00000000000E+00 0. -1.
          1   -1    0    0  501    0 -0.00000000000E+00 -0.00000000000E+00 -0.19168209090E+03  0.19168209090E+03  0.00000000000E+00 0. -1.
         25    2    1    2    0    0  0.19530562077E+02 -0.14168278451E+03  0.67321435503E+00  0.18994524525E+03  0.12499315458E+03 0.  0.
          2    1    1    2  501    0  0.85709875827E+02  0.63023449181E+02 -0.64222273698E+02  0.12426841272E+03  0.00000000000E+00 0. -1.
          1    1    1    2  502    0 -0.10524043790E+03  0.78659335331E+02  0.15381213657E+04  0.15437228302E+04  0.00000000000E+00 0. -1.
         22    1    3    3    0    0 -0.34858575515E+01 -0.28823872709E+02 -0.54864312310E+02  0.62073018341E+02  0.00000000000E+00 0. -1.
         22    1    3    3    0    0  0.23016419629E+02 -0.11285891180E+03  0.55537526665E+02  0.12787222691E+03  0.00000000000E+00 0. -1.
</event>
<event>
 7    1  0.6888431E-006  0.6565310E+02  0.7818608E-02  0.1399429E+00
          2   -1    0    0  502    0  0.00000000000E+00  0.00000000000E+00  0.12450852600E+02  0.12450852600E+02  0.00000000000E+00 0. -1.
          1   -1    0    0  501    0 -0.00000000000E+00 -0.00000000000E+00 -0.16492806538E+04  0.16492806538E+04  0.00000000000E+00 0. -1.
         25    2    1    2    0    0 -0.80142789272E+02 -0.30022893649E+02 -0.78645253645E+03  0.80091012754E+03  0.12500079796E+03 0.  0.
          2    1    1    2  501    0  0.61207346287E+02 -0.20701391510E+02 -0.65181325818E+03  0.65500794681E+03  0.00000000000E+00 0. -1.
          1    1    1    2  502    0  0.18935442984E+02  0.50724285158E+02 -0.19856400657E+03  0.20581343205E+03  0.00000000000E+00 0. -1.
         22    1    3    3    0    0 -0.75763885390E+02  0.75937756581E+01 -0.21286482186E+03  0.22607358125E+03  0.00000000000E+00 0. -1.
         22    1    3    3    0    0 -0.43789038824E+01 -0.37616669307E+02 -0.57358771459E+03  0.57483654628E+03  0.00000000000E+00 0. -1.
</event>
<event>
 7    1  0.6888431E-006  0.4857944E+02  0.7818608E-02  0.1521863E+00
          2   -1    0    0  502    0  0.00000000000E+00  0.00000000000E+00  0.11800011508E+04  0.11800011508E+04  0.00000000000E+00 0. -1.
          1   -1    0    0  501    0 -0.00000000000E+00 -0.00000000000E+00 -0.30406611975E+02  0.30406611975E+02  0.00000000000E+00 0. -1.
         25    2    1    2    0    0  0.23977985256E+02  0.19526262719E+02  0.52918121959E+03  0.54462267400E+03  0.12499950062E+03 0.  0.
          2    1    1    2  501    0 -0.49617565078E+02 -0.38659542909E+01  0.54243327283E+01  0.50062678239E+02  0.00000000000E+00 0. -1.
          1    1    1    2  502    0  0.25639579822E+02 -0.15660308428E+02  0.61498898647E+03  0.61572241050E+03  0.00000000000E+00 0. -1.
         22    1    3    3    0    0  0.54605263983E+02  0.12173481875E+01  0.48389509276E+03  0.48696784041E+03  0.00000000000E+00 0.  1.
         22    1    3    3    0    0 -0.30627278727E+02  0.18308914531E+02  0.45286126831E+02  0.57654833595E+02  0.00000000000E+00 0.  1.
</event>
<event>
 7    1  0.6888431E-006  0.2055141E+03  0.7818608E-02  0.1298622E+00
          2   -1    0    0  502    0  0.00000000000E+00  0.00000000000E+00  0.11547387401E+04  0.11547387401E+04  0.00000000000E+00 0. -1.
          1   -1    0    0  501    0 -0.00000000000E+00 -0.00000000000E+00 -0.12494261372E+03  0.12494261372E+03  0.00000000000E+00 0. -1.
         25    2    1    2    0    0 -0.16171091474E+03 -0.10947680554E+03  0.55060081592E+03  0.59742837056E+03  0.12499523415E+03 0.  0.
          2    1    1    2  501    0 -0.35127841053E+02  0.21101417889E+02 -0.76143693219E+02  0.86470209154E+02  0.00000000000E+00 0. -1.
          1    1    1    2  502    0  0.19683875580E+03  0.88375387646E+02  0.55533900368E+03  0.59578277412E+03  0.00000000000E+00 0. -1.
         22    1    3    3    0    0 -0.15798954425E+03 -0.12008729589E+03  0.40112065763E+03  0.44752590619E+03  0.00000000000E+00 0.  1.
         22    1    3    3    0    0 -0.37213704935E+01  0.10610490359E+02  0.14948015828E+03  0.14990246437E+03  0.00000000000E+00 0.  1.
</event>
<event>
 7    1  0.6888431E-006  0.1329051E+03  0.7818608E-02  0.1296065E+00
          2   -1    0    0  502    0  0.00000000000E+00  0.00000000000E+00  0.31080338872E+03  0.31080338872E+03  0.00000000000E+00 0. -1.
          1   -1    0    0  501    0 -0.00000000000E+00 -0.00000000000E+00 -0.80273197335E+03  0.80273197335E+03  0.00000000000E+00 0. -1.
         25    2    1    2    0    0  0.67062977112E+02  0.56409489533E+02  0.23302900847E+02  0.15443124535E+03  0.12500604362E+03 0.  0.
          2    1    1    2  501    0  0.35689464707E+02  0.54186585485E+02 -0.70984462010E+03  0.71280383601E+03  0.00000000000E+00 0. -1.
          1    1    1    2  502    0 -0.10275244182E+03 -0.11059607502E+03  0.19461313463E+03  0.24630028071E+03  0.00000000000E+00 0. -1.
         22    1    3    3    0    0  0.92362468902E+02  0.68091951387E+02  0.40498894899E+02  0.12168607148E+03  0.00000000000E+00 0. -1.
         22    1    3    3    0    0 -0.25299491790E+02 -0.11682461854E+02 -0.17195994052E+02  0.32745173861E+02  0.00000000000E+00 0. -1.
</event>
<event>
 7    1  0.6888431E-006  0.4637162E+02  0.7818608E-02  0.1569353E+00
          2   -1    0    0  502    0  0.00000000000E+00  0.00000000000E+00  0.25594478473E+03  0.25594478473E+03  0.00000000000E+00 0. -1.
          1   -1    0    0  501    0 -0.00000000000E+00 -0.00000000000E+00 -0.39333373522E+03  0.39333373522E+03  0.00000000000E+00 0. -1.
         25    2    1    2    0    0 -0.46660589531E+02 -0.50557072703E+02  0.11222797265E+03  0.18153865124E+03  0.12501174278E+03 0.  0.
          2    1    1    2  501    0  0.34075590057E+02  0.31118680714E+02 -0.35594272053E+03  0.35892163271E+03  0.00000000000E+00 0. -1.
          1    1    1    2  502    0  0.12584999474E+02  0.19438391990E+02  0.10632579739E+03  0.10881823599E+03  0.00000000000E+00 0. -1.
         22    1    3    3    0    0  0.20293907856E+02  0.10621069957E+02 -0.13442815847E+02  0.26558597873E+02  0.00000000000E+00 0. -1.
         22    1    3    3    0    0 -0.66954497387E+02 -0.61178142661E+02  0.12567078850E+03  0.15498005337E+03  0.00000000000E+00 0. -1.
</event>
<event>
 7    1  0.6888431E-006  0.1262321E+03  0.7818608E-02  0.1293347E+00
          2   -1    0    0  502    0  0.00000000000E+00  0.00000000000E+00  0.97338860826E+03  0.97338860826E+03  0.00000000000E+00 0. -1.
          1   -1    0    0  501    0 -0.00000000000E+00 -0.00000000000E+00 -0.31810085136E+03  0.31810085136E+03  0.00000000000E+00 0. -1.
         25    2    1    2    0    0 -0.57528035078E+02 -0.18457044434E+03  0.27464380594E+03  0.35836882722E+03  0.12499308956E+03 0.  0.
          2    1    1    2  501    0  0.35140712611E+02  0.11818216619E+03 -0.26047629277E+03  0.28818361019E+03  0.00000000000E+00 0. -1.
          1    1    1    2  502    0  0.22387322467E+02  0.66388278145E+02  0.64112024373E+03  0.64493702220E+03  0.00000000000E+00 0. -1.
         22    1    3    3    0    0 -0.17437346325E+02 -0.17646554978E+03  0.26042916885E+03  0.31506745833E+03  0.00000000000E+00 0. -1.
         22    1    3    3    0    0 -0.40090688753E+02 -0.81048945534E+01  0.14214637088E+02  0.43301368892E+02  0.00000000000E+00 0. -1.
</event>
<event>
 7    1  0.6888431E-006  0.6944619E+02  0.7818608E-02  0.1457130E+00
          2   -1    0    0  502    0  0.00000000000E+00  0.00000000000E+00  0.11177654916E+04  0.11177654916E+04  0.00000000000E+00 0. -1.
          1   -1    0    0  501    0 -0.00000000000E+00 -0.00000000000E+00 -0.61642273551E+03  0.61642273551E+03  0.00000000000E+00 0. -1.
         25    2    1    2    0    0 -0.58290323143E+02 -0.29689902979E+02 -0.12930900948E+03  0.19137943706E+03  0.12500406747E+03 0.  0.
          2    1    1    2  501    0  0.18509048819E+02 -0.27332065474E+02 -0.45436709422E+03  0.45556457610E+03  0.00000000000E+00 0. -1.
          1    1    1    2  502    0  0.39781274323E+02  0.57021968453E+02  0.10850188598E+04  0.10872442140E+04  0.00000000000E+00 0. -1.
         22    1    3    3    0    0  0.63288619798E+01 -0.55414861243E+02 -0.15309522405E+02  0.57838074111E+02  0.00000000000E+00 0.  1.
         22    1    3    3    0    0 -0.64619185122E+02  0.25724958264E+02 -0.11399948708E+03  0.13354136295E+03  0.00000000000E+00 0.  1.
</event>
<event>
 7    1  0.6888431E-006  0.1639116E+03  0.7818608E-02  0.1243441E+00
          2   -1    0    0  502    0  0.00000000000E+00  0.00000000000E+00  0.66945589243E+03  0.66945589243E+03  0.00000000000E+00 0. -1.
          1   -1    0    0  501    0 -0.00000000000E+00 -0.00000000000E+00 -0.10228866025E+04  0.10228866025E+04  0.00000000000E+00 0. -1.
         25    2    1    2    0    0 -0.42775549179E+02 -0.76790223101E+02 -0.46760010018E+02  0.15980595332E+03  0.12499983283E+03 0.  0.
          2    1    1    2  501    0  0.76826172194E+02  0.15744437352E+03 -0.90806176048E+03  0.92480654860E+03  0.00000000000E+00 0. -1.
          1    1    1    2  502    0 -0.34050623016E+02 -0.80654150419E+02  0.60139106041E+03  0.60772999304E+03  0.00000000000E+00 0. -1.
         22    1    3    3    0    0 -0.53130916455E+02  0.15132920087E+02 -0.37650283159E+02  0.66853895740E+02  0.00000000000E+00 0. -1.
         22    1    3    3    0    0  0.10355367276E+02 -0.91923143188E+02 -0.91097268598E+01  0.92952057580E+02  0.00000000000E+00 0. -1.
</event>
<event>
 7    1  0.6888431E-006  0.9713301E+02  0.7818608E-02  0.1386762E+00
          2   -1    0    0  502    0  0.00000000000E+00  0.00000000000E+00  0.21831095220E+04  0.21831095220E+04  0.00000000000E+00 0. -1.
          1   -1    0    0  501    0 -0.00000000000E+00 -0.00000000000E+00 -0.66490886556E+02  0.66490886556E+02  0.00000000000E+00 0. -1.
         25    2    1    2    0    0 -0.10126894841E+03 -0.78777341957E+02  0.10481609521E+04  0.10633567679E+04  0.12499985913E+03 0.  0.
          2    1    1    2  501    0  0.24226850662E+02  0.32452357523E+02 -0.49907201459E+02  0.64271491030E+02  0.00000000000E+00 0. -1.
          1    1    1    2  502    0  0.77042097748E+02  0.46324984434E+02  0.11183648848E+04  0.11219721497E+04  0.00000000000E+00 0. -1.
         22    1    3    3    0    0 -0.79569997928E+02 -0.11252639259E+03  0.85922072035E+03  0.87020332100E+03  0.00000000000E+00 0.  1.
         22    1    3    3    0    0 -0.21698950482E+02  0.33749050630E+02  0.18894023172E+03  0.19315344685E+03  0.00000000000E+00 0.  1.
</event>
<event>
 7    1  0.6888431E-006  0.1115154E+03  0.7818608E-02  0.1413617E+00
          2   -1    0    0  502    0  0.00000000000E+00  0.00000000000E+00  0.29252673004E+03  0.29252673004E+03  0.00000000000E+00 0. -1.
          1   -1    0    0  501    0 -0.00000000000E+00 -0.00000000000E+00 -0.26570865047E+03  0.26570865047E+03  0.00000000000E+00 0. -1.
         25    2    1    2    0    0  0.24893670366E+01 -0.91242133426E+02  0.14928275410E+02  0.15549713707E+03  0.12500072948E+03 0.  0.
          2    1    1    2  501    0  0.15858211732E+02 -0.23703705075E+02 -0.17785924735E+03  0.18013123100E+03  0.00000000000E+00 0. -1.
          1    1    1    2  502    0 -0.18347578768E+02  0.11494583850E+03  0.18974905151E+03  0.22260701244E+03  0.00000000000E+00 0. -1.
         22    1    3    3    0    0  0.27769266319E+02 -0.60057944007E+02  0.64028796625E+02  0.92074836885E+02  0.00000000000E+00 0.  1.
         22    1    3    3    0    0 -0.25279899282E+02 -0.31184189419E+02 -0.49100521215E+02  0.63422300187E+02  0.00000000000E+00 0.  1.
</event>
<event>
 7    1  0.6888431E-006  0.3417193E+02  0.7818608E-02  0.1626468E+00
          2   -1    0    0  502    0  0.00000000000E+00  0.00000000000E+00  0.96941026479E+03  0.96941026479E+03  0.00000000000E+00 0. -1.
          1   -1    0    0  501    0 -0.00000000000E+00 -0.00000000000E+00 -0.11186804518E+03  0.11186804518E+03  0.00000000000E+00 0. -1.
         25    2    1    2    0    0  0.61814441342E+00  0.55714786053E+02  0.25095511604E+03  0.28584641765E+03  0.12500073892E+03 0.  0.
          2    1    1    2  501    0 -0.39371837187E+01 -0.33701006664E+02 -0.91190963459E+02  0.97298772255E+02  0.00000000000E+00 0. -1.
          1    1    1    2  502    0  0.33190393053E+01 -0.22013779389E+02  0.69777806703E+03  0.69813312007E+03  0.00000000000E+00 0. -1.
         22    1    3    3    0    0  0.16650432830E+02 -0.12978737940E+02 -0.38483433080E+01  0.21459130881E+02  0.00000000000E+00 0.  1.
         22    1    3    3    0    0 -0.16032288417E+02  0.68693523993E+02  0.25480345935E+03  0.26438728677E+03  0.00000000000E+00 0.  1.
</event>
<event>
 7    1  0.6888431E-006  0.1169153E+03  0.7818608E-02  0.1360374E+00
          2   -1    0    0  502    0  0.00000000000E+00  0.00000000000E+00  0.21339794332E+03  0.21339794332E+03  0.00000000000E+00 0. -1.
          1   -1    0    0  501    0 -0.00000000000E+00 -0.00000000000E+00 -0.11268122816E+04  0.11268122816E+04  0.00000000000E+00 0. -1.
         25    2    1    2    0    0 -0.10879258174E+03  0.10602149788E+03 -0.50742110612E+02  0.20316795596E+03  0.12500429066E+03 0.  0.
          2    1    1    2  501    0  0.34037780143E+02 -0.24282786694E+02 -0.97697758278E+03  0.97787188397E+03  0.00000000000E+00 0. -1.
          1    1    1    2  502    0  0.74754801593E+02 -0.81738711191E+02  0.11430535508E+03  0.15917038502E+03  0.00000000000E+00 0. -1.
         22    1    3    3    0    0  0.50259081773E+01  0.61399543544E+02  0.16319339794E+02  0.63729777590E+02  0.00000000000E+00 0.  1.
         22    1    3    3    0    0 -0.11381848991E+03  0.44621954341E+02 -0.67061450406E+02  0.13943817837E+03  0.00000000000E+00 0.  1.
</event>
<event>
 7    1  0.6888431E-006  0.1788514E+03  0.7818608E-02  0.1377198E+00
          2   -1    0    0  502    0  0.00000000000E+00  0.00000000000E+00  0.15779887213E+04  0.15779887213E+04  0.00000000000E+00 0. -1.
          1   -1    0    0  501    0 -0.00000000000E+00 -0.00000000000E+00 -0.42586978733E+03  0.42586978733E+03  0.00000000000E+00 0. -1.
         25    2    1    2    0    0  0.15784638915E+03  0.71952125506E+02  0.11367816602E+04  0.11567151026E+04  0.12499877793E+03 0.  0.
          2    1    1    2  501    0 -0.17116604272E+03 -0.52260857226E+02 -0.39629152698E+03  0.43482868550E+03  0.00000000000E+00 0. -1.
          1    1    1    2  502    0  0.13319653573E+02 -0.19691268280E+02  0.41162880075E+03  0.41231472060E+03  0.00000000000E+00 0. -1.
         22    1    3    3    0    0 -0.94523970965E+01  0.42475220142E+02  0.26258671583E+03  0.26616775813E+03  0.00000000000E+00 0. -1.
         22    1    3    3    0    0  0.16729878625E+03  0.29476905364E+02  0.87419494441E+03  0.89054734442E+03  0.00000000000E+00 0. -1.
</event>
<event>
 7    1  0.6888431E-006  0.3534341E+02  0.7818608E-02  0.1550141E+00
          2   -1    0    0  502    0  0.00000000000E+00  0.00000000000E+00  0.21838833994E+02  0.21838833994E+02  0.00000000000E+00 0. -1.
          1   -1    0    0  501    0 -0.00000000000E+00 -0.00000000000E+00 -0.15321333345E+04  0.15321333345E+04  0.00000000000E+00 0. -1.
         25    2    1    2    0    0 -0.11266239741E+01 -0.13262919623E+00 -0.40325842633E+03  0.42218909639E+03  0.12499995131E+03 0.  0.
          2    1    1    2  501    0 -0.32552475512E+01  0.35203357162E+02 -0.10932887008E+04  0.10938601630E+04  0.00000000000E+00 0. -1.
          1    1    1    2  502    0  0.43818715253E+01 -0.35070727966E+02 -0.13747373392E+02  0.37922909083E+02  0.00000000000E+00 0. -1.
         22    1    3    3    0    0 -0.54296718193E+02 -0.24706551817E+02 -0.27183628628E+03  0.27830471402E+03  0.00000000000E+00 0.  1.
         22    1    3    3    0    0  0.53170094219E+02  0.24573922621E+02 -0.13142214005E+03  0.14388438236E+03  0.00000000000E+00 0.  1.
</event>
<event>
 7    1  0.6888431E-006  0.4297598E+02  0.7818608E-02  0.1491490E+00
          2   -1    0    0  502    0  0.00000000000E+00  0.00000000000E+00  0.88904368583E+02  0.88904368583E+02  0.00000000000E+00 0. -1.
          1   -1    0    0  501    0 -0.00000000000E+00 -0.00000000000E+00 -0.33122299107E+03  0.33122299107E+03  0.00000000000E+00 0. -1.
         25    2    1    2    0    0 -0.76972423142E+02 -0.17034566589E+02 -0.12656629099E+02  0.14832077951E+03  0.12499573189E+03 0.  0.
          2    1    1    2  501    0  0.35565272422E+02  0.22484414463E+02 -0.22599838816E+03  0.22988194567E+03  0.00000000000E+00 0. -1.
          1    1    1    2  502    0  0.41407150720E+02 -0.54498478743E+01 -0.36636052312E+01  0.41924634475E+02  0.00000000000E+00 0. -1.
         22    1    3    3    0    0 -0.37895073618E+02  0.26045225181E+02  0.46475022927E+02  0.65378269442E+02  0.00000000000E+00 0.  1.
         22    1    3    3    0    0 -0.39077349524E+02 -0.43079791769E+02 -0.59131652026E+02  0.82942510066E+02  0.00000000000E+00 0.  1.
</event>
<event>
 7    1  0.6888431E-006  0.7408047E+02  0.7818608E-02  0.1500887E+00
          2   -1    0    0  502    0  0.00000000000E+00  0.00000000000E+00  0.40735960059E+03  0.40735960059E+03  0.00000000000E+00 0. -1.
          1   -1    0    0  501    0 -0.00000000000E+00 -0.00000000000E+00 -0.23399854230E+03  0.23399854230E+03  0.00000000000E+00 0. -1.
         25    2    1    2    0    0 -0.73422741027E+02  0.47769650481E+02  0.33477132687E+02  0.15625943848E+03  0.12499382102E+03 0.  0.
          2    1    1    2  501    0  0.51163924230E+02 -0.52252631990E+02 -0.16441937327E+03  0.17994947902E+03  0.00000000000E+00 0. -1.
          1    1    1    2  502    0  0.22258816797E+02  0.44829815086E+01  0.30430329887E+03  0.30514922538E+03  0.00000000000E+00 0. -1.
         22    1    3    3    0    0 -0.95388685398E+02  0.11704490761E+02 -0.87989673988E+01  0.96506052832E+02  0.00000000000E+00 0. -1.
         22    1    3    3    0    0  0.21965944371E+02  0.36065159720E+02  0.42276100086E+02  0.59753385646E+02  0.00000000000E+00 0. -1.
</event>
<event>
 7    1  0.6888431E-006  0.9602203E+02  0.7818608E-02  0.1470907E+00
          2   -1    0    0  502    0  0.00000000000E+00  0.00000000000E+00  0.14497605787E+03  0.14497605787E+03  0.00000000000E+00 0. -1.
          1   -1    0    0  501    0 -0.00000000000E+00 -0.00000000000E+00 -0.67981989310E+03  0.67981989310E+03  0.00000000000E+00 0. -1.
         25    2    1    2    0    0 -0.17111238810E+02 -0.11401130397E+03 -0.13621131608E+03  0.21787426663E+03  0.12499720599E+03 0.  0.
          2    1    1    2  501    0  0.44743568187E+01  0.21143971557E+02 -0.48139930612E+03  0.48188419701E+03  0.00000000000E+00 0. -1.
          1    1    1    2  502    0  0.12636881991E+02  0.92867332409E+02  0.82766786960E+02  0.12503748733E+03  0.00000000000E+00 0. -1.
         22    1    3    3    0    0 -0.44472191880E+02  0.69868031471E+01 -0.46948585081E+02  0.65044299596E+02  0.00000000000E+00 0.  1.
         22    1    3    3    0    0  0.27360953070E+02 -0.12099810711E+03 -0.89262730994E+02  0.15282996703E+03  0.00000000000E+00 0.  1.
</event>
<event>
 7    1  0.6888431E-006  0.7863395E+02  0.7818608E-02  0.1354154E+00
          2   -1    0    0  502    0  0.00000000000E+00  0.00000000000E+00  0.54776651953E+03  0.54776651953E+03  0.00000000000E+00 0. -1.
          1   -1    0    0  501    0 -0.00000000000E+00 -0.00000000000E+00 -0.83420772478E+03  0.83420772478E+03  0.00000000000E+00 0. -1.
         25    2    1    2    0    0 -0.62842229218E+02  0.52671755570E+02  0.13933306415E+03  0.20436242574E+03  0.12500735452E+03 0.  0.
          2    1    1    2  501    0  0.58935320747E+02  0.28620043241E+02 -0.79592627162E+03  0.79861824971E+03  0.00000000000E+00 0. -1.
          1    1    1    2  502    0  0.39069084708E+01 -0.81291798812E+02  0.37015200222E+03  0.37899356886E+03  0.00000000000E+00 0. -1.
         22    1    3    3    0    0  0.37050725814E+02  0.31988737417E+01  0.25863988533E+02  0.45298288924E+02  0.00000000000E+00 0.  1.
         22    1    3    3    0    0 -0.99892955032E+02  0.49472881829E+02  0.11346907561E+03  0.15906413682E+03  0.00000000000E+00 0.  1.
</event>
<event>
 7    1  0.6888431E-006  0.1002394E+03  0.7818608E-02  0.1323912E+00
          2   -1    0    0  502    0  0.00000000000E+00  0.00000000000E+00  0.57323675959E+03  0.57323675959E+03  0.00000000000E+00 0. -1.
          1   -1    0    0  501    0 -0.00000000000E+00 -0.00000000000E+00 -0.34408959657E+03  0.34408959657E+03  0.00000000000E+00 0. -1.
         25    2    1    2    0    0  0.11037158841E+03 -0.11262935834E+03  0.34931655082E+03  0.40313026775E+03  0.12499880082E+03 0.  0.
          2    1    1    2  501    0 -0.49015261993E+02  0.86175742127E+02 -0.30338739930E+03  0.31917498099E+03  0.00000000000E+00 0. -1.
          1    1    1    2  502    0 -0.61356326418E+02  0.26453616215E+02  0.18321801150E+03  0.19502110742E+03  0.00000000000E+00 0. -1.
         22    1    3    3    0    0  0.14726404134E+02 -0.25290460506E+01  0.17592596653E+03  0.17655936325E+03  0.00000000000E+00 0.  1.
         22    1    3    3    0    0  0.95645184277E+02 -0.11010031229E+03  0.17339058430E+03  0.22657090450E+03  0.00000000000E+00 0.  1.
</event>
<event>
 7    1  0.6888431E-006  0.6356823E+02  0.7818608E-02  0.1404187E+00
          2   -1    0    0  502    0  0.00000000000E+00  0.00000000000E+00  0.18828274873E+04  0.18828274873E+04  0.00000000000E+00 0. -1.
          1   -1    0    0  501    0 -0.00000000000E+00 -0.00000000000E+00 -0.13777818324E+02  0.13777818324E+02  0.00000000000E+00 0. -1.
         25    2    1    2    0    0  0.20188327913E+02  0.81822028037E+02  0.52134475771E+03  0.54270710620E+03  0.12501293479E+03 0.  0.
          2    1    1    2  501    0 -0.47765613069E+02 -0.24879977060E+02  0.34293161561E+03  0.34713493059E+03  0.00000000000E+00 0. -1.
          1    1    1    2  502    0  0.27577285156E+02 -0.56942050977E+02  0.10047732957E+04  0.10067632689E+04  0.00000000000E+00 0. -1.
         22    1    3    3    0    0  0.10995475621E+02  0.94663756994E+02  0.20609792774E+03  0.22706493166E+03  0.00000000000E+00 0.  1.
         22    1    3    3    0    0  0.91928522928E+01 -0.12841728957E+02  0.31524682997E+03  0.31564217453E+03  0.00000000000E+00 0.  1.
</event>
<event>
 7    1  0.6888431E-006  0.7428349E+02  0.7818608E-02  0.1390908E+00
          2   -1    0    0  502    0  0.00000000000E+00  0.00000000000E+00  0.23040593813E+04  0.23040593813E+04  0.00000000000E+00 0. -1.
          1   -1    0    0  501    0 -0.00000000000E+00 -0.00000000000E+00 -0.52424145584E+03  0.52424145584E+03  0.00000000000E+00 0. -1.
         25    2    1    2    0    0  0.89859434273E+02 -0.69483432266E+02  0.56603067088E+03  0.59069375375E+03  0.12500290018E+03 0.  0.
          2    1    1    2  501    0 -0.50425384421E+02  0.89716572378E+01 -0.50987062612E+03  0.51243659647E+03  0.00000000000E+00 0. -1.
          1    1    1    2  502    0 -0.39434049852E+02  0.60511775029E+02  0.17236578807E+04  0.17251704869E+04  0.00000000000E+00 0. -1.
         22    1    3    3    0    0 -0.30248127126E+02 -0.21881493199E+02  0.17265865828E+03  0.17664869436E+03  0.00000000000E+00 0.  1.
         22    1    3    3    0    0  0.12010756140E+03 -0.47601939067E+02  0.39337201260E+03  0.41404505939E+03  0.00000000000E+00 0.  1.
</event>
<event>
 7    1  0.6888431E-006  0.3724703E+02  0.7818608E-02  0.1550841E+00
          2   -1    0    0  502    0  0.00000000000E+00  0.00000000000E+00  0.71281256024E+01  0.71281256024E+01  0.00000000000E+00 0. -1.
          1   -1    0    0  501    0 -0.00000000000E+00 -0.00000000000E+00 -0.26490870693E+04  0.26490870693E+04  0.00000000000E+00 0. -1.
         25    2    1    2    0    0  0.35096508104E+02 -0.38805458128E+01 -0.22303238118E+04  0.22341029008E+04  0.12499856932E+03 0.  0.
          2    1    1    2  501    0 -0.26481476460E+02  0.35133431401E+02 -0.34725205806E+03  0.35002802520E+03  0.00000000000E+00 0. -1.
          1    1    1    2  502    0 -0.86150316438E+01 -0.31252885588E+02 -0.64383073849E+02  0.72084268922E+02  0.00000000000E+00 0. -1.
         22    1    3    3    0    0 -0.21299917489E+02 -0.28334447314E+02 -0.16770940740E+04  0.16774686466E+04  0.00000000000E+00 0.  1.
         22    1    3    3    0    0  0.56396425593E+02  0.24453901501E+02 -0.55322973780E+03  0.55663425416E+03  0.00000000000E+00 0.  1.
</event>
<event>
 7    1  0.8089900E-006  0.7209420E+02  0.7818608E-02  0.1375502E+00
          2   -1    0    0  502    0  0.00000000000E+00  0.00000000000E+00  0.61829942364E+03  0.61829942364E+03  0.00000000000E+00 0. -1.
          1   -1    0    0  501    0 -0.00000000000E+00 -0.00000000000E+00 -0.25511014805E+04  0.25511014805E+04  0.00000000000E+00 0. -1.
         25    2    1    2    0    0 -0.40470344961E+02 -0.41349773756E+02 -0.26939090460E+03  0.30256448629E+03  0.12500462501E+03 0.  0.
          2    1    1    2  501    0 -0.10487267775E+02  0.72648522070E+02 -0.22630413976E+04  0.22642314717E+04  0.00000000000E+00 0. -1.
          1    1    1    2  502    0  0.50957612736E+02 -0.31298748314E+02  0.59963024532E+03  0.60260494608E+03  0.00000000000E+00 0. -1.
         22    1    3    3    0    0 -0.17503576526E+02 -0.43441076370E+02 -0.18089151234E+02  0.50206769461E+02  0.00000000000E+00 0.  1.
         22    1    3    3    0    0 -0.22966768434E+02  0.20913026135E+01 -0.25130175337E+03  0.25235771683E+03  0.00000000000E+00 0.  1.
</event>
<event>
 7    1  0.6888431E-006  0.5398026E+02  0.7818608E-02  0.1436925E+00
          2   -1    0    0  502    0  0.00000000000E+00  0.00000000000E+00  0.11625854328E+04  0.11625854328E+04  0.00000000000E+00 0. -1.
          1   -1    0    0  501    0 -0.00000000000E+00 -0.00000000000E+00 -0.39059779468E+02  0.39059779468E+02  0.00000000000E+00 0. -1.
         25    2    1    2    0    0 -0.98342173572E+02 -0.10990546885E+02  0.42518770441E+03  0.45409015632E+03  0.12498524256E+03 0.  0.
          2    1    1    2  501    0  0.49150624537E+02  0.14470056243E+02  0.39176681117E+01  0.51385937215E+02  0.00000000000E+00 0. -1.
          1    1    1    2  502    0  0.49191549035E+02 -0.34795093582E+01  0.69442028084E+03  0.69616911877E+03  0.00000000000E+00 0. -1.
         22    1    3    3    0    0 -0.12627286100E+03 -0.22900760369E+02  0.32566577985E+03  0.35003925554E+03  0.00000000000E+00 0.  1.
         22    1    3    3    0    0  0.27930687426E+02  0.11910213484E+02  0.99521924559E+02  0.10405090078E+03  0.00000000000E+00 0.  1.
</event>
<event>
 7    1  0.6888431E-006  0.3635812E+02  0.7818608E-02  0.1540046E+00
          2   -1    0    0  502    0  0.00000000000E+00  0.00000000000E+00  0.18038180249E+04  0.18038180249E+04  0.00000000000E+00 0. -1.
          1   -1    0    0  501    0 -0.00000000000E+00 -0.00000000000E+00 -0.15359040410E+04  0.15359040410E+04  0.00000000000E+00 0. -1.
         25    2    1    2    0    0  0.39487006302E+02  0.48407263404E+02  0.31942507274E+02  0.14334499785E+03  0.12499991128E+03 0.  0.
          2    1    1    2  501    0 -0.33290010143E+02 -0.12644533013E+02 -0.14797966599E+04  0.14802250719E+04  0.00000000000E+00 0. -1.
          1    1    1    2  502    0 -0.61969961593E+01 -0.35762730391E+02  0.17157681365E+04  0.17161519962E+04  0.00000000000E+00 0. -1.
         22    1    3    3    0    0 -0.26613247095E+01  0.83807732600E+02  0.11528018464E+02  0.84638725785E+02  0.00000000000E+00 0. -1.
         22    1    3    3    0    0  0.42148331012E+02 -0.35400469196E+02  0.20414488810E+02  0.58706272065E+02  0.00000000000E+00 0. -1.
</event>
<event>
 7    1  0.6888431E-006  0.1137563E+03  0.7818608E-02  0.1378494E+00
          2   -1    0    0  502    0  0.00000000000E+00  0.00000000000E+00  0.15800212122E+04  0.15800212122E+04  0.00000000000E+00 0. -1.
          1   -1    0    0  501    0 -0.00000000000E+00 -0.00000000000E+00 -0.23429986938E+03  0.23429986938E+03  0.00000000000E+00 0. -1.
         25    2    1    2    0    0  0.92078973810E+02 -0.52468049373E+02  0.14043484034E+03  0.21582135266E+03  0.12500191303E+03 0.  0.
          2    1    1    2  501    0 -0.11287609403E+03  0.21887214483E+02 -0.17952831365E+03  0.21319117750E+03  0.00000000000E+00 0. -1.
          1    1    1    2  502    0  0.20797120219E+02  0.30580834889E+02  0.13848148162E+04  0.13853085515E+04  0.00000000000E+00 0. -1.
         22    1    3    3    0    0  0.11239451149E+03 -0.28306190412E+02  0.14308952278E+03  0.18414227694E+03  0.00000000000E+00 0.  1.
         22    1    3    3    0    0 -0.20315537677E+02 -0.24161858960E+02 -0.26546824414E+01  0.31679075718E+02  0.00000000000E+00 0.  1.
</event>
<event>
 7    1  0.6888431E-006  0.1656481E+03  0.7818608E-02  0.1366053E+00
          2   -1    0    0  502    0  0.00000000000E+00  0.00000000000E+00  0.16658533371E+04  0.16658533371E+04  0.00000000000E+00 0. -1.
          1   -1    0    0  501    0 -0.00000000000E+00 -0.00000000000E+00 -0.56339757047E+03  0.56339757047E+03  0.00000000000E+00 0. -1.
         25    2    1    2    0    0 -0.10925683306E+03  0.10533902079E+03  0.99927148832E+02  0.22055650670E+03  0.12500549069E+03 0.  0.
          2    1    1    2  501    0  0.13606951087E+03 -0.96791136862E+02 -0.48909022421E+03  0.51681010380E+03  0.00000000000E+00 0. -1.
          1    1    1    2  502    0 -0.26812677816E+02 -0.85478839248E+01  0.14916188420E+04  0.14918842971E+04  0.00000000000E+00 0. -1.
         22    1    3    3    0    0 -0.32361783328E+02  0.17158672557E+02  0.96819599471E+02  0.10351685808E+03  0.00000000000E+00 0.  1.
         22    1    3    3    0    0 -0.76895049728E+02  0.88180348230E+02  0.31075493608E+01  0.11703964862E+03  0.00000000000E+00 0.  1.
</event>
<event>
 7    1  0.6888431E-006  0.8188108E+02  0.7818608E-02  0.1421511E+00
          2   -1    0    0  502    0  0.00000000000E+00  0.00000000000E+00  0.16033658181E+04  0.16033658181E+04  0.00000000000E+00 0. -1.
          1   -1    0    0  501    0 -0.00000000000E+00 -0.00000000000E+00 -0.55393867427E+03  0.55393867427E+03  0.00000000000E+00 0. -1.
         25    2    1    2    0    0 -0.34681999405E+01 -0.73873877364E+02  0.18849812602E+01  0.14525164373E+03  0.12500043474E+03 0.  0.
          2    1    1    2  501    0  0.39979433648E+02  0.72297287196E+02 -0.47849677961E+03  0.48557638014E+03  0.00000000000E+00 0. -1.
          1    1    1    2  502    0 -0.36511233708E+02  0.15765901678E+01  0.15260389422E+04  0.15264764685E+04  0.00000000000E+00 0. -1.
         22    1    3    3    0    0  0.37248040601E+01 -0.81621050413E+02 -0.47660649074E+02  0.94590736893E+02  0.00000000000E+00 0. -1.
         22    1    3    3    0    0 -0.71930040007E+01  0.77471730495E+01  0.49545630334E+02  0.50660906841E+02  0.00000000000E+00 0. -1.
</event>
<event>
 7    1  0.6888431E-006  0.3646678E+02  0.7818608E-02  0.1621668E+00
          2   -1    0    0  502    0  0.00000000000E+00  0.00000000000E+00  0.11399960002E+04  0.11399960002E+04  0.00000000000E+00 0. -1.
          1   -1    0    0  501    0 -0.00000000000E+00 -0.00000000000E+00 -0.40844503194E+02  0.40844503194E+02  0.00000000000E+00 0. -1.
         25    2    1    2    0    0  0.49206156552E+01 -0.31369819003E+02  0.60321121567E+03  0.61684736589E+03  0.12501449549E+03 0.  0.
          2    1    1    2  501    0  0.21007719188E+02  0.43532841090E+01 -0.29911413362E+02  0.36809889939E+02  0.00000000000E+00 0. -1.
          1    1    1    2  502    0 -0.25928334843E+02  0.27016534894E+02  0.52585169472E+03  0.52718324759E+03  0.00000000000E+00 0. -1.
         22    1    3    3    0    0  0.58992924555E+01  0.46718615611E+02  0.15910864231E+03  0.16593068057E+03  0.00000000000E+00 0. -1.
         22    1    3    3    0    0 -0.97867680035E+00 -0.78088434614E+02  0.44410257337E+03  0.45091668532E+03  0.00000000000E+00 0. -1.
</event>
<event>
 7    1  0.6888431E-006  0.7156039E+02  0.7818608E-02  0.1372963E+00
          2   -1    0    0  502    0  0.00000000000E+00  0.00000000000E+00  0.39781421174E+03  0.39781421174E+03  0.00000000000E+00 0. -1.
          1   -1    0    0  501    0 -0.00000000000E+00 -0.00000000000E+00 -0.16088704192E+04  0.16088704192E+04  0.00000000000E+00 0. -1.
         25    2    1    2    0    0  0.12556506191E+03  0.15261000782E+01 -0.10115914796E+03  0.20402753351E+03  0.12500058983E+03 0.  0.
          2    1    1    2  501    0 -0.58357717484E+02  0.19468643754E+02 -0.14520408652E+04  0.14533434988E+04  0.00000000000E+00 0. -1.
          1    1    1    2  502    0 -0.67207344428E+02 -0.20994743832E+02  0.34214380570E+03  0.34931359864E+03  0.00000000000E+00 0. -1.
         22    1    3    3    0    0  0.13747613655E+03  0.33106123265E+02 -0.93177300104E+02  0.16934495202E+03  0.00000000000E+00 0. -1.
         22    1    3    3    0    0 -0.11911074639E+02 -0.31580023186E+02 -0.79818478584E+01  0.34682581489E+02  0.00000000000E+00 0. -1.
</event>
<event>
 7    1  0.6888431E-006  0.5031933E+02  0.7818608E-02  0.1548002E+00
          2   -1    0    0  502    0  0.00000000000E+00  0.00000000000E+00  0.57401790411E+03  0.57401790411E+03  0.00000000000E+00 0. -1.
          1   -1    0    0  501    0 -0.00000000000E+00 -0.00000000000E+00 -0.70315824958E+03  0.70315824958E+03  0.00000000000E+00 0. -1.
         25    2    1    2    0    0 -0.68349880733E+02 -0.13977254691E+02 -0.28421866794E+03  0.31822906794E+03  0.12498967410E+03 0.  0.
          2    1    1    2  501    0  0.23118564339E+02 -0.79227683191E+01 -0.40042759998E+03  0.40117265747E+03  0.00000000000E+00 0. -1.
          1    1    1    2  502    0  0.45231316394E+02  0.21900023010E+02  0.55550592244E+03  0.55777442829E+03  0.00000000000E+00 0. -1.
         22    1    3    3    0    0 -0.15354189685E+02  0.44791429807E+01  0.98963270320E+01  0.18808273484E+02  0.00000000000E+00 0.  1.
         22    1    3    3    0    0 -0.52995691048E+02 -0.18456397672E+02 -0.29411499497E+03  0.29942079445E+03  0.00000000000E+00 0.  1.
</event>
<event>
 7    1  0.6888431E-006  0.8509814E+02  0.7818608E-02  0.1350109E+00
          2   -1    0    0  502    0  0.00000000000E+00  0.00000000000E+00  0.76179374998E+03  0.76179374998E+03  0.00000000000E+00 0. -1.
          1   -1    0    0  501    0 -0.00000000000E+00 -0.00000000000E+00 -0.88326573708E+02  0.88326573708E+02  0.00000000000E+00 0. -1.
         25    2    1    2    0    0  0.63026910268E+02  0.20146587439E+00  0.50761137768E+03  0.52656511394E+03  0.12501630477E+03 0.  0.
          2    1    1    2  501    0  0.61763162754E+02 -0.10556635965E+02 -0.45813485677E+02  0.77620914103E+02  0.00000000000E+00 0. -1.
          1    1    1    2  502    0 -0.12479007302E+03  0.10355170090E+02  0.21166928427E+03  0.24593429564E+03  0.00000000000E+00 0. -1.
         22    1    3    3    0    0  0.10100239055E+03 -0.57900291620E+01  0.38479405149E+03  0.39787117186E+03  0.00000000000E+00 0. -1.
         22    1    3    3    0    0 -0.37975480281E+02  0.59914950364E+01  0.12281732620E+03  0.12869394209E+03  0.00000000000E+00 0. -1.
</event>
<event>
 7    1  0.6888431E-006  0.1213777E+03  0.7818608E-02  0.1346763E+00
          2   -1    0    0  502    0  0.00000000000E+00  0.00000000000E+00  0.23164640515E+02  0.23164640515E+02  0.00000000000E+00 0. -1.
          1   -1    0    0  501    0 -0.00000000000E+00 -0.00000000000E+00 -0.21176542423E+04  0.21176542423E+04  0.00000000000E+00 0. -1.
         25    2    1    2    0    0  0.98510356801E+01  0.82911925185E+02 -0.31467513452E+03  0.34873359933E+03  0.12499301088E+03 0.  0.
          2    1    1    2  501    0 -0.30310769266E+02 -0.12322250794E+03 -0.16451315236E+04  0.16500182602E+04  0.00000000000E+00 0. -1.
          1    1    1    2  502    0  0.20459733585E+02  0.40310582758E+02 -0.13468294370E+03  0.14206702328E+03  0.00000000000E+00 0. -1.
         22    1    3    3    0    0  0.42953913847E+02  0.63336295975E+01 -0.31814997906E+02  0.53827016176E+02  0.00000000000E+00 0.  1.
         22    1    3    3    0    0 -0.33102878167E+02  0.76578295588E+02 -0.28286013662E+03  0.29490658315E+03  0.00000000000E+00 0.  1.
</event>
<event>
 7    1  0.6888431E-006  0.7964376E+02  0.7818608E-02  0.1508819E+00
          2   -1    0    0  502    0  0.00000000000E+00  0.00000000000E+00  0.66570261951E+02  0.66570261951E+02  0.00000000000E+00 0. -1.
          1   -1    0    0  501    0 -0.00000000000E+00 -0.00000000000E+00 -0.64180965013E+03  0.64180965013E+03  0.00000000000E+00 0. -1.
         25    2    1    2    0    0 -0.13459929275E+02 -0.69328355434E+02 -0.30572568043E+03  0.33776097088E+03  0.12500676467E+03 0.  0.
          2    1    1    2  501    0  0.32079591001E+02  0.76648039050E+02 -0.31241835881E+03  0.32327890895E+03  0.00000000000E+00 0. -1.
          1    1    1    2  502    0 -0.18619661727E+02 -0.73196836159E+01  0.42904651060E+02  0.47340032253E+02  0.00000000000E+00 0. -1.
         22    1    3    3    0    0 -0.19346849701E+02 -0.60193264927E+02 -0.46936408245E+02  0.78743610248E+02  0.00000000000E+00 0. -1.
         22    1    3    3    0    0  0.58869204263E+01 -0.91350905070E+01 -0.25878927219E+03  0.25901736063E+03  0.00000000000E+00 0. -1.
</event>
<event>
 7    1  0.6888431E-006  0.7012868E+02  0.7818608E-02  0.1367816E+00
          2   -1    0    0  502    0  0.00000000000E+00  0.00000000000E+00  0.14996010399E+04  0.14996010399E+04  0.00000000000E+00 0. -1.
          1   -1    0    0  501    0 -0.00000000000E+00 -0.00000000000E+00 -0.31014839908E+03  0.31014839908E+03  0.00000000000E+00 0. -1.
         25    2    1    2    0    0  0.44445107557E+01 -0.53171454797E+02 -0.54443753796E+02  0.14640476363E+03  0.12499310063E+03 0.  0.
          2    1    1    2  501    0 -0.67460727928E+02  0.22398293467E+02 -0.20282733938E+03  0.21492222538E+03  0.00000000000E+00 0. -1.
          1    1    1    2  502    0  0.63016217172E+02  0.30773161330E+02  0.14467237340E+04  0.14484224500E+04  0.00000000000E+00 0. -1.
         22    1    3    3    0    0  0.48898923185E+02 -0.55793407138E+02 -0.67181914093E+02  0.10008705486E+03  0.00000000000E+00 0.  1.
         22    1    3    3    0    0 -0.44454412430E+02  0.26219523409E+01  0.12738160297E+02  0.46317708776E+02  0.00000000000E+00 0.  1.
</event>
<event>
 7    1  0.6888431E-006  0.5243869E+02  0.7818608E-02  0.1519843E+00
          2   -1    0    0  502    0  0.00000000000E+00  0.00000000000E+00  0.28524733655E+04  0.28524733655E+04  0.00000000000E+00 0. -1.
          1   -1    0    0  501    0 -0.00000000000E+00 -0.00000000000E+00 -0.18017468975E+03  0.18017468975E+03  0.00000000000E+00 0. -1.
         25    2    1    2    0    0 -0.27658815762E+02 -0.18026329498E+02  0.17772086143E+04  0.17819051247E+04  0.12500182331E+03 0.  0.
          2    1    1    2  501    0 -0.13925390412E+02 -0.24534272949E+02 -0.17587648895E+03  0.17812463730E+03  0.00000000000E+00 0. -1.
          1    1    1    2  502    0  0.41584206174E+02  0.42560602447E+02  0.10709665503E+04  0.10726182933E+04  0.00000000000E+00 0. -1.
         22    1    3    3    0    0 -0.34617611111E+02 -0.63250422725E+02  0.14122320987E+04  0.14140716020E+04  0.00000000000E+00 0. -1.
         22    1    3    3    0    0  0.69587953489E+01  0.45224093227E+02  0.36497651559E+03  0.36783352263E+03  0.00000000000E+00 0. -1.
</event>
<event>
 7    1  0.6888431E-006  0.1427358E+03  0.7818608E-02  0.1245365E+00
          2   -1    0    0  502    0  0.00000000000E+00  0.00000000000E+00  0.14984454198E+03  0.14984454198E+03  0.00000000000E+00 0. -1.
          1   -1    0    0  501    0 -0.00000000000E+00 -0.00000000000E+00 -0.55728508398E+03  0.55728508398E+03  0.00000000000E+00 0. -1.
         25    2    1    2    0    0 -0.19243205719E+03  0.44697313426E+02 -0.12044300093E+03  0.26298407537E+03  0.12500464376E+03 0.  0.
          2    1    1    2  501    0  0.13131654929E+03  0.32682835162E+02 -0.31399363581E+03  0.34191257240E+03  0.00000000000E+00 0. -1.
          1    1    1    2  502    0  0.61115507901E+02 -0.77380148588E+02  0.26996094741E+02  0.10223297821E+03  0.00000000000E+00 0. -1.
         22    1    3    3    0    0 -0.19341037500E+03  0.62019780646E+02 -0.13191053430E+03  0.24218673665E+03  0.00000000000E+00 0.  1.
         22    1    3    3    0    0  0.97831780616E+00 -0.17322467220E+02  0.11467533368E+02  0.20797338720E+02  0.00000000000E+00 0.  1.
</event>
<event>
 7    1  0.6888431E-006  0.7024909E+02  0.7818608E-02  0.1371552E+00
          2   -1    0    0  502    0  0.00000000000E+00  0.00000000000E+00  0.26745715659E+03  0.26745715659E+03  0.00000000000E+00 0. -1.
          1   -1    0    0  501    0 -0.00000000000E+00 -0.00000000000E+00 -0.71467516239E+03  0.71467516239E+03  0.00000000000E+00 0. -1.
         25    2    1    2    0    0  0.87615605432E+02 -0.61887293288E+02  0.56804141784E+02  0.17423618188E+03  0.12500002067E+03 0.  0.
          2    1    1    2  501    0 -0.63393257056E+02 -0.10463949792E+01 -0.64684980596E+03  0.64994959147E+03  0.00000000000E+00 0. -1.
          1    1    1    2  502    0 -0.24222348376E+02  0.62933688267E+02  0.14282765837E+03  0.15794654563E+03  0.00000000000E+00 0. -1.
         22    1    3    3    0    0  0.27642741126E+02 -0.46980837431E+02  0.89143137096E+02  0.10448836832E+03  0.00000000000E+00 0. -1.
         22    1    3    3    0    0  0.59972864306E+02 -0.14906455857E+02 -0.32338995312E+02  0.69747813565E+02  0.00000000000E+00 0. -1.
</event>
<event>
 7    1  0.6888431E-006  0.1590697E+03  0.7818608E-02  0.1411789E+00
          2   -1    0    0  502    0  0.00000000000E+00  0.00000000000E+00  0.35998755366E+04  0.35998755366E+04  0.00000000000E+00 0. -1.
          1   -1    0    0  501    0 -0.00000000000E+00 -0.00000000000E+00 -0.39180062502E+02  0.39180062502E+02  0.00000000000E+00 0. -1.
         25    2    1    2    0    0  0.15918881040E+03  0.30754117138E+01  0.70412867673E+03  0.73264933133E+03  0.12500925485E+03 0.  0.
          2    1    1    2  501    0 -0.89919674150E+00 -0.20259479355E+02 -0.18190923155E+02  0.27242700743E+02  0.00000000000E+00 0. -1.
          1    1    1    2  502    0 -0.15828961366E+03  0.17184067641E+02  0.28747577205E+04  0.28791635670E+04  0.00000000000E+00 0. -1.
         22    1    3    3    0    0 -0.66939297651E+01 -0.30253061950E+02  0.15412560537E+03  0.15720928307E+03  0.00000000000E+00 0. -1.
         22    1    3    3    0    0  0.16588274016E+03  0.33328473664E+02  0.55000307136E+03  0.57544004826E+03  0.00000000000E+00 0. -1.
</event>
<event>
 7    1  0.6888431E-006  0.1554020E+03  0.7818608E-02  0.1273934E+00
          2   -1    0    0  502    0  0.00000000000E+00  0.00000000000E+00  0.18099838391E+04  0.18099838391E+04  0.00000000000E+00 0. -1.
          1   -1    0    0  501    0 -0.00000000000E+00 -0.00000000000E+00 -0.30447607057E+03  0.30447607057E+03  0.00000000000E+00 0. -1.
         25    2    1    2    0    0  0.11352215612E+03  0.61495683820E+02 -0.10849627919E+03  0.20991700356E+03  0.12499882690E+03 0.  0.
          2    1    1    2  501    0 -0.18150704343E+03 -0.54116642594E+02 -0.82550472877E+02  0.20661074123E+03  0.00000000000E+00 0. -1.
          1    1    1    2  502    0  0.67984887309E+02 -0.73790412259E+01  0.16965545206E+04  0.16979321648E+04  0.00000000000E+00 0. -1.
         22    1    3    3    0    0  0.13536265683E+03  0.74236879327E+02 -0.91749369674E+02  0.17958872446E+03  0.00000000000E+00 0. -1.
         22    1    3    3    0    0 -0.21840500717E+02 -0.12741195508E+02 -0.16746909520E+02  0.30328279097E+02  0.00000000000E+00 0. -1.
</event>
<event>
 7    1  0.6888431E-006  0.1611662E+03  0.7818608E-02  0.1188900E+00
          2   -1    0    0  502    0  0.00000000000E+00  0.00000000000E+00  0.46049881515E+04  0.46049881515E+04  0.00000000000E+00 0. -1.
          1   -1    0    0  501    0 -0.00000000000E+00 -0.00000000000E+00 -0.68972114219E+02  0.68972114219E+02  0.00000000000E+00 0. -1.
         25    2    1    2    0    0  0.48111427502E+02 -0.83371929199E+02  0.79226807056E+03  0.80782422993E+03  0.12500281119E+03 0.  0.
          2    1    1    2  501    0 -0.13653882249E+03 -0.85625299582E+02  0.51831200343E+02  0.16929564467E+03  0.00000000000E+00 0. -1.
          1    1    1    2  502    0  0.88427394986E+02  0.16899722878E+03  0.36919167664E+04  0.36968403911E+04  0.00000000000E+00 0. -1.
         22    1    3    3    0    0 -0.33343335345E+02 -0.18411041577E+02  0.87969237095E+02  0.95860999050E+02  0.00000000000E+00 0.  1.
         22    1    3    3    0    0  0.81454762847E+02 -0.64960887622E+02  0.70429883346E+03  0.71196323088E+03  0.00000000000E+00 0.  1.
</event>
<event>
 7    1  0.6888431E-006  0.6644763E+02  0.7818608E-02  0.1454158E+00
          2   -1    0    0  502    0  0.00000000000E+00  0.00000000000E+00  0.11228934345E+04  0.11228934345E+04  0.00000000000E+00 0. -1.
          1   -1    0    0  501    0 -0.00000000000E+00 -0.00000000000E+00 -0.80087348986E+03  0.80087348986E+03  0.00000000000E+00 0. -1.
         25    2    1    2    0    0  0.70532548259E+02 -0.82976569325E+01  0.29740534155E+03  0.33033048295E+03  0.12499839723E+03 0.  0.
          2    1    1    2  501    0 -0.53644501426E+02  0.39246504491E+02 -0.78261737288E+03  0.78543489417E+03  0.00000000000E+00 0. -1.
          1    1    1    2  502    0 -0.16888046833E+02 -0.30948847558E+02  0.80723197594E+03  0.80800154720E+03  0.00000000000E+00 0. -1.
         22    1    3    3    0    0  0.72330498030E+02  0.46687856573E+02  0.21112750237E+03  0.22800499809E+03  0.00000000000E+00 0. -1.
         22    1    3    3    0    0 -0.17979497710E+01 -0.54985513505E+02  0.86277839179E+02  0.10232548486E+03  0.00000000000E+00 0. -1.
</event>
<event>
 7    1  0.6888431E-006  0.1035333E+03  0.7818608E-02  0.1288026E+00
          2   -1    0    0  502    0  0.00000000000E+00  0.00000000000E+00  0.21973764279E+04  0.21973764279E+04  0.00000000000E+00 0. -1.
          1   -1    0    0  501    0 -0.00000000000E+00 -0.00000000000E+00 -0.52945295544E+03  0.52945295544E+03  0.00000000000E+00 0. -1.
         25    2    1    2    0    0  0.65340254117E+02 -0.15923448984E+02  0.75218581830E+03  0.76546172464E+03  0.12500096645E+03 0.  0.
          2    1    1    2  501    0 -0.49577292417E+02 -0.90891394041E+02 -0.51563605202E+03  0.52592745847E+03  0.00000000000E+00 0. -1.
          1    1    1    2  502    0 -0.15762961700E+02  0.10681484302E+03  0.14313737062E+04  0.14354402002E+04  0.00000000000E+00 0. -1.
         22    1    3    3    0    0  0.38618711996E+02 -0.34174625254E+02  0.10036476621E+03  0.11283792015E+03  0.00000000000E+00 0. -1.
         22    1    3    3    0    0  0.26721542121E+02  0.18251176271E+02  0.65182105208E+03  0.65262380449E+03  0.00000000000E+00 0. -1.
</event>
<event>
 7    1  0.6888431E-006  0.1022638E+03  0.7818608E-02  0.1322439E+00
          2   -1    0    0  502    0  0.00000000000E+00  0.00000000000E+00  0.32392563393E+03  0.32392563393E+03  0.00000000000E+00 0. -1.
          1   -1    0    0  501    0 -0.00000000000E+00 -0.00000000000E+00 -0.24662259853E+04  0.24662259853E+04  0.00000000000E+00 0. -1.
         25    2    1    2    0    0 -0.92382415868E+02 -0.20549580533E+02 -0.19781758445E+03  0.25241551034E+03  0.12499998848E+03 0.  0.
          2    1    1    2  501    0  0.92791982548E+02 -0.45806286685E+02 -0.22361867365E+04  0.22385798374E+04  0.00000000000E+00 0. -1.
          1    1    1    2  502    0 -0.40956667985E+00  0.66355867218E+02  0.29170396962E+03  0.29915627145E+03  0.00000000000E+00 0. -1.
         22    1    3    3    0    0 -0.37590834607E+02 -0.52870647392E+02 -0.17188348197E+03  0.18371801103E+03  0.00000000000E+00 0. -1.
         22    1    3    3    0    0 -0.54791581262E+02  0.32321066858E+02 -0.25934102478E+02  0.68697499310E+02  0.00000000000E+00 0. -1.
</event>
<event>
 7    1  0.6888431E-006  0.5333671E+02  0.7818608E-02  0.1480030E+00
          2   -1    0    0  502    0  0.00000000000E+00  0.00000000000E+00  0.57229974875E+03  0.57229974875E+03  0.00000000000E+00 0. -1.
          1   -1    0    0  501    0 -0.00000000000E+00 -0.00000000000E+00 -0.46068749864E+03  0.46068749864E+03  0.00000000000E+00 0. -1.
         25    2    1    2    0    0  0.55799055532E+02 -0.62267844499E+02  0.36969648848E+03  0.39911301355E+03  0.12499953975E+03 0.  0.
          2    1    1    2  501    0 -0.25567048229E+02  0.26001012151E+02 -0.44225084015E+03  0.44375165599E+03  0.00000000000E+00 0. -1.
          1    1    1    2  502    0 -0.30232007302E+02  0.36266832348E+02  0.18416660178E+03  0.19012257784E+03  0.00000000000E+00 0. -1.
         22    1    3    3    0    0  0.10371842534E+02 -0.57782117366E+02  0.33913571588E+03  0.34417928757E+03  0.00000000000E+00 0. -1.
         22    1    3    3    0    0  0.45427212998E+02 -0.44857271332E+01  0.30560772595E+02  0.54933725982E+02  0.00000000000E+00 0. -1.
</event>
<event>
 7    1  0.6888431E-006  0.4915552E+02  0.7818608E-02  0.1518050E+00
          2   -1    0    0  502    0  0.00000000000E+00  0.00000000000E+00  0.80733547108E+03  0.80733547108E+03  0.00000000000E+00 0. -1.
          1   -1    0    0  501    0 -0.00000000000E+00 -0.00000000000E+00 -0.16105772533E+04  0.16105772533E+04  0.00000000000E+00 0. -1.
         25    2    1    2    0    0 -0.23134941365E+02 -0.63332823499E+02 -0.96339279746E+02  0.17161601659E+03  0.12499811312E+03 0.  0.
          2    1    1    2  501    0  0.34321466384E+02  0.35002791655E+02 -0.14758911596E+04  0.14767050733E+04  0.00000000000E+00 0. -1.
          1    1    1    2  502    0 -0.11186525019E+02  0.28330031843E+02  0.76898865714E+03  0.76959163448E+03  0.00000000000E+00 0. -1.
         22    1    3    3    0    0  0.11921682644E+02 -0.79626444205E+02 -0.10468623957E+03  0.13206705073E+03  0.00000000000E+00 0. -1.
         22    1    3    3    0    0 -0.35056624008E+02  0.16293620707E+02  0.83469598192E+01  0.39548965863E+02  0.00000000000E+00 0. -1.
</event>
<event>
 7    1  0.6888431E-006  0.3357763E+02  0.7818608E-02  0.1595435E+00
          2   -1    0    0  502    0  0.00000000000E+00  0.00000000000E+00  0.24608050007E+04  0.24608050007E+04  0.00000000000E+00 0. -1.
          1   -1    0    0  501    0 -0.00000000000E+00 -0.00000000000E+00 -0.22969961515E+03  0.22969961515E+03  0.00000000000E+00 0. -1.
         25    2    1    2    0    0  0.21796646207E+02 -0.24200249951E+02  0.13586773244E+04  0.13648036386E+04  0.12499661687E+03 0.  0.
          2    1    1    2  501    0 -0.25263977826E+02 -0.10177147830E+02 -0.22554539943E+03  0.22718400058E+03  0.00000000000E+00 0. -1.
          1    1    1    2  502    0  0.34673316187E+01  0.34377397781E+02  0.10979734606E+04  0.10985169767E+04  0.00000000000E+00 0. -1.
         22    1    3    3    0    0  0.10644996649E+02 -0.60167556847E+02  0.34107698843E+03  0.34650680064E+03  0.00000000000E+00 0. -1.
         22    1    3    3    0    0  0.11151649557E+02  0.35967306896E+02  0.10176003359E+04  0.10182968379E+04  0.00000000000E+00 0. -1.
</event>
<event>
 7    1  0.6888431E-006  0.1368393E+03  0.7818608E-02  0.1234899E+00
          2   -1    0    0  502    0  0.00000000000E+00  0.00000000000E+00  0.16936974479E+04  0.16936974479E+04  0.00000000000E+00 0. -1.
          1   -1    0    0  501    0 -0.00000000000E+00 -0.00000000000E+00 -0.21593217676E+03  0.21593217676E+03  0.00000000000E+00 0. -1.
         25    2    1    2    0    0  0.60966178522E+02  0.13495650740E+03  0.42904541821E+03  0.47078111075E+03  0.12499899814E+03 0.  0.
          2    1    1    2  501    0  0.53210860010E+02 -0.12807886517E+03 -0.16738378243E+03  0.21737737221E+03  0.00000000000E+00 0. -1.
          1    1    1    2  502    0 -0.11417703853E+03 -0.68776422287E+01  0.12161036354E+04  0.12214711417E+04  0.00000000000E+00 0. -1.
         22    1    3    3    0    0  0.72200392176E+02  0.23218017926E+02  0.23074249913E+03  0.24288695702E+03  0.00000000000E+00 0. -1.
         22    1    3    3    0    0 -0.11234213655E+02  0.11173848947E+03  0.19830291908E+03  0.22789415373E+03  0.00000000000E+00 0. -1.
</event>
<event>
 7    1  0.6888431E-006  0.7571513E+02  0.7818608E-02  0.1466615E+00
          2   -1    0    0  502    0  0.00000000000E+00  0.00000000000E+00  0.94616643536E+03  0.94616643536E+03  0.00000000000E+00 0. -1.
          1   -1    0    0  501    0 -0.00000000000E+00 -0.00000000000E+00 -0.28967941035E+02  0.28967941035E+02  0.00000000000E+00 0. -1.
         25    2    1    2    0    0 -0.87631213316E+02 -0.39937115465E+02  0.41658753002E+03  0.44547363376E+03  0.12500954153E+03 0.  0.
          2    1    1    2  501    0  0.69127214018E+02  0.18569932656E+02  0.77085474793E+02  0.10519308219E+03  0.00000000000E+00 0. -1.
          1    1    1    2  502    0  0.18503999298E+02  0.21367182809E+02  0.42352548951E+03  0.42446766044E+03  0.00000000000E+00 0. -1.
         22    1    3    3    0    0 -0.90898515066E+02 -0.39766234323E+02  0.15607999967E+03  0.18494555883E+03  0.00000000000E+00 0.  1.
         22    1    3    3    0    0  0.32673017505E+01 -0.17088114128E+00  0.26050753035E+03  0.26052807494E+03  0.00000000000E+00 0.  1.
</event>
<event>
 7    1  0.6888431E-006  0.6257825E+02  0.7818608E-02  0.1450023E+00
          2   -1    0    0  502    0  0.00000000000E+00  0.00000000000E+00  0.58205834790E+03  0.58205834790E+03  0.00000000000E+00 0. -1.
          1   -1    0    0  501    0 -0.00000000000E+00 -0.00000000000E+00 -0.17900435472E+03  0.17900435472E+03  0.00000000000E+00 0. -1.
         25    2    1    2    0    0  0.92486104507E+02 -0.15433612691E+02  0.35671725634E+03  0.38943932130E+03  0.12499563223E+03 0.  0.
          2    1    1    2  501    0 -0.55786730193E+02  0.27368038246E+02 -0.15480631182E+03  0.16681175906E+03  0.00000000000E+00 0. -1.
          1    1    1    2  502    0 -0.36699374314E+02 -0.11934425555E+02  0.20114304866E+03  0.20481162226E+03  0.00000000000E+00 0. -1.
         22    1    3    3    0    0  0.11364351349E+03  0.19555708150E+02  0.25882501567E+03  0.28335077662E+03  0.00000000000E+00 0.  1.
         22    1    3    3    0    0 -0.21157408980E+02 -0.34989320840E+02  0.97892240671E+02  0.10608854468E+03  0.00000000000E+00 0.  1.
</event>
<event>
 7    1  0.6888431E-006  0.8137801E+02  0.7818608E-02  0.1371422E+00
          2   -1    0    0  502    0  0.00000000000E+00  0.00000000000E+00  0.26029222623E+04  0.26029222623E+04  0.00000000000E+00 0. -1.
          1   -1    0    0  501    0 -0.00000000000E+00 -0.00000000000E+00 -0.16247024215E+04  0.16247024215E+04  0.00000000000E+00 0. -1.
         25    2    1    2    0    0  0.35303378940E+02 -0.82800404160E+02  0.80756964050E+02  0.17392277293E+03  0.12500083283E+03 0.  0.
          2    1    1    2  501    0  0.35234440458E+02  0.41957915902E+02 -0.15769727082E+04  0.15779242235E+04  0.00000000000E+00 0. -1.
          1    1    1    2  502    0 -0.70537819397E+02  0.40842488258E+02  0.24744355850E+04  0.24757776874E+04  0.00000000000E+00 0. -1.
         22    1    3    3    0    0 -0.18486875440E+02 -0.86036871600E+02  0.15605658299E+02  0.89373622558E+02  0.00000000000E+00 0.  1.
         22    1    3    3    0    0  0.53790254379E+02  0.32364674396E+01  0.65151305750E+02  0.84549150372E+02  0.00000000000E+00 0.  1.
</event>
<event>
 7    1  0.6888431E-006  0.3814158E+02  0.7818608E-02  0.1581916E+00
          2   -1    0    0  502    0  0.00000000000E+00  0.00000000000E+00  0.62196435154E+03  0.62196435154E+03  0.00000000000E+00 0. -1.
          1   -1    0    0  501    0 -0.00000000000E+00 -0.00000000000E+00 -0.86360646684E+02  0.86360646684E+02  0.00000000000E+00 0. -1.
         25    2    1    2    0    0  0.55736469465E+02 -0.18841227451E+02  0.23575841434E+03  0.27325537155E+03  0.12499968909E+03 0.  0.
          2    1    1    2  501    0 -0.25827633818E+02 -0.33241335418E+01 -0.64119651880E+02  0.69205825547E+02  0.00000000000E+00 0. -1.
          1    1    1    2  502    0 -0.29908835647E+02  0.22165360993E+02  0.36396494240E+03  0.36586380112E+03  0.00000000000E+00 0. -1.
         22    1    3    3    0    0  0.44236940101E+02  0.24935844394E+02  0.21928581565E+03  0.22508880948E+03  0.00000000000E+00 0. -1.
         22    1    3    3    0    0  0.11499529364E+02 -0.43777071845E+02  0.16472598687E+02  0.48166562078E+02  0.00000000000E+00 0. -1.
</event>
<event>
 7    1  0.6888431E-006  0.5212342E+02  0.7818608E-02  0.1493462E+00
          2   -1    0    0  502    0  0.00000000000E+00  0.00000000000E+00  0.37829574307E+03  0.37829574307E+03  0.00000000000E+00 0. -1.
          1   -1    0    0  501    0 -0.00000000000E+00 -0.00000000000E+00 -0.60174646390E+02  0.60174646390E+02  0.00000000000E+00 0. -1.
         25    2    1    2    0    0 -0.41911210918E+02 -0.53846328081E+02  0.10363397675E+03  0.17612803084E+03  0.12500042185E+03 0.  0.
          2    1    1    2  501    0 -0.53514935531E+01  0.33542407663E+02 -0.72374235826E+01  0.34729121717E+02  0.00000000000E+00 0. -1.
          1    1    1    2  502    0  0.47262704471E+02  0.20303920418E+02  0.22172454351E+03  0.22761323690E+03  0.00000000000E+00 0. -1.
         22    1    3    3    0    0 -0.71057192490E+02 -0.57220780752E+02  0.11308923082E+03  0.14530146758E+03  0.00000000000E+00 0. -1.
         22    1    3    3    0    0  0.29145981572E+02  0.33744526701E+01 -0.94552540704E+01  0.30826563256E+02  0.00000000000E+00 0. -1.
</event>
<event>
 7    1  0.6888431E-006  0.7472092E+02  0.7818608E-02  0.1373939E+00
          2   -1    0    0  502    0  0.00000000000E+00  0.00000000000E+00  0.48697838723E+03  0.48697838723E+03  0.00000000000E+00 0. -1.
          1   -1    0    0  501    0 -0.00000000000E+00 -0.00000000000E+00 -0.10471325063E+04  0.10471325063E+04  0.00000000000E+00 0. -1.
         25    2    1    2    0    0 -0.11735605978E+03 -0.60941090952E+02  0.24693283447E+02  0.18363115623E+03  0.12499752780E+03 0.  0.
          2    1    1    2  501    0  0.67007056231E+02  0.31261663357E+02 -0.96400876514E+03  0.96684028487E+03  0.00000000000E+00 0. -1.
          1    1    1    2  502    0  0.50349003552E+02  0.29679427596E+02  0.37916136260E+03  0.38363945245E+03  0.00000000000E+00 0. -1.
         22    1    3    3    0    0 -0.83785551022E+02 -0.92442928070E+01  0.67996501971E+02  0.10830050688E+03  0.00000000000E+00 0. -1.
         22    1    3    3    0    0 -0.33570508761E+02 -0.51696798145E+02 -0.43303218524E+02  0.75330649350E+02  0.00000000000E+00 0. -1.
</event>
<event>
 7    1  0.1369265E-005  0.1051693E+03  0.7818608E-02  0.1326216E+00
          2   -1    0    0  502    0  0.00000000000E+00  0.00000000000E+00  0.14730070263E+04  0.14730070263E+04  0.00000000000E+00 0. -1.
          1   -1    0    0  501    0 -0.00000000000E+00 -0.00000000000E+00 -0.15036545341E+04  0.15036545341E+04  0.00000000000E+00 0. -1.
         25    2    1    2    0    0  0.16390631115E+03 -0.98586172032E+01 -0.64631470775E+03  0.67846133503E+03  0.12499844200E+03 0.  0.
          2    1    1    2  501    0 -0.61217017227E+02 -0.12075841393E+02 -0.83821338167E+03  0.84053258256E+03  0.00000000000E+00 0. -1.
          1    1    1    2  502    0 -0.10268929392E+03  0.21934458596E+02  0.14538805816E+04  0.14576676429E+04  0.00000000000E+00 0. -1.
         22    1    3    3    0    0  0.13819199174E+03  0.41991445115E+01 -0.62985283465E+03  0.64484824006E+03  0.00000000000E+00 0. -1.
         22    1    3    3    0    0  0.25714319407E+02 -0.14057761715E+02 -0.16461873103E+02  0.33613094964E+02  0.00000000000E+00 0. -1.
</event>
<event>
 7    1  0.6888431E-006  0.9336338E+02  0.7818608E-02  0.1357660E+00
          2   -1    0    0  502    0  0.00000000000E+00  0.00000000000E+00  0.19286151248E+03  0.19286151248E+03  0.00000000000E+00 0. -1.
          1   -1    0    0  501    0 -0.00000000000E+00 -0.00000000000E+00 -0.66374570529E+03  0.66374570529E+03  0.00000000000E+00 0. -1.
         25    2    1    2    0    0  0.44864086653E+02  0.61634193832E+01  0.76106256023E+01  0.13316533779E+03  0.12499724620E+03 0.  0.
          2    1    1    2  501    0 -0.88711762887E+02 -0.36937330013E+02 -0.59103856321E+03  0.59879940416E+03  0.00000000000E+00 0. -1.
          1    1    1    2  502    0  0.43847676234E+02  0.30773910630E+02  0.11254374480E+03  0.12464247582E+03  0.00000000000E+00 0. -1.
         22    1    3    3    0    0  0.41357866833E+02  0.38468930354E+02  0.52924932704E+02  0.77404006701E+02  0.00000000000E+00 0.  1.
         22    1    3    3    0    0  0.35062198199E+01 -0.32305510970E+02 -0.45314307102E+02  0.55761331087E+02  0.00000000000E+00 0.  1.
</event>
<event>
 7    1  0.6888431E-006  0.1112462E+03  0.7818608E-02  0.1387673E+00
          2   -1    0    0  502    0  0.00000000000E+00  0.00000000000E+00  0.29967897951E+03  0.29967897951E+03  0.00000000000E+00 0. -1.
          1   -1    0    0  501    0 -0.00000000000E+00 -0.00000000000E+00 -0.48181229239E+03  0.48181229239E+03  0.00000000000E+00 0. -1.
         25    2    1    2    0    0 -0.12954109966E+03 -0.47396828947E+02  0.12434668138E+03  0.22386203936E+03  0.12499903840E+03 0.  0.
          2    1    1    2  501    0  0.10854656722E+03  0.19265949361E+02 -0.42238023123E+03  0.43653017512E+03  0.00000000000E+00 0. -1.
          1    1    1    2  502    0  0.20994532438E+02  0.28130879586E+02  0.11590023697E+03  0.12109905742E+03  0.00000000000E+00 0. -1.
         22    1    3    3    0    0 -0.12413707328E+03  0.51736399364E+01  0.53005651625E+02  0.13507915685E+03  0.00000000000E+00 0. -1.
         22    1    3    3    0    0 -0.54040263842E+01 -0.52570468883E+02  0.71341029754E+02  0.88782882506E+02  0.00000000000E+00 0. -1.
</event>
<event>
 7    1  0.6888431E-006  0.3144658E+02  0.7818608E-02  0.1613435E+00
          2   -1    0    0  502    0  0.00000000000E+00  0.00000000000E+00  0.18973691281E+04  0.18973691281E+04  0.00000000000E+00 0. -1.
          1   -1    0    0  501    0 -0.00000000000E+00 -0.00000000000E+00 -0.17837188274E+02  0.17837188274E+02  0.00000000000E+00 0. -1.
         25    2    1    2    0    0 -0.49117801969E+02 -0.68731793120E+01  0.31043037159E+03  0.33829818787E+03  0.12497539457E+03 0.  0.
          2    1    1    2  501    0  0.24460042941E+02  0.15470342916E+02  0.51447405109E+02  0.59029320707E+02  0.00000000000E+00 0. -1.
          1    1    1    2  502    0  0.24657759028E+02 -0.85971636043E+01  0.15176541631E+04  0.15178788078E+04  0.00000000000E+00 0. -1.
         22    1    3    3    0    0  0.36124730900E+02 -0.24662730400E+02  0.14353044427E+03  0.15004744211E+03  0.00000000000E+00 0.  1.
         22    1    3    3    0    0 -0.85242532869E+02  0.17789551088E+02  0.16689992732E+03  0.18825074576E+03  0.00000000000E+00 0.  1.
</event>
<event>
 7    1  0.6888431E-006  0.7811826E+02  0.7818608E-02  0.1385715E+00
          2   -1    0    0  502    0  0.00000000000E+00  0.00000000000E+00  0.30089130530E+03  0.30089130530E+03  0.00000000000E+00 0. -1.
          1   -1    0    0  501    0 -0.00000000000E+00 -0.00000000000E+00 -0.20755420075E+04  0.20755420075E+04  0.00000000000E+00 0. -1.
         25    2    1    2    0    0  0.95645482355E+02 -0.59405489557E+02 -0.11406231450E+03  0.20324946400E+03  0.12499224993E+03 0.  0.
          2    1    1    2  501    0 -0.76680541544E+02  0.12296138441E+02 -0.19135751620E+04  0.19151503860E+04  0.00000000000E+00 0. -1.
          1    1    1    2  502    0 -0.18964940811E+02  0.47109351116E+02  0.25298677429E+03  0.25803346277E+03  0.00000000000E+00 0. -1.
         22    1    3    3    0    0  0.22756942462E+02 -0.79493068908E+02 -0.93664666317E+02  0.12494037038E+03  0.00000000000E+00 0. -1.
         22    1    3    3    0    0  0.72888539893E+02  0.20087579351E+02 -0.20397648181E+02  0.78309093618E+02  0.00000000000E+00 0. -1.
</event>
<event>
 7    1  0.6888431E-006  0.9386941E+02  0.7818608E-02  0.1371100E+00
          2   -1    0    0  502    0  0.00000000000E+00  0.00000000000E+00  0.46683766420E+04  0.46683766420E+04  0.00000000000E+00 0. -1.
          1   -1    0    0  501    0 -0.00000000000E+00 -0.00000000000E+00 -0.50068214603E+03  0.50068214603E+03  0.00000000000E+00 0. -1.
         25    2    1    2    0    0  0.77868518200E+02  0.33225289227E+02  0.90489359066E+03  0.91740095689E+03  0.12499871723E+03 0.  0.
          2    1    1    2  501    0 -0.20103422484E+02  0.43174579033E+02 -0.49266957626E+03  0.49496616373E+03  0.00000000000E+00 0. -1.
          1    1    1    2  502    0 -0.57765095716E+02 -0.76399868260E+02  0.37554704815E+04  0.37566916674E+04  0.00000000000E+00 0. -1.
         22    1    3    3    0    0  0.86810188981E+02  0.69754471513E+02  0.60562559125E+03  0.61577922341E+03  0.00000000000E+00 0.  1.
         22    1    3    3    0    0 -0.89416707813E+01 -0.36529182286E+02  0.29926799941E+03  0.30162173348E+03  0.00000000000E+00 0.  1.
</event>
<event>
 7    1  0.6888431E-006  0.1427276E+03  0.7818608E-02  0.1285255E+00
          2   -1    0    0  502    0  0.00000000000E+00  0.00000000000E+00  0.32234953042E+04  0.32234953042E+04  0.00000000000E+00 0. -1.
          1   -1    0    0  501    0 -0.00000000000E+00 -0.00000000000E+00 -0.18075624168E+03  0.18075624168E+03  0.00000000000E+00 0. -1.
         25    2    1    2    0    0 -0.51684232944E+02  0.60260361785E+02 -0.34754133153E+02  0.15210488568E+03  0.12500190134E+03 0.  0.
          2    1    1    2  501    0 -0.22700268921E+02  0.62875571137E+02 -0.72647197308E+02  0.98723122578E+02  0.00000000000E+00 0. -1.
          1    1    1    2  502    0  0.74384501865E+02 -0.12313593292E+03  0.31501403929E+04  0.31534235376E+04  0.00000000000E+00 0. -1.
         22    1    3    3    0    0  0.34186033887E+02 -0.10532387358E+02 -0.91046838148E+00  0.35783306849E+02  0.00000000000E+00 0. -1.
         22    1    3    3    0    0 -0.85870266831E+02  0.70792749143E+02 -0.33843664772E+02  0.11632157883E+03  0.00000000000E+00 0. -1.
</event>
<event>
 7    1  0.6888431E-006  0.6989734E+02  0.7818608E-02  0.1398937E+00
          2   -1    0    0  502    0  0.00000000000E+00  0.00000000000E+00  0.74901624638E+03  0.74901624638E+03  0.00000000000E+00 0. -1.
          1   -1    0    0  501    0 -0.00000000000E+00 -0.00000000000E+00 -0.10000513949E+03  0.10000513949E+03  0.00000000000E+00 0. -1.
         25    2    1    2    0    0  0.29331638929E+02  0.96590170250E+01  0.15655645581E+03  0.20270473107E+03  0.12500256993E+03 0.  0.
          2    1    1    2  501    0 -0.72037781012E+02  0.18317991677E+02 -0.57514083048E+02  0.93983298841E+02  0.00000000000E+00 0. -1.
          1    1    1    2  502    0  0.42706142083E+02 -0.27977008702E+02  0.54996873413E+03  0.55233335596E+03  0.00000000000E+00 0. -1.
         22    1    3    3    0    0 -0.25597937489E+02  0.44504028368E+01 -0.95442690860E+01  0.27679479068E+02  0.00000000000E+00 0.  1.
         22    1    3    3    0    0  0.54929576418E+02  0.52086141882E+01  0.16610072489E+03  0.17502525200E+03  0.00000000000E+00 0.  1.
</event>
<event>
 7    1  0.6888431E-006  0.7968774E+02  0.7818608E-02  0.1358656E+00
          2   -1    0    0  502    0  0.00000000000E+00  0.00000000000E+00  0.75832416933E+03  0.75832416933E+03  0.00000000000E+00 0. -1.
          1   -1    0    0  501    0 -0.00000000000E+00 -0.00000000000E+00 -0.83551549987E+02  0.83551549987E+02  0.00000000000E+00 0. -1.
         25    2    1    2    0    0 -0.71531565397E+00  0.12353109648E+03  0.20827398911E+03  0.27251338089E+03  0.12500017900E+03 0.  0.
          2    1    1    2  501    0  0.30660398576E+02 -0.68970888378E+02 -0.20651203419E+02  0.78252895711E+02  0.00000000000E+00 0. -1.
          1    1    1    2  502    0 -0.29945082922E+02 -0.54560208098E+02  0.48714983365E+03  0.49110944271E+03  0.00000000000E+00 0. -1.
         22    1    3    3    0    0  0.51429280287E+02  0.73493910010E+02  0.61041571785E+02  0.10850068740E+03  0.00000000000E+00 0.  1.
         22    1    3    3    0    0 -0.52144595941E+02  0.50037186466E+02  0.14723241733E+03  0.16401269349E+03  0.00000000000E+00 0.  1.
</event>
<event>
 7    1  0.6888431E-006  0.3993480E+02  0.7818608E-02  0.1594953E+00
          2   -1    0    0  502    0  0.00000000000E+00  0.00000000000E+00  0.93744129310E+03  0.93744129310E+03  0.00000000000E+00 0. -1.
          1   -1    0    0  501    0 -0.00000000000E+00 -0.00000000000E+00 -0.34565495999E+03  0.34565495999E+03  0.00000000000E+00 0. -1.
         25    2    1    2    0    0 -0.42493556950E+01 -0.36754860990E+02 -0.61247804401E+02  0.14403324363E+03  0.12500121958E+03 0.  0.
          2    1    1    2  501    0 -0.21998186936E+02  0.66032623031E+01 -0.24202461898E+03  0.24311198961E+03  0.00000000000E+00 0. -1.
          1    1    1    2  502    0  0.26247542631E+02  0.30151598687E+02  0.89505875649E+03  0.89595101985E+03  0.00000000000E+00 0. -1.
         22    1    3    3    0    0 -0.27465470213E+02 -0.74074474009E+02 -0.15339831796E+02  0.80477886362E+02  0.00000000000E+00 0.  1.
         22    1    3    3    0    0  0.23216114518E+02  0.37319613019E+02 -0.45907972605E+02  0.63555357271E+02  0.00000000000E+00 0.  1.
</event>
<event>
 7    1  0.6888431E-006  0.5170121E+02  0.7818608E-02  0.1557692E+00
          2   -1    0    0  502    0  0.00000000000E+00  0.00000000000E+00  0.32186563742E+04  0.32186563742E+04  0.00000000000E+00 0. -1.
          1   -1    0    0  501    0 -0.00000000000E+00 -0.00000000000E+00 -0.15567538867E+03  0.15567538867E+03  0.00000000000E+00 0. -1.
         25    2    1    2    0    0  0.18318829506E+02 -0.29209590638E+02 -0.10173547929E+03  0.16479143305E+03  0.12496931208E+03 0.  0.
          2    1    1    2  501    0  0.22151378218E+02 -0.30131784452E+01 -0.16574100051E+02  0.27829186007E+02  0.00000000000E+00 0. -1.
          1    1    1    2  502    0 -0.40470207724E+02  0.32222769083E+02  0.31812905648E+04  0.31817111438E+04  0.00000000000E+00 0. -1.
         22    1    3    3    0    0 -0.51133680194E+02 -0.12394545664E+02 -0.20162573860E+02  0.56345429247E+02  0.00000000000E+00 0. -1.
         22    1    3    3    0    0  0.69452509700E+02 -0.16815044973E+02 -0.81572905428E+02  0.10844600380E+03  0.00000000000E+00 0. -1.
</event>
<event>
 7    1  0.6888431E-006  0.8698295E+02  0.7818608E-02  0.1353994E+00
          2   -1    0    0  502    0  0.00000000000E+00  0.00000000000E+00  0.29985027322E+03  0.29985027322E+03  0.00000000000E+00 0. -1.
          1   -1    0    0  501    0 -0.00000000000E+00 -0.00000000000E+00 -0.34354575141E+04  0.34354575141E+04  0.00000000000E+00 0. -1.
         25    2    1    2    0    0  0.27995293303E+02  0.11334263365E+03 -0.36583959702E+03  0.40384968879E+03  0.12500268533E+03 0.  0.
          2    1    1    2  501    0  0.23159513600E+02 -0.83330007403E+02 -0.30468611338E+04  0.30480884210E+04  0.00000000000E+00 0. -1.
          1    1    1    2  502    0 -0.51154806903E+02 -0.30012626247E+02  0.27709348995E+03  0.28336967759E+03  0.00000000000E+00 0. -1.
         22    1    3    3    0    0  0.66671887989E+02  0.36939814941E+02 -0.10820263054E+03  0.13235369217E+03  0.00000000000E+00 0. -1.
         22    1    3    3    0    0 -0.38676594686E+02  0.76402818709E+02 -0.25763696648E+03  0.27149599662E+03  0.00000000000E+00 0. -1.
</event>
<event>
 7    1  0.6888431E-006  0.4702425E+02  0.7818608E-02  0.1477629E+00
          2   -1    0    0  502    0  0.00000000000E+00  0.00000000000E+00  0.88725718546E+03  0.88725718546E+03  0.00000000000E+00 0. -1.
          1   -1    0    0  501    0 -0.00000000000E+00 -0.00000000000E+00 -0.50073732454E+03  0.50073732454E+03  0.00000000000E+00 0. -1.
         25    2    1    2    0    0 -0.10805313861E+02  0.20997014431E+02  0.18914817518E+03  0.22794471755E+03  0.12499653060E+03 0.  0.
          2    1    1    2  501    0 -0.27497737580E+02 -0.38394547306E+02 -0.47952610089E+03  0.48184597983E+03  0.00000000000E+00 0. -1.
          1    1    1    2  502    0  0.38303051441E+02  0.17397532875E+02  0.67689778664E+03  0.67820381262E+03  0.00000000000E+00 0. -1.
         22    1    3    3    0    0 -0.28955081273E+02  0.65173698505E+01 -0.69454526692E+01  0.30481341081E+02  0.00000000000E+00 0.  1.
         22    1    3    3    0    0  0.18149767412E+02  0.14479644580E+02  0.19609362785E+03  0.19746337647E+03  0.00000000000E+00 0.  1.
</event>
<event>
 7    1  0.6888431E-006  0.3755212E+02  0.7818608E-02  0.1571778E+00
          2   -1    0    0  502    0  0.00000000000E+00  0.00000000000E+00  0.97574938950E+03  0.97574938950E+03  0.00000000000E+00 0. -1.
          1   -1    0    0  501    0 -0.00000000000E+00 -0.00000000000E+00 -0.17757346925E+02  0.17757346925E+02  0.00000000000E+00 0. -1.
         25    2    1    2    0    0 -0.10222419130E+02 -0.15356039009E+02  0.31790154642E+03  0.34209013251E+03  0.12499583896E+03 0.  0.
          2    1    1    2  501    0  0.16349560835E+02 -0.22934064357E+02  0.34281316691E+02  0.44367647239E+02  0.00000000000E+00 0. -1.
          1    1    1    2  502    0 -0.61271417056E+01  0.38290103366E+02  0.60580917946E+03  0.60704895668E+03  0.00000000000E+00 0. -1.
         22    1    3    3    0    0  0.39082859092E+02 -0.41644571642E+02  0.23689420456E+03  0.24368135829E+03  0.00000000000E+00 0. -1.
         22    1    3    3    0    0 -0.49305278222E+02  0.26288532633E+02  0.81007341860E+02  0.98408774221E+02  0.00000000000E+00 0. -1.
</event>
<event>
 7    1  0.6888431E-006  0.6703486E+02  0.7818608E-02  0.1468095E+00
          2   -1    0    0  502    0  0.00000000000E+00  0.00000000000E+00  0.27112451783E+03  0.27112451783E+03  0.00000000000E+00 0. -1.
          1   -1    0    0  501    0 -0.00000000000E+00 -0.00000000000E+00 -0.82100137278E+03  0.82100137278E+03  0.00000000000E+00 0. -1.
         25    2    1    2    0    0 -0.69766457988E+02  0.15127145345E+02 -0.37088243539E+03  0.39783762465E+03  0.12499922208E+03 0.  0.
          2    1    1    2  501    0  0.65404449732E+02  0.16158344703E+02 -0.43305870704E+03  0.43826781526E+03  0.00000000000E+00 0. -1.
          1    1    1    2  502    0  0.43620082565E+01 -0.31285490048E+02  0.25406428748E+03  0.25602045070E+03  0.00000000000E+00 0. -1.
         22    1    3    3    0    0 -0.36646013010E+02  0.61496844187E+02 -0.11325253929E+03  0.13398107990E+03  0.00000000000E+00 0.  1.
         22    1    3    3    0    0 -0.33120444979E+02 -0.46369698841E+02 -0.25762989610E+03  0.26385654475E+03  0.00000000000E+00 0.  1.
</event>
<event>
 7    1  0.6888431E-006  0.3840633E+02  0.7818608E-02  0.1598954E+00
          2   -1    0    0  502    0  0.00000000000E+00  0.00000000000E+00  0.29168281177E+04  0.29168281177E+04  0.00000000000E+00 0. -1.
          1   -1    0    0  501    0 -0.00000000000E+00 -0.00000000000E+00 -0.71684831291E+01  0.71684831291E+01  0.00000000000E+00 0. -1.
         25    2    1    2    0    0 -0.45774375412E+02 -0.19784078917E+02  0.23762412327E+04  0.23800495607E+04  0.12500724900E+03 0.  0.
          2    1    1    2  501    0  0.24502644739E+02  0.29320819742E+02  0.68438587250E+02  0.78383227124E+02  0.00000000000E+00 0. -1.
          1    1    1    2  502    0  0.21271730673E+02 -0.95367408253E+01  0.46497981464E+03  0.46556381300E+03  0.00000000000E+00 0. -1.
         22    1    3    3    0    0 -0.72881886047E+02  0.27145923396E+02  0.16221287025E+04  0.16239920560E+04  0.00000000000E+00 0. -1.
         22    1    3    3    0    0  0.27107510635E+02 -0.46930002313E+02  0.75411253017E+03  0.75605750469E+03  0.00000000000E+00 0. -1.
</event>
<event>
 7    1  0.6888431E-006  0.1298965E+03  0.7818608E-02  0.1263979E+00
          2   -1    0    0  502    0  0.00000000000E+00  0.00000000000E+00  0.70156404245E+02  0.70156404245E+02  0.00000000000E+00 0. -1.
          1   -1    0    0  501    0 -0.00000000000E+00 -0.00000000000E+00 -0.18385103736E+04  0.18385103736E+04  0.00000000000E+00 0. -1.
         25    2    1    2    0    0  0.97171502203E+02 -0.59265944768E+02 -0.12931783849E+03  0.21284645475E+03  0.12500302755E+03 0.  0.
          2    1    1    2  501    0 -0.19978538180E+02 -0.87849948874E+02 -0.14099856424E+04  0.14128610219E+04  0.00000000000E+00 0. -1.
          1    1    1    2  502    0 -0.77192964023E+02  0.14711589364E+03 -0.22905048851E+03  0.28295930121E+03  0.00000000000E+00 0. -1.
         22    1    3    3    0    0  0.45037401178E+02  0.30952416815E+02 -0.12025968367E+02  0.55955728274E+02  0.00000000000E+00 0. -1.
         22    1    3    3    0    0  0.52134101025E+02 -0.90218361584E+02 -0.11729187012E+03  0.15689072647E+03  0.00000000000E+00 0. -1.
</event>
<event>
 7    1  0.6888431E-006  0.8597301E+02  0.7818608E-02  0.1419481E+00
          2   -1    0    0  502    0  0.00000000000E+00  0.00000000000E+00  0.47502922510E+04  0.47502922510E+04  0.00000000000E+00 0. -1.
          1   -1    0    0  501    0 -0.00000000000E+00 -0.00000000000E+00 -0.17699497040E+02  0.17699497040E+02  0.00000000000E+00 0. -1.
         25    2    1    2    0    0  0.20169534859E+02  0.61514381838E+02  0.59068834788E+03  0.60723038071E+03  0.12500072647E+03 0.  0.
          2    1    1    2  501    0  0.34758498297E+02  0.64570465533E+01  0.25890158216E+02  0.43819481359E+02  0.00000000000E+00 0. -1.
          1    1    1    2  502    0 -0.54928033157E+02 -0.67971428391E+02  0.41160142478E+04  0.41169418859E+04  0.00000000000E+00 0. -1.
         22    1    3    3    0    0  0.26214698359E+02  0.73714831725E+02  0.58821042917E+03  0.59339076148E+03  0.00000000000E+00 0.  1.
         22    1    3    3    0    0 -0.60451635000E+01 -0.12200449888E+02  0.24779187153E+01  0.13839619228E+02  0.00000000000E+00 0.  1.
</event>
<event>
 7    1  0.6888431E-006  0.1223387E+03  0.7818608E-02  0.1316609E+00
          2   -1    0    0  502    0  0.00000000000E+00  0.00000000000E+00  0.90802499880E+03  0.90802499880E+03  0.00000000000E+00 0. -1.
          1   -1    0    0  501    0 -0.00000000000E+00 -0.00000000000E+00 -0.13972221002E+04  0.13972221002E+04  0.00000000000E+00 0. -1.
         25    2    1    2    0    0  0.21990553574E+02 -0.10468696315E+03  0.52710752496E+03  0.55218675574E+03  0.12499970258E+03 0.  0.
          2    1    1    2  501    0 -0.44827303582E+02 -0.37487156385E+02 -0.13699639576E+04  0.13712096919E+04  0.00000000000E+00 0. -1.
          1    1    1    2  502    0  0.22836750008E+02  0.14217411954E+03  0.35365933122E+03  0.38185065140E+03  0.00000000000E+00 0. -1.
         22    1    3    3    0    0  0.65676371760E+02 -0.29746214999E+02  0.16926684205E+03  0.18398230060E+03  0.00000000000E+00 0. -1.
         22    1    3    3    0    0 -0.43685818186E+02 -0.74940748153E+02  0.35784068290E+03  0.36820445514E+03  0.00000000000E+00 0. -1.
</event>
<event>
 7    1  0.6888431E-006  0.1504306E+03  0.7818608E-02  0.1309707E+00
          2   -1    0    0  502    0  0.00000000000E+00  0.00000000000E+00  0.40279073582E+03  0.40279073582E+03  0.00000000000E+00 0. -1.
          1   -1    0    0  501    0 -0.00000000000E+00 -0.00000000000E+00 -0.74126949972E+03  0.74126949972E+03  0.00000000000E+00 0. -1.
         25    2    1    2    0    0  0.72132190545E+02 -0.76438303689E+02 -0.45665732759E+03  0.48498156304E+03  0.12500133782E+03 0.  0.
          2    1    1    2  501    0  0.14214807150E+02 -0.48540995876E+02 -0.25300643136E+03  0.25801268057E+03  0.00000000000E+00 0. -1.
          1    1    1    2  502    0 -0.86346997695E+02  0.12497929956E+03  0.37118499505E+03  0.40106599193E+03  0.00000000000E+00 0. -1.
         22    1    3    3    0    0  0.85033513463E+02 -0.68229303601E+02 -0.19930113147E+03  0.22717147111E+03  0.00000000000E+00 0.  1.
         22    1    3    3    0    0 -0.12901322918E+02 -0.82090000880E+01 -0.25735619612E+03  0.25781009192E+03  0.00000000000E+00 0.  1.
</event>
<event>
 7    1  0.6888431E-006  0.1905586E+03  0.7818608E-02  0.1276274E+00
          2   -1    0    0  502    0  0.00000000000E+00  0.00000000000E+00  0.22838483096E+02  0.22838483096E+02  0.00000000000E+00 0. -1.
          1   -1    0    0  501    0 -0.00000000000E+00 -0.00000000000E+00 -0.34354343814E+04  0.34354343814E+04  0.00000000000E+00 0. -1.
         25    2    1    2    0    0  0.15331940112E+03 -0.43591854648E+02 -0.11676843325E+04  0.11851239044E+04  0.12499951972E+03 0.  0.
          2    1    1    2  501    0 -0.19234964502E+03  0.81673306920E+02 -0.21723680353E+04  0.21823958843E+04  0.00000000000E+00 0. -1.
          1    1    1    2  502    0  0.39030243904E+02 -0.38081452271E+02 -0.72543530568E+02  0.90753075835E+02  0.00000000000E+00 0. -1.
         22    1    3    3    0    0  0.45132228597E+02 -0.32913467450E+02 -0.79359247571E+03  0.79555592632E+03  0.00000000000E+00 0.  1.
         22    1    3    3    0    0  0.10818717252E+03 -0.10678387198E+02 -0.37409185680E+03  0.38956797812E+03  0.00000000000E+00 0.  1.
</event>
<event>
 7    1  0.6888431E-006  0.7014600E+02  0.7818608E-02  0.1459120E+00
          2   -1    0    0  502    0  0.00000000000E+00  0.00000000000E+00  0.32939762521E+03  0.32939762521E+03  0.00000000000E+00 0. -1.
          1   -1    0    0  501    0 -0.00000000000E+00 -0.00000000000E+00 -0.12767127809E+04  0.12767127809E+04  0.00000000000E+00 0. -1.
         25    2    1    2    0    0  0.39795330088E+02 -0.75436798813E+02 -0.55553791731E+03  0.57577913467E+03  0.12499942174E+03 0.  0.
          2    1    1    2  501    0 -0.31678717692E+02  0.58266467896E+01 -0.70683731298E+03  0.70757082896E+03  0.00000000000E+00 0. -1.
          1    1    1    2  502    0 -0.81166123958E+01  0.69610152023E+02  0.31506007457E+03  0.32276044251E+03  0.00000000000E+00 0. -1.
         22    1    3    3    0    0  0.71436581681E+02 -0.82867436572E+01 -0.34831979193E+03  0.35566632224E+03  0.00000000000E+00 0. -1.
         22    1    3    3    0    0 -0.31641251593E+02 -0.67150055156E+02 -0.20721812538E+03  0.22011281243E+03  0.00000000000E+00 0. -1.
</event>
<event>
 7    1  0.6888431E-006  0.8984393E+02  0.7818608E-02  0.1377056E+00
          2   -1    0    0  502    0  0.00000000000E+00  0.00000000000E+00  0.10467643862E+04  0.10467643862E+04  0.00000000000E+00 0. -1.
          1   -1    0    0  501    0 -0.00000000000E+00 -0.00000000000E+00 -0.18366444227E+04  0.18366444227E+04  0.00000000000E+00 0. -1.
         25    2    1    2    0    0  0.98259464761E+02 -0.70960252625E+01  0.17421221794E+03  0.23596710371E+03  0.12500120465E+03 0.  0.
          2    1    1    2  501    0 -0.22564754545E+02 -0.41661258008E+02 -0.18030469026E+04  0.18036693049E+04  0.00000000000E+00 0. -1.
          1    1    1    2  502    0 -0.75694710215E+02  0.48757283270E+02  0.83895464810E+03  0.84377240024E+03  0.00000000000E+00 0. -1.
         22    1    3    3    0    0 -0.26908543739E+02  0.75514209898E+01  0.58705266930E+02  0.65018474686E+02  0.00000000000E+00 0. -1.
         22    1    3    3    0    0  0.12516800850E+03 -0.14647446252E+02  0.11550695101E+03  0.17094862902E+03  0.00000000000E+00 0. -1.
</event>
<event>
 7    1  0.6888431E-006  0.1564401E+03  0.7818608E-02  0.1348619E+00
          2   -1    0    0  502    0  0.00000000000E+00  0.00000000000E+00  0.20216932112E+04  0.20216932112E+04  0.00000000000E+00 0. -1.
          1   -1    0    0  501    0 -0.00000000000E+00 -0.00000000000E+00 -0.60341887009E+03  0.60341887009E+03  0.00000000000E+00 0. -1.
         25    2    1    2    0    0 -0.38232577549E+02  0.15193214949E+03  0.31535662932E+01  0.20044882664E+03  0.12499871634E+03 0.  0.
          2    1    1    2  501    0 -0.32304163111E+02 -0.12171270232E+02 -0.50098488347E+03  0.50217283104E+03  0.00000000000E+00 0. -1.
          1    1    1    2  502    0  0.70536740659E+02 -0.13976087926E+03  0.19161056583E+04  0.19224904236E+04  0.00000000000E+00 0. -1.
         22    1    3    3    0    0  0.18283021344E+02  0.14160735842E+03 -0.17034608529E+01  0.14279290811E+03  0.00000000000E+00 0. -1.
         22    1    3    3    0    0 -0.56515598893E+02  0.10324791071E+02  0.48570271461E+01  0.57655918530E+02  0.00000000000E+00 0. -1.
</event>
<event>
 7    1  0.6888431E-006  0.4969158E+02  0.7818608E-02  0.1492787E+00
          2   -1    0    0  502    0  0.00000000000E+00  0.00000000000E+00  0.34857155640E+03  0.34857155640E+03  0.00000000000E+00 0. -1.
          1   -1    0    0  501    0 -0.00000000000E+00 -0.00000000000E+00 -0.22850850970E+04  0.22850850970E+04  0.00000000000E+00 0. -1.
         25    2    1    2    0    0 -0.32946412479E+02 -0.65815762036E+02 -0.44102678234E+03  0.46426945561E+03  0.12499729614E+03 0.  0.
          2    1    1    2  501    0  0.31919117590E+02  0.16202791872E+02 -0.18304339858E+04  0.18307839678E+04  0.00000000000E+00 0. -1.
          1    1    1    2  502    0  0.10272948892E+01  0.49612970164E+02  0.33494722750E+03  0.33860322998E+03  0.00000000000E+00 0. -1.
         22    1    3    3    0    0 -0.56729449776E+02 -0.74755863854E+02 -0.42257127766E+03  0.43286620838E+03  0.00000000000E+00 0. -1.
         22    1    3    3    0    0  0.23783037296E+02  0.89401018184E+01 -0.18455504678E+02  0.31403247228E+02  0.00000000000E+00 0. -1.
</event>
<event>
 7    1  0.6888431E-006  0.3081336E+02  0.7818608E-02  0.1641823E+00
          2   -1    0    0  502    0  0.00000000000E+00  0.00000000000E+00  0.78610375508E+02  0.78610375508E+02  0.00000000000E+00 0. -1.
          1   -1    0    0  501    0 -0.00000000000E+00 -0.00000000000E+00 -0.17443712387E+03  0.17443712387E+03  0.00000000000E+00 0. -1.
         25    2    1    2    0    0 -0.21764847065E+01 -0.28085731833E+02  0.19420722181E+01  0.12814659673E+03  0.12499693273E+03 0.  0.
          2    1    1    2  501    0 -0.20035938960E+02  0.23923155121E+02 -0.97423639874E+02  0.10229917794E+03  0.00000000000E+00 0. -1.
          1    1    1    2  502    0  0.22212423667E+02  0.41625767115E+01 -0.34518070654E+00  0.22601724707E+02  0.00000000000E+00 0. -1.
         22    1    3    3    0    0 -0.34491072410E+02 -0.50756432600E+02  0.40050115066E+02  0.73279337082E+02  0.00000000000E+00 0. -1.
         22    1    3    3    0    0  0.32314587704E+02  0.22670700768E+02 -0.38108042848E+02  0.54867259650E+02  0.00000000000E+00 0. -1.
</event>
<event>
 7    1  0.6888431E-006  0.3868827E+02  0.7818608E-02  0.1579296E+00
          2   -1    0    0  502    0  0.00000000000E+00  0.00000000000E+00  0.94019655959E+03  0.94019655959E+03  0.00000000000E+00 0. -1.
          1   -1    0    0  501    0 -0.00000000000E+00 -0.00000000000E+00 -0.79239044911E+03  0.79239044911E+03  0.00000000000E+00 0. -1.
         25    2    1    2    0    0  0.22379149794E+02 -0.54167534679E+02  0.17878616585E+03  0.22588472299E+03  0.12499786728E+03 0.  0.
          2    1    1    2  501    0  0.34757325631E+01  0.25858376134E+02 -0.76812150435E+03  0.76856449422E+03  0.00000000000E+00 0. -1.
          1    1    1    2  502    0 -0.25854882357E+02  0.28309158545E+02  0.73714144899E+03  0.73813779148E+03  0.00000000000E+00 0. -1.
         22    1    3    3    0    0 -0.47506394669E+02 -0.36100209072E+02  0.48307828436E+02  0.76770625357E+02  0.00000000000E+00 0. -1.
         22    1    3    3    0    0  0.69885544463E+02 -0.18067325607E+02  0.13047833741E+03  0.14911409763E+03  0.00000000000E+00 0. -1.
</event>
<event>
 7    1  0.6888431E-006  0.1314013E+03  0.7818608E-02  0.1284798E+00
          2   -1    0    0  502    0  0.00000000000E+00  0.00000000000E+00  0.26132959274E+04  0.26132959274E+04  0.00000000000E+00 0. -1.
          1   -1    0    0  501    0 -0.00000000000E+00 -0.00000000000E+00 -0.52088649169E+03  0.52088649169E+03  0.00000000000E+00 0. -1.
         25    2    1    2    0    0  0.17505595893E+03  0.73055040024E+02  0.37731132225E+02  0.23028361722E+03  0.12500111357E+03 0.  0.
          2    1    1    2  501    0 -0.72522567315E+02  0.76440761682E+01 -0.41974749538E+03  0.42603510953E+03  0.00000000000E+00 0. -1.
          1    1    1    2  502    0 -0.10253339161E+03 -0.80699116192E+02  0.24744257989E+04  0.24778636923E+04  0.00000000000E+00 0. -1.
         22    1    3    3    0    0  0.61509922164E+02  0.85591103349E+02  0.47542744577E+02  0.11562707321E+03  0.00000000000E+00 0.  1.
         22    1    3    3    0    0  0.11354603676E+03 -0.12536063325E+02 -0.98116123518E+01  0.11465654401E+03  0.00000000000E+00 0.  1.
</event>
<event>
 7    1  0.6888431E-006  0.4863323E+02  0.7818608E-02  0.1532871E+00
          2   -1    0    0  502    0  0.00000000000E+00  0.00000000000E+00  0.34308707366E+03  0.34308707366E+03  0.00000000000E+00 0. -1.
          1   -1    0    0  501    0 -0.00000000000E+00 -0.00000000000E+00 -0.17713382791E+04  0.17713382791E+04  0.00000000000E+00 0. -1.
         25    2    1    2    0    0  0.71082224942E+02  0.25321311063E+02 -0.40978397446E+03  0.43501840183E+03  0.12499701080E+03 0.  0.
          2    1    1    2  501    0 -0.27659066190E+02 -0.36683891200E+01 -0.13470107291E+04  0.13472996642E+04  0.00000000000E+00 0. -1.
          1    1    1    2  502    0 -0.43423158752E+02 -0.21652921943E+02  0.32854349809E+03  0.33210728670E+03  0.00000000000E+00 0. -1.
         22    1    3    3    0    0  0.15512147407E+01  0.13333590345E+01 -0.31517517380E+03  0.31518181149E+03  0.00000000000E+00 0.  1.
         22    1    3    3    0    0  0.69531010201E+02  0.23987952029E+02 -0.94608800657E+02  0.11983659034E+03  0.00000000000E+00 0.  1.
</event>
<event>
 7    1  0.6888431E-006  0.2417671E+03  0.7818608E-02  0.1248235E+00
          2   -1    0    0  502    0  0.00000000000E+00  0.00000000000E+00  0.11214116547E+04  0.11214116547E+04  0.00000000000E+00 0. -1.
          1   -1    0    0  501    0 -0.00000000000E+00 -0.00000000000E+00 -0.11598607652E+04  0.11598607652E+04  0.00000000000E+00 0. -1.
         25    2    1    2    0    0 -0.15028800761E+03  0.15542644741E+03 -0.29568425759E+03  0.38703760063E+03  0.12500023332E+03 0.  0.
          2    1    1    2  501    0  0.23105979074E+02  0.51626364712E+02 -0.80377104897E+03  0.80575869028E+03  0.00000000000E+00 0. -1.
          1    1    1    2  502    0  0.12718202853E+03 -0.20705281212E+03  0.10610061961E+04  0.10884761290E+04  0.00000000000E+00 0. -1.
         22    1    3    3    0    0 -0.16159817577E+03  0.95595768675E+02 -0.23818037685E+03  0.30328602558E+03  0.00000000000E+00 0. -1.
         22    1    3    3    0    0  0.11310168161E+02  0.59830678737E+02 -0.57503880740E+02  0.83751575042E+02  0.00000000000E+00 0. -1.
</event>
<event>
 7    1  0.6888431E-006  0.9577759E+02  0.7818608E-02  0.1306106E+00
          2   -1    0    0  502    0  0.00000000000E+00  0.00000000000E+00  0.65336258219E+03  0.65336258219E+03  0.00000000000E+00 0. -1.
          1   -1    0    0  501    0 -0.00000000000E+00 -0.00000000000E+00 -0.13728509134E+04  0.13728509134E+04  0.00000000000E+00 0. -1.
         25    2    1    2    0    0 -0.10149134057E+02  0.15473293658E+03  0.11130851180E+03  0.22816566640E+03  0.12499879975E+03 0.  0.
          2    1    1    2  501    0  0.48435661271E+02 -0.82119282920E+02 -0.13091929996E+04  0.13126598570E+04  0.00000000000E+00 0. -1.
          1    1    1    2  502    0 -0.38286527214E+02 -0.72613653659E+02  0.47839615663E+03  0.48538797218E+03  0.00000000000E+00 0. -1.
         22    1    3    3    0    0  0.53091915005E+02  0.51063029009E+02  0.20292332179E+02  0.76406564612E+02  0.00000000000E+00 0.  1.
         22    1    3    3    0    0 -0.63241049062E+02  0.10366990757E+03  0.91016179621E+02  0.15175910179E+03  0.00000000000E+00 0.  1.
</event>
<event>
 7    1  0.6888431E-006  0.1296392E+03  0.7818608E-02  0.1280460E+00
          2   -1    0    0  502    0  0.00000000000E+00  0.00000000000E+00  0.14039688389E+03  0.14039688389E+03  0.00000000000E+00 0. -1.
          1   -1    0    0  501    0 -0.00000000000E+00 -0.00000000000E+00 -0.10634028147E+04  0.10634028147E+04  0.00000000000E+00 0. -1.
         25    2    1    2    0    0 -0.65658683322E+02 -0.19102340273E+01 -0.29433048448E+03  0.32645090784E+03  0.12500019777E+03 0.  0.
          2    1    1    2  501    0 -0.67969823398E+02  0.36217436282E+02 -0.71201525481E+03  0.71616850159E+03  0.00000000000E+00 0. -1.
          1    1    1    2  502    0  0.13362850672E+03 -0.34307202254E+02  0.83339808486E+02  0.16118028916E+03  0.00000000000E+00 0. -1.
         22    1    3    3    0    0 -0.91480201090E+02  0.10770032127E+02 -0.12826971678E+03  0.15791688012E+03  0.00000000000E+00 0.  1.
         22    1    3    3    0    0  0.25821517768E+02 -0.12680266154E+02 -0.16606076770E+03  0.16853402772E+03  0.00000000000E+00 0.  1.
</event>
<event>
 7    1  0.6888431E-006  0.4071858E+02  0.7818608E-02  0.1503553E+00
          2   -1    0    0  502    0  0.00000000000E+00  0.00000000000E+00  0.29081342980E+04  0.29081342980E+04  0.00000000000E+00 0. -1.
          1   -1    0    0  501    0 -0.00000000000E+00 -0.00000000000E+00 -0.31026728906E+03  0.31026728906E+03  0.00000000000E+00 0. -1.
         25    2    1    2    0    0 -0.27275455495E+01 -0.69880181919E+01  0.43865263496E+03  0.45617645882E+03  0.12499822210E+03 0.  0.
          2    1    1    2  501    0 -0.35812712511E+02  0.19633640080E+02 -0.29995427784E+03  0.30272198301E+03  0.00000000000E+00 0. -1.
          1    1    1    2  502    0  0.38540258061E+02 -0.12645621888E+02  0.24591686519E+04  0.24595031453E+04  0.00000000000E+00 0. -1.
         22    1    3    3    0    0  0.46478046569E+02 -0.42798617400E+02  0.19207003802E+03  0.20219502953E+03  0.00000000000E+00 0.  1.
         22    1    3    3    0    0 -0.49205592118E+02  0.35810599209E+02  0.24658259694E+03  0.25398142929E+03  0.00000000000E+00 0.  1.
</event>
<event>
 7    1  0.6888431E-006  0.1124459E+03  0.7818608E-02  0.1390845E+00
          2   -1    0    0  502    0  0.00000000000E+00  0.00000000000E+00  0.76424333564E+03  0.76424333564E+03  0.00000000000E+00 0. -1.
          1   -1    0    0  501    0 -0.00000000000E+00 -0.00000000000E+00 -0.72711352682E+03  0.72711352682E+03  0.00000000000E+00 0. -1.
         25    2    1    2    0    0  0.62475398384E+02  0.76095210634E+02  0.23747599775E+03  0.28585836270E+03  0.12500599000E+03 0.  0.
          2    1    1    2  501    0  0.32890570646E+02 -0.80103058314E+01 -0.69567525502E+03  0.69649839561E+03  0.00000000000E+00 0. -1.
          1    1    1    2  502    0 -0.95365969030E+02 -0.68084904803E+02  0.49532906609E+03  0.50900010415E+03  0.00000000000E+00 0. -1.
         22    1    3    3    0    0  0.49934046776E+02  0.26138298523E+02  0.16166737795E+02  0.58634316642E+02  0.00000000000E+00 0. -1.
         22    1    3    3    0    0  0.12541351608E+02  0.49956912111E+02  0.22130925995E+03  0.22722404606E+03  0.00000000000E+00 0. -1.
</event>
<event>
 7    1  0.6888431E-006  0.2578169E+03  0.7818608E-02  0.1221308E+00
          2   -1    0    0  502    0  0.00000000000E+00  0.00000000000E+00  0.42770708721E+03  0.42770708721E+03  0.00000000000E+00 0. -1.
          1   -1    0    0  501    0 -0.00000000000E+00 -0.00000000000E+00 -0.19107348179E+04  0.19107348179E+04  0.00000000000E+00 0. -1.
         25    2    1    2    0    0  0.35485518990E+01  0.32181559542E+03  0.65167623300E+02  0.35135348200E+03  0.12499832204E+03 0.  0.
          2    1    1    2  501    0 -0.21019615451E+02 -0.25414703293E+03 -0.17526053600E+04  0.17710612882E+04  0.00000000000E+00 0. -1.
          1    1    1    2  502    0  0.17471063552E+02 -0.67668562492E+02  0.20441000608E+03  0.21602713486E+03  0.00000000000E+00 0. -1.
         22    1    3    3    0    0  0.59640455177E+02  0.21174141307E+03  0.24751781926E+02  0.22136860800E+03  0.00000000000E+00 0. -1.
         22    1    3    3    0    0 -0.56091903278E+02  0.11007418235E+03  0.40415841374E+02  0.12998487400E+03  0.00000000000E+00 0. -1.
</event>
<event>
 7    1  0.8810138E-006  0.7396903E+02  0.7818608E-02  0.1394165E+00
          2   -1    0    0  502    0  0.00000000000E+00  0.00000000000E+00  0.27317519539E+04  0.27317519539E+04  0.00000000000E+00 0. -1.
          1   -1    0    0  501    0 -0.00000000000E+00 -0.00000000000E+00 -0.59924226053E+03  0.59924226053E+03  0.00000000000E+00 0. -1.
         25    2    1    2    0    0 -0.23258971034E+02 -0.76521741243E+01 -0.23696275354E+03  0.26902825155E+03  0.12500127226E+03 0.  0.
          2    1    1    2  501    0 -0.42147998487E+02 -0.27105327257E+02 -0.34392560924E+03  0.34755715678E+03  0.00000000000E+00 0. -1.
          1    1    1    2  502    0  0.65406969520E+02  0.34757501382E+02  0.27133980561E+04  0.27144088061E+04  0.00000000000E+00 0. -1.
         22    1    3    3    0    0  0.33256229318E+02  0.26555260445E+02 -0.30783243510E+02  0.52523963358E+02  0.00000000000E+00 0. -1.
         22    1    3    3    0    0 -0.56515200352E+02 -0.34207434569E+02 -0.20617951003E+03  0.21650428819E+03  0.00000000000E+00 0. -1.
</event>
<event>
 7    1  0.6888431E-006  0.1452442E+03  0.7818608E-02  0.1260690E+00
          2   -1    0    0  502    0  0.00000000000E+00  0.00000000000E+00  0.56912367985E+03  0.56912367985E+03  0.00000000000E+00 0. -1.
          1   -1    0    0  501    0 -0.00000000000E+00 -0.00000000000E+00 -0.45032922773E+03  0.45032922773E+03  0.00000000000E+00 0. -1.
         25    2    1    2    0    0 -0.42787404378E+02 -0.52881197484E+02  0.17941681656E+03  0.22900111324E+03  0.12499573103E+03 0.  0.
          2    1    1    2  501    0  0.80005327129E+02  0.12730327612E+03 -0.40717534257E+03  0.43404923232E+03  0.00000000000E+00 0. -1.
          1    1    1    2  502    0 -0.37217922751E+02 -0.74422078637E+02  0.34655297813E+03  0.35640256202E+03  0.00000000000E+00 0. -1.
         22    1    3    3    0    0 -0.70722950649E+01 -0.89760595887E+02  0.12651471466E+03  0.15528346646E+03  0.00000000000E+00 0.  1.
         22    1    3    3    0    0 -0.35715109313E+02  0.36879398403E+02  0.52902101902E+02  0.73717646772E+02  0.00000000000E+00 0.  1.
</event>
<event>
 7    1  0.6888431E-006  0.6298911E+02  0.7818608E-02  0.1446220E+00
          2   -1    0    0  502    0  0.00000000000E+00  0.00000000000E+00  0.12191140625E+03  0.12191140625E+03  0.00000000000E+00 0. -1.
          1   -1    0    0  501    0 -0.00000000000E+00 -0.00000000000E+00 -0.52533838556E+03  0.52533838556E+03  0.00000000000E+00 0. -1.
         25    2    1    2    0    0 -0.49589583327E+02  0.84655542257E+02 -0.10969394637E+03  0.19308865599E+03  0.12499911836E+03 0.  0.
          2    1    1    2  501    0  0.21425855752E+02 -0.57057249007E+02 -0.36642707444E+03  0.37146116599E+03  0.00000000000E+00 0. -1.
          1    1    1    2  502    0  0.28163727574E+02 -0.27598293250E+02  0.72694041501E+02  0.82699969836E+02  0.00000000000E+00 0. -1.
         22    1    3    3    0    0  0.62762663491E+01  0.16456413539E+02  0.25920213192E+02  0.31337876728E+02  0.00000000000E+00 0. -1.
         22    1    3    3    0    0 -0.55865849676E+02  0.68199128718E+02 -0.13561415956E+03  0.16175077926E+03  0.00000000000E+00 0. -1.
</event>
<event>
 7    1  0.6888431E-006  0.5671589E+02  0.7818608E-02  0.1484467E+00
          2   -1    0    0  502    0  0.00000000000E+00  0.00000000000E+00  0.13962163573E+03  0.13962163573E+03  0.00000000000E+00 0. -1.
          1   -1    0    0  501    0 -0.00000000000E+00 -0.00000000000E+00 -0.55956308878E+03  0.55956308878E+03  0.00000000000E+00 0. -1.
         25    2    1    2    0    0 -0.22825680200E+02 -0.23678194982E+02 -0.28515314478E+03  0.31307994792E+03  0.12500027688E+03 0.  0.
          2    1    1    2  501    0 -0.32291461708E+02  0.78753297487E+01 -0.25276058750E+03  0.25493660763E+03  0.00000000000E+00 0. -1.
          1    1    1    2  502    0  0.55117141908E+02  0.15802865234E+02  0.11797227923E+03  0.13116816896E+03  0.00000000000E+00 0. -1.
         22    1    3    3    0    0 -0.26013200209E+02  0.49349429740E+02 -0.13529078814E+03  0.14634086974E+03  0.00000000000E+00 0. -1.
         22    1    3    3    0    0  0.31875200088E+01 -0.73027624722E+02 -0.14986235664E+03  0.16673907819E+03  0.00000000000E+00 0. -1.
</event>
<event>
 7    1  0.6888431E-006  0.1182550E+03  0.7818608E-02  0.1297959E+00
          2   -1    0    0  502    0  0.00000000000E+00  0.00000000000E+00  0.83041179489E+03  0.83041179489E+03  0.00000000000E+00 0. -1.
          1   -1    0    0  501    0 -0.00000000000E+00 -0.00000000000E+00 -0.93461015661E+03  0.93461015661E+03  0.00000000000E+00 0. -1.
         25    2    1    2    0    0 -0.64367154227E+02  0.14147348611E+03  0.41120470244E+03  0.45702457607E+03  0.12499711199E+03 0.  0.
          2    1    1    2  501    0  0.91166644190E+02 -0.75019680163E+02 -0.90459352662E+03  0.91226572764E+03  0.00000000000E+00 0. -1.
          1    1    1    2  502    0 -0.26799489963E+02 -0.66453805946E+02  0.38919046247E+03  0.39573164779E+03  0.00000000000E+00 0. -1.
         22    1    3    3    0    0 -0.22054121488E+02 -0.20975862349E+02  0.47000618738E+02  0.55994903676E+02  0.00000000000E+00 0. -1.
         22    1    3    3    0    0 -0.42313032739E+02  0.16244934846E+03  0.36420408370E+03  0.40102967239E+03  0.00000000000E+00 0. -1.
</event>
<event>
 7    1  0.6888431E-006  0.7045190E+02  0.7818608E-02  0.1364757E+00
          2   -1    0    0  502    0  0.00000000000E+00  0.00000000000E+00  0.13437288989E+03  0.13437288989E+03  0.00000000000E+00 0. -1.
          1   -1    0    0  501    0 -0.00000000000E+00 -0.00000000000E+00 -0.20718334367E+04  0.20718334367E+04  0.00000000000E+00 0. -1.
         25    2    1    2    0    0 -0.45339040235E+02  0.12711681261E+03 -0.13766476537E+03  0.22976641166E+03  0.12500681456E+03 0.  0.
          2    1    1    2  501    0  0.13640809633E+02 -0.68217084164E+02 -0.18747157474E+04  0.18760060703E+04  0.00000000000E+00 0. -1.
          1    1    1    2  502    0  0.31698230603E+02 -0.58899728443E+02  0.74919965997E+02  0.10043384459E+03  0.00000000000E+00 0. -1.
         22    1    3    3    0    0  0.28473785223E+02  0.70924619300E+02 -0.10812523261E+03  0.13240892717E+03  0.00000000000E+00 0. -1.
         22    1    3    3    0    0 -0.73812825458E+02  0.56192193308E+02 -0.29539532766E+02  0.97357484494E+02  0.00000000000E+00 0. -1.
</event>
<event>
 7    1  0.6888431E-006  0.6103387E+02  0.7818608E-02  0.1434128E+00
          2   -1    0    0  502    0  0.00000000000E+00  0.00000000000E+00  0.42938683614E+02  0.42938683614E+02  0.00000000000E+00 0. -1.
          1   -1    0    0  501    0 -0.00000000000E+00 -0.00000000000E+00 -0.16135678197E+04  0.16135678197E+04  0.00000000000E+00 0. -1.
         25    2    1    2    0    0  0.39261522426E+02 -0.47628126679E+01 -0.24888266027E+03  0.28130209184E+03  0.12499654699E+03 0.  0.
          2    1    1    2  501    0  0.14989741153E+02  0.41944520872E+02 -0.13070548346E+04  0.13078135861E+04  0.00000000000E+00 0. -1.
          1    1    1    2  502    0 -0.54251263579E+02 -0.37181708204E+02 -0.14691641144E+02  0.67390825372E+02  0.00000000000E+00 0. -1.
         22    1    3    3    0    0 -0.13292021241E+02 -0.12672081660E+02 -0.22009667035E+03  0.22086150362E+03  0.00000000000E+00 0. -1.
         22    1    3    3    0    0  0.52553543667E+02  0.79092689919E+01 -0.28785989923E+02  0.60440588215E+02  0.00000000000E+00 0. -1.
</event>
<event>
 7    1  0.6888431E-006  0.8535601E+02  0.7818608E-02  0.1361679E+00
          2   -1    0    0  502    0  0.00000000000E+00  0.00000000000E+00  0.29229754681E+03  0.29229754681E+03  0.00000000000E+00 0. -1.
          1   -1    0    0  501    0 -0.00000000000E+00 -0.00000000000E+00 -0.10191089022E+04  0.10191089022E+04  0.00000000000E+00 0. -1.
         25    2    1    2    0    0  0.31301956126E+02  0.23313621679E+02 -0.67354071520E+02  0.14725582739E+03  0.12499748132E+03 0.  0.
          2    1    1    2  501    0 -0.87058464160E+02 -0.13304506422E+02 -0.90646359931E+03  0.91073181724E+03  0.00000000000E+00 0. -1.
          1    1    1    2  502    0  0.55756508034E+02 -0.10009115257E+02  0.24700631540E+03  0.25341880440E+03  0.00000000000E+00 0. -1.
         22    1    3    3    0    0  0.72101712364E+02 -0.12698984588E+02 -0.22088833276E+02  0.76471155941E+02  0.00000000000E+00 0.  1.
         22    1    3    3    0    0 -0.40799756238E+02  0.36012606267E+02 -0.45265238243E+02  0.70784671451E+02  0.00000000000E+00 0.  1.
</event>
<event>
 7    1  0.6888431E-006  0.3689294E+02  0.7818608E-02  0.1546864E+00
          2   -1    0    0  502    0  0.00000000000E+00  0.00000000000E+00  0.20422842788E+04  0.20422842788E+04  0.00000000000E+00 0. -1.
          1   -1    0    0  501    0 -0.00000000000E+00 -0.00000000000E+00 -0.81696186417E+01  0.81696186417E+01  0.00000000000E+00 0. -1.
         25    2    1    2    0    0 -0.49776781428E+02 -0.28690441607E+02  0.93885135651E+03  0.94887698002E+03  0.12499913678E+03 0.  0.
          2    1    1    2  501    0  0.35369054589E+02 -0.16390199981E+01  0.10625975180E+03  0.11200353236E+03  0.00000000000E+00 0. -1.
          1    1    1    2  502    0  0.14407726839E+02  0.30329461605E+02  0.98900355182E+03  0.98957338502E+03  0.00000000000E+00 0. -1.
         22    1    3    3    0    0 -0.35306947419E+02 -0.78191088140E+02  0.56091800960E+03  0.56744113377E+03  0.00000000000E+00 0.  1.
         22    1    3    3    0    0 -0.14469834009E+02  0.49500646534E+02  0.37793334690E+03  0.38143584625E+03  0.00000000000E+00 0.  1.
</event>
<event>
 7    1  0.6888431E-006  0.7909508E+02  0.7818608E-02  0.1370108E+00
          2   -1    0    0  502    0  0.00000000000E+00  0.00000000000E+00  0.68046675690E+02  0.68046675690E+02  0.00000000000E+00 0. -1.
          1   -1    0    0  501    0 -0.00000000000E+00 -0.00000000000E+00 -0.12351417209E+04  0.12351417209E+04  0.00000000000E+00 0. -1.
         25    2    1    2    0    0 -0.87747002785E+02 -0.57462204866E+02 -0.24839798879E+03  0.29719795975E+03  0.12499449972E+03 0.  0.
          2    1    1    2  501    0  0.32473182869E+02  0.71330201738E+02 -0.94139329049E+03  0.94465011124E+03  0.00000000000E+00 0. -1.
          1    1    1    2  502    0  0.55273819916E+02 -0.13867996872E+02  0.22696234061E+02  0.61340325609E+02  0.00000000000E+00 0. -1.
         22    1    3    3    0    0  0.14994671284E+02  0.24442698156E+02 -0.69910813816E+02  0.75563268514E+02  0.00000000000E+00 0.  1.
         22    1    3    3    0    0 -0.10274167407E+03 -0.81904903022E+02 -0.17848717497E+03  0.22163469123E+03  0.00000000000E+00 0.  1.
</event>
<event>
 7    1  0.6888431E-006  0.1582599E+03  0.7818608E-02  0.1222042E+00
          2   -1    0    0  502    0  0.00000000000E+00  0.00000000000E+00  0.23523298150E+04  0.23523298150E+04  0.00000000000E+00 0. -1.
          1   -1    0    0  501    0 -0.00000000000E+00 -0.00000000000E+00 -0.82771380492E+03  0.82771380492E+03  0.00000000000E+00 0. -1.
         25    2    1    2    0    0  0.20049463596E+03  0.11060934330E+03  0.76070006458E+03  0.80418805914E+03  0.12498528050E+03 0.  0.
          2    1    1    2  501    0 -0.89217632359E+02 -0.13015561249E+03 -0.79618367550E+03  0.81167032379E+03  0.00000000000E+00 0. -1.
          1    1    1    2  502    0 -0.11127700360E+03  0.19546269191E+02  0.15600996210E+04  0.15641852370E+04  0.00000000000E+00 0. -1.
         22    1    3    3    0    0  0.12846527902E+03  0.17173338169E+02  0.26988339052E+03  0.29939154286E+03  0.00000000000E+00 0.  1.
         22    1    3    3    0    0  0.72029356940E+02  0.93436005132E+02  0.49081667405E+03  0.50479651628E+03  0.00000000000E+00 0.  1.
</event>
<event>
 7    1  0.6888431E-006  0.4242933E+02  0.7818608E-02  0.1524678E+00
          2   -1    0    0  502    0  0.00000000000E+00  0.00000000000E+00  0.13486918771E+04  0.13486918771E+04  0.00000000000E+00 0. -1.
          1   -1    0    0  501    0 -0.00000000000E+00 -0.00000000000E+00 -0.27809395023E+03  0.27809395023E+03  0.00000000000E+00 0. -1.
         25    2    1    2    0    0  0.15900721453E+02 -0.26448484267E+02  0.12292164509E+03  0.17800813245E+03  0.12499923650E+03 0.  0.
          2    1    1    2  501    0 -0.42357406367E+02  0.54772069250E+01 -0.24849067303E+03  0.25213441703E+03  0.00000000000E+00 0. -1.
          1    1    1    2  502    0  0.26456684914E+02  0.20971277342E+02  0.11961669548E+04  0.11966432778E+04  0.00000000000E+00 0. -1.
         22    1    3    3    0    0  0.14619924315E+02 -0.37054168284E+02 -0.12820427480E+02  0.41846349123E+02  0.00000000000E+00 0. -1.
         22    1    3    3    0    0  0.12807971383E+01  0.10605684017E+02  0.13574207257E+03  0.13616178333E+03  0.00000000000E+00 0. -1.
</event>
<event>
 7    1  0.6888431E-006  0.4120099E+02  0.7818608E-02  0.1575213E+00
          2   -1    0    0  502    0  0.00000000000E+00  0.00000000000E+00  0.14720045877E+04  0.14720045877E+04  0.00000000000E+00 0. -1.
          1   -1    0    0  501    0 -0.00000000000E+00 -0.00000000000E+00 -0.81648528526E+03  0.81648528526E+03  0.00000000000E+00 0. -1.
         25    2    1    2    0    0  0.39331870345E+02  0.49347706214E+02 -0.27529147973E+03  0.30885940157E+03  0.12500615584E+03 0.  0.
          2    1    1    2  501    0 -0.18060228032E+02 -0.35971855858E+02 -0.52352878983E+03  0.52507384245E+03  0.00000000000E+00 0. -1.
          1    1    1    2  502    0 -0.21271642314E+02 -0.13375850356E+02  0.14543395720E+04  0.14545566290E+04  0.00000000000E+00 0. -1.
         22    1    3    3    0    0  0.85761454981E+01 -0.24818770164E+02 -0.18967857918E+03  0.19148755840E+03  0.00000000000E+00 0.  1.
         22    1    3    3    0    0  0.30755724847E+02  0.74166476378E+02 -0.85612900549E+02  0.11737184317E+03  0.00000000000E+00 0.  1.
</event>
<event>
 7    1  0.7167848E-006  0.8908640E+02  0.7818608E-02  0.1306015E+00
          2   -1    0    0  502    0  0.00000000000E+00  0.00000000000E+00  0.98725734073E+03  0.98725734073E+03  0.00000000000E+00 0. -1.
          1   -1    0    0  501    0 -0.00000000000E+00 -0.00000000000E+00 -0.25271684705E+04  0.25271684705E+04  0.00000000000E+00 0. -1.
         25    2    1    2    0    0 -0.37879182644E+02  0.55107992817E+01 -0.75129525502E+03  0.76258440476E+03  0.12500085113E+03 0.  0.
          2    1    1    2  501    0  0.79514170255E+02  0.72389062706E+02 -0.17666035514E+04  0.17698730993E+04  0.00000000000E+00 0. -1.
          1    1    1    2  502    0 -0.41634987612E+02 -0.77899861987E+02  0.97798767665E+03  0.98196830721E+03  0.00000000000E+00 0. -1.
         22    1    3    3    0    0 -0.15171673043E+01 -0.56095361681E+02 -0.41405248707E+03  0.41783783152E+03  0.00000000000E+00 0.  1.
         22    1    3    3    0    0 -0.36362015339E+02  0.61606160963E+02 -0.33724276795E+03  0.34474657324E+03  0.00000000000E+00 0.  1.
</event>
<event>
 7    1  0.6888431E-006  0.1297053E+03  0.7818608E-02  0.1282085E+00
          2   -1    0    0  502    0  0.00000000000E+00  0.00000000000E+00  0.73026622808E+03  0.73026622808E+03  0.00000000000E+00 0. -1.
          1   -1    0    0  501    0 -0.00000000000E+00 -0.00000000000E+00 -0.19265098271E+04  0.19265098271E+04  0.00000000000E+00 0. -1.
         25    2    1    2    0    0  0.65137687918E+02 -0.36482037646E+02 -0.19513273608E+03  0.24346658196E+03  0.12500133752E+03 0.  0.
          2    1    1    2  501    0  0.34545327260E+01 -0.75719983470E+02 -0.17002353118E+04  0.17019240774E+04  0.00000000000E+00 0. -1.
          1    1    1    2  502    0 -0.68592220644E+02  0.11220202112E+03  0.69912444891E+03  0.71138539579E+03  0.00000000000E+00 0. -1.
         22    1    3    3    0    0  0.65490161192E+02  0.33947559588E+02 -0.82924893681E+02  0.11098619737E+03  0.00000000000E+00 0.  1.
         22    1    3    3    0    0 -0.35247327425E+00 -0.70429597233E+02 -0.11220784240E+03  0.13248038458E+03  0.00000000000E+00 0.  1.
</event>
<event>
 7    1  0.6888431E-006  0.1633506E+03  0.7818608E-02  0.1310903E+00
          2   -1    0    0  502    0  0.00000000000E+00  0.00000000000E+00  0.98858118971E+03  0.98858118971E+03  0.00000000000E+00 0. -1.
          1   -1    0    0  501    0 -0.00000000000E+00 -0.00000000000E+00 -0.82676660812E+03  0.82676660812E+03  0.00000000000E+00 0. -1.
         25    2    1    2    0    0 -0.14212547193E+03  0.89677912441E+01  0.13212424644E+03  0.23100230449E+03  0.12500070852E+03 0.  0.
          2    1    1    2  501    0 -0.22683187161E+02 -0.40106395876E+02 -0.76791491557E+03  0.76929602074E+03  0.00000000000E+00 0. -1.
          1    1    1    2  502    0  0.16480865909E+03  0.31138604632E+02  0.79760525072E+03  0.81504947260E+03  0.00000000000E+00 0. -1.
         22    1    3    3    0    0 -0.21866680324E+02 -0.50710368941E+02  0.37403755565E+02  0.66698831751E+02  0.00000000000E+00 0. -1.
         22    1    3    3    0    0 -0.12025879160E+03  0.59678160185E+02  0.94720490880E+02  0.16430347274E+03  0.00000000000E+00 0. -1.
</event>
<event>
 7    1  0.6888431E-006  0.7031579E+02  0.7818608E-02  0.1479173E+00
          2   -1    0    0  502    0  0.00000000000E+00  0.00000000000E+00  0.13209138949E+04  0.13209138949E+04  0.00000000000E+00 0. -1.
          1   -1    0    0  501    0 -0.00000000000E+00 -0.00000000000E+00 -0.52503158046E+03  0.52503158046E+03  0.00000000000E+00 0. -1.
         25    2    1    2    0    0 -0.41848492509E+02 -0.77082828611E+02 -0.11549455409E+02  0.15313833083E+03  0.12499959862E+03 0.  0.
          2    1    1    2  501    0  0.26450753926E+02  0.86466617463E+01 -0.44126500910E+03  0.44214162369E+03  0.00000000000E+00 0. -1.
          1    1    1    2  502    0  0.15397738583E+02  0.68436166865E+02  0.12486967789E+04  0.12506655208E+04  0.00000000000E+00 0. -1.
         22    1    3    3    0    0 -0.45556164026E+02 -0.56173916059E+02  0.50068223149E+02  0.87964196668E+02  0.00000000000E+00 0. -1.
         22    1    3    3    0    0  0.37076715171E+01 -0.20908912552E+02 -0.61617678559E+02  0.65174134157E+02  0.00000000000E+00 0. -1.
</event>
<event>
 7    1  0.6888431E-006  0.1108750E+03  0.7818608E-02  0.1267502E+00
          2   -1    0    0  502    0  0.00000000000E+00  0.00000000000E+00  0.17928780817E+04  0.17928780817E+04  0.00000000000E+00 0. -1.
          1   -1    0    0  501    0 -0.00000000000E+00 -0.00000000000E+00 -0.22378306443E+03  0.22378306443E+03  0.00000000000E+00 0. -1.
         25    2    1    2    0    0  0.81649348676E+02 -0.71449740936E+02  0.51880939100E+03  0.54457276345E+03  0.12499851551E+03 0.  0.
          2    1    1    2  501    0 -0.10897751562E+03 -0.26810868025E+02 -0.19373540483E+03  0.22389356543E+03  0.00000000000E+00 0. -1.
          1    1    1    2  502    0  0.27328166943E+02  0.98260608961E+02  0.12440210311E+04  0.12481948173E+04  0.00000000000E+00 0. -1.
         22    1    3    3    0    0  0.49171984315E+01 -0.45676212675E+02  0.38823831705E+03  0.39094690952E+03  0.00000000000E+00 0. -1.
         22    1    3    3    0    0  0.76732150244E+02 -0.25773528261E+02  0.13057107396E+03  0.15362585393E+03  0.00000000000E+00 0. -1.
</event>
<event>
 7    1  0.6888431E-006  0.1696706E+03  0.7818608E-02  0.1180808E+00
          2   -1    0    0  502    0  0.00000000000E+00  0.00000000000E+00  0.34210546393E+03  0.34210546393E+03  0.00000000000E+00 0. -1.
          1   -1    0    0  501    0 -0.00000000000E+00 -0.00000000000E+00 -0.46591810762E+03  0.46591810762E+03  0.00000000000E+00 0. -1.
         25    2    1    2    0    0  0.75000159503E+01  0.22268024878E+03  0.57409827014E+02  0.26184127702E+03  0.12498889021E+03 0.  0.
          2    1    1    2  501    0 -0.12929405540E+03 -0.11173528103E+03 -0.29849985101E+03  0.34395332073E+03  0.00000000000E+00 0. -1.
          1    1    1    2  502    0  0.12179403945E+03 -0.11094496776E+03  0.11727738030E+03  0.20222897380E+03  0.00000000000E+00 0. -1.
         22    1    3    3    0    0  0.47107665351E+02  0.12966474283E+03 -0.13110372510E+02  0.13857835162E+03  0.00000000000E+00 0. -1.
         22    1    3    3    0    0 -0.39607649401E+02  0.93015505950E+02  0.70520199524E+02  0.12326292540E+03  0.00000000000E+00 0. -1.
</event>
<event>
 7    1  0.6888431E-006  0.4910473E+02  0.7818608E-02  0.1580076E+00
          2   -1    0    0  502    0  0.00000000000E+00  0.00000000000E+00  0.17869588703E+04  0.17869588703E+04  0.00000000000E+00 0. -1.
          1   -1    0    0  501    0 -0.00000000000E+00 -0.00000000000E+00 -0.50006767968E+03  0.50006767968E+03  0.00000000000E+00 0. -1.
         25    2    1    2    0    0  0.66443457301E+02  0.12413834431E+02  0.32530848711E+03  0.35499310308E+03  0.12500262054E+03 0.  0.
          2    1    1    2  501    0 -0.20267569811E+02  0.27816541389E+01 -0.48460116894E+03  0.48503278747E+03  0.00000000000E+00 0. -1.
          1    1    1    2  502    0 -0.46175887490E+02 -0.15195488570E+02  0.14461838725E+04  0.14470006595E+04  0.00000000000E+00 0. -1.
         22    1    3    3    0    0  0.87800554107E+02  0.47371656698E+02  0.25174360021E+03  0.27079115829E+03  0.00000000000E+00 0. -1.
         22    1    3    3    0    0 -0.21357096806E+02 -0.34957822267E+02  0.73564886896E+02  0.84201944786E+02  0.00000000000E+00 0. -1.
</event>
<event>
 7    1  0.6888431E-006  0.1216798E+03  0.7818608E-02  0.1362075E+00
          2   -1    0    0  502    0  0.00000000000E+00  0.00000000000E+00  0.14760927734E+04  0.14760927734E+04  0.00000000000E+00 0. -1.
          1   -1    0    0  501    0 -0.00000000000E+00 -0.00000000000E+00 -0.30785413198E+03  0.30785413198E+03  0.00000000000E+00 0. -1.
         25    2    1    2    0    0  0.67945013066E+01  0.15586918986E+03  0.28795297192E+03  0.35054550015E+03  0.12499545607E+03 0.  0.
          2    1    1    2  501    0 -0.20216781493E+02 -0.11860751292E+03 -0.26311247495E+03  0.28931753291E+03  0.00000000000E+00 0. -1.
          1    1    1    2  502    0  0.13422280186E+02 -0.37261676943E+02  0.11433981445E+04  0.11440838723E+04  0.00000000000E+00 0. -1.
         22    1    3    3    0    0  0.57749217250E+02  0.67333368312E+02  0.82695778909E+02  0.12127384891E+03  0.00000000000E+00 0.  1.
         22    1    3    3    0    0 -0.50954715943E+02  0.88535821548E+02  0.20525719302E+03  0.22927165123E+03  0.00000000000E+00 0.  1.
</event>
<event>
 7    1  0.6888431E-006  0.5114694E+02  0.7818608E-02  0.1461108E+00
          2   -1    0    0  502    0  0.00000000000E+00  0.00000000000E+00  0.71188208923E+03  0.71188208923E+03  0.00000000000E+00 0. -1.
          1   -1    0    0  501    0 -0.00000000000E+00 -0.00000000000E+00 -0.50211295636E+03  0.50211295636E+03  0.00000000000E+00 0. -1.
         25    2    1    2    0    0 -0.82336840260E+02 -0.25270057684E+02  0.18781487961E+02  0.15295697306E+03  0.12500064095E+03 0.  0.
          2    1    1    2  501    0  0.39309524713E+02  0.31941142748E+02 -0.43278940692E+03  0.43574321116E+03  0.00000000000E+00 0. -1.
          1    1    1    2  502    0  0.43027315547E+02 -0.66710850639E+01  0.62377705183E+03  0.62529486136E+03  0.00000000000E+00 0. -1.
         22    1    3    3    0    0 -0.54652211900E+02 -0.75896691912E+02  0.18040940763E+02  0.95250446993E+02  0.00000000000E+00 0. -1.
         22    1    3    3    0    0 -0.27684628360E+02  0.50626634228E+02  0.74054719749E+00  0.57706526068E+02  0.00000000000E+00 0. -1.
</event>
<event>
 7    1  0.6888431E-006  0.9411792E+02  0.7818608E-02  0.1330562E+00
          2   -1    0    0  502    0  0.00000000000E+00  0.00000000000E+00  0.42272130018E+03  0.42272130018E+03  0.00000000000E+00 0. -1.
          1   -1    0    0  501    0 -0.00000000000E+00 -0.00000000000E+00 -0.20495410121E+04  0.20495410121E+04  0.00000000000E+00 0. -1.
         25    2    1    2    0    0 -0.41920789318E+02 -0.78177575087E+02  0.21323357414E+03  0.26260786477E+03  0.12500099068E+03 0.  0.
          2    1    1    2  501    0 -0.55664279840E+02  0.37472516886E+02 -0.20091236914E+04  0.20102439427E+04  0.00000000000E+00 0. -1.
          1    1    1    2  502    0  0.97585069158E+02  0.40705058201E+02  0.16907040535E+03  0.19941050487E+03  0.00000000000E+00 0. -1.
         22    1    3    3    0    0 -0.79075036368E+02 -0.55643832205E+02  0.19034338927E+03  0.21349403570E+03  0.00000000000E+00 0. -1.
         22    1    3    3    0    0  0.37154247050E+02 -0.22533742882E+02  0.22890184869E+02  0.49113829065E+02  0.00000000000E+00 0. -1.
</event>
<event>
 7    1  0.6888431E-006  0.1573284E+03  0.7818608E-02  0.1215034E+00
          2   -1    0    0  502    0  0.00000000000E+00  0.00000000000E+00  0.37449166445E+03  0.37449166445E+03  0.00000000000E+00 0. -1.
          1   -1    0    0  501    0 -0.00000000000E+00 -0.00000000000E+00 -0.19939165433E+04  0.19939165433E+04  0.00000000000E+00 0. -1.
         25    2    1    2    0    0 -0.40529419293E+02  0.26660065280E+03 -0.17823734617E+03  0.34657284607E+03  0.12500257663E+03 0.  0.
          2    1    1    2  501    0 -0.46098018563E+01 -0.15288293819E+03 -0.17150650179E+04  0.17218717893E+04  0.00000000000E+00 0. -1.
          1    1    1    2  502    0  0.45139221150E+02 -0.11371771461E+03  0.27387748518E+03  0.29996357244E+03  0.00000000000E+00 0. -1.
         22    1    3    3    0    0 -0.45183068021E+02  0.18711482536E+03 -0.55611485122E+02  0.20036492902E+03  0.00000000000E+00 0. -1.
         22    1    3    3    0    0  0.46536487280E+01  0.79485827446E+02 -0.12262586105E+03  0.14620791705E+03  0.00000000000E+00 0. -1.
</event>
<event>
 7    1  0.6888431E-006  0.2265885E+03  0.7818608E-02  0.1295867E+00
          2   -1    0    0  502    0  0.00000000000E+00  0.00000000000E+00  0.38424364412E+03  0.38424364412E+03  0.00000000000E+00 0. -1.
          1   -1    0    0  501    0 -0.00000000000E+00 -0.00000000000E+00 -0.14249358766E+04  0.14249358766E+04  0.00000000000E+00 0. -1.
         25    2    1    2    0    0 -0.12435151171E+03  0.15054253778E+03 -0.70709262279E+02  0.24238955119E+03  0.12500616228E+03 0.  0.
          2    1    1    2  501    0  0.13416706181E+03 -0.18738485050E+03 -0.12566450272E+04  0.12776034623E+04  0.00000000000E+00 0. -1.
          1    1    1    2  502    0 -0.98155501031E+01  0.36842312728E+02  0.28666205697E+03  0.28918650718E+03  0.00000000000E+00 0. -1.
         22    1    3    3    0    0 -0.11133121610E+03  0.17123969392E+03 -0.74961737865E+02  0.21757052786E+03  0.00000000000E+00 0.  1.
         22    1    3    3    0    0 -0.13020295610E+02 -0.20697156142E+02  0.42524755862E+01  0.24819023324E+02  0.00000000000E+00 0.  1.
</event>
<event>
 7    1  0.6888431E-006  0.9599808E+02  0.7818608E-02  0.1358828E+00
          2   -1    0    0  502    0  0.00000000000E+00  0.00000000000E+00  0.10990574373E+03  0.10990574373E+03  0.00000000000E+00 0. -1.
          1   -1    0    0  501    0 -0.00000000000E+00 -0.00000000000E+00 -0.26671203966E+04  0.26671203966E+04  0.00000000000E+00 0. -1.
         25    2    1    2    0    0  0.59792880791E+02 -0.17791953755E+02 -0.42091975288E+03  0.44349746197E+03  0.12499927280E+03 0.  0.
          2    1    1    2  501    0  0.10993936082E+02 -0.50403450325E+02 -0.22100435669E+04  0.22106455939E+04  0.00000000000E+00 0. -1.
          1    1    1    2  502    0 -0.70786816873E+02  0.68195404080E+02  0.73748666865E+02  0.12288308445E+03  0.00000000000E+00 0. -1.
         22    1    3    3    0    0 -0.35248820089E+02  0.15736841138E+02 -0.13036877077E+03  0.13596375943E+03  0.00000000000E+00 0. -1.
         22    1    3    3    0    0  0.95041700880E+02 -0.33528794893E+02 -0.29055098211E+03  0.30753370254E+03  0.00000000000E+00 0. -1.
</event>
<event>
 7    1  0.6888431E-006  0.7233379E+02  0.7818608E-02  0.1365604E+00
          2   -1    0    0  502    0  0.00000000000E+00  0.00000000000E+00  0.12411531391E+03  0.12411531391E+03  0.00000000000E+00 0. -1.
          1   -1    0    0  501    0 -0.00000000000E+00 -0.00000000000E+00 -0.46873783913E+03  0.46873783913E+03  0.00000000000E+00 0. -1.
         25    2    1    2    0    0  0.17972361728E+02  0.24010179369E+02 -0.65325675589E+02  0.14419479992E+03  0.12500080774E+03 0.  0.
          2    1    1    2  501    0 -0.64125316379E+02  0.33468216794E+02 -0.34342090234E+03  0.35095597145E+03  0.00000000000E+00 0. -1.
          1    1    1    2  502    0  0.46152954651E+02 -0.57478396163E+02  0.64124052702E+02  0.97702381667E+02  0.00000000000E+00 0. -1.
         22    1    3    3    0    0  0.43014583133E+02  0.66484022167E+02 -0.38180079613E+02  0.87909601551E+02  0.00000000000E+00 0.  1.
         22    1    3    3    0    0 -0.25042221406E+02 -0.42473842798E+02 -0.27145595976E+02  0.56285198372E+02  0.00000000000E+00 0.  1.
</event>
<event>
 7    1  0.6888431E-006  0.8724286E+02  0.7818608E-02  0.1417350E+00
          2   -1    0    0  502    0  0.00000000000E+00  0.00000000000E+00  0.14006675964E+04  0.14006675964E+04  0.00000000000E+00 0. -1.
          1   -1    0    0  501    0 -0.00000000000E+00 -0.00000000000E+00 -0.52185445467E+02  0.52185445467E+02  0.00000000000E+00 0. -1.
         25    2    1    2    0    0  0.26549235303E+02  0.51893676544E+02  0.77921751360E+03  0.79132963490E+03  0.12499936803E+03 0.  0.
          2    1    1    2  501    0 -0.19906176430E+02 -0.86680453931E+02 -0.21984368057E+01  0.88963981915E+02  0.00000000000E+00 0. -1.
          1    1    1    2  502    0 -0.66430588728E+01  0.34786777387E+02  0.57146307412E+03  0.57255942503E+03  0.00000000000E+00 0. -1.
         22    1    3    3    0    0  0.41366522424E+02 -0.27575769720E+02  0.18208366220E+03  0.18874870144E+03  0.00000000000E+00 0.  1.
         22    1    3    3    0    0 -0.14817287121E+02  0.79469446264E+02  0.59713385140E+03  0.60258093346E+03  0.00000000000E+00 0.  1.
</event>
<event>
 7    1  0.6888431E-006  0.4351008E+02  0.7818608E-02  0.1487741E+00
          2   -1    0    0  502    0  0.00000000000E+00  0.00000000000E+00  0.16363244624E+03  0.16363244624E+03  0.00000000000E+00 0. -1.
          1   -1    0    0  501    0 -0.00000000000E+00 -0.00000000000E+00 -0.31167505497E+03  0.31167505497E+03  0.00000000000E+00 0. -1.
         25    2    1    2    0    0  0.77026515203E+00 -0.26415834330E+01  0.44947061569E+01  0.12511248936E+03  0.12500144535E+03 0.  0.
          2    1    1    2  501    0 -0.92701654525E+01 -0.42511069842E+02 -0.24399550742E+03  0.24784457764E+03  0.00000000000E+00 0. -1.
          1    1    1    2  502    0  0.84999003005E+01  0.45152653275E+02  0.91458192527E+02  0.10235043421E+03  0.00000000000E+00 0. -1.
         22    1    3    3    0    0  0.59751608008E+02 -0.20705360912E+02  0.48848679231E+01  0.63425772085E+02  0.00000000000E+00 0. -1.
         22    1    3    3    0    0 -0.58981342856E+02  0.18063777479E+02 -0.39016176623E+00  0.61686717274E+02  0.00000000000E+00 0. -1.
</event>
<event>
 7    1  0.6888431E-006  0.7014381E+02  0.7818608E-02  0.1377870E+00
          2   -1    0    0  502    0  0.00000000000E+00  0.00000000000E+00  0.17995559037E+04  0.17995559037E+04  0.00000000000E+00 0. -1.
          1   -1    0    0  501    0 -0.00000000000E+00 -0.00000000000E+00 -0.54502046780E+02  0.54502046780E+02  0.00000000000E+00 0. -1.
         25    2    1    2    0    0 -0.30110645345E+02 -0.26480791281E+02  0.33017976761E+03  0.35532088554E+03  0.12500547785E+03 0.  0.
          2    1    1    2  501    0 -0.65195497546E+01  0.74358958763E+02 -0.75600435373E+01  0.75026085701E+02  0.00000000000E+00 0. -1.
          1    1    1    2  502    0  0.36630195100E+02 -0.47878167482E+02  0.14224341328E+04  0.14237109792E+04  0.00000000000E+00 0. -1.
         22    1    3    3    0    0 -0.63355131930E+02 -0.69128648428E+01  0.29900877441E+03  0.30572521587E+03  0.00000000000E+00 0.  1.
         22    1    3    3    0    0  0.33244486584E+02 -0.19567926438E+02  0.31170993197E+02  0.49595669672E+02  0.00000000000E+00 0.  1.
</event>
<event>
 7    1  0.6888431E-006  0.9285740E+02  0.7818608E-02  0.1390766E+00
          2   -1    0    0  502    0  0.00000000000E+00  0.00000000000E+00  0.97006473239E+03  0.97006473239E+03  0.00000000000E+00 0. -1.
          1   -1    0    0  501    0 -0.00000000000E+00 -0.00000000000E+00 -0.11647918679E+04  0.11647918679E+04  0.00000000000E+00 0. -1.
         25    2    1    2    0    0  0.19675897399E+02 -0.78351312931E+02 -0.31396597566E+02  0.15211411549E+03  0.12500755423E+03 0.  0.
          2    1    1    2  501    0  0.40436359705E+02  0.68905888364E+01 -0.10702461734E+04  0.10710319561E+04  0.00000000000E+00 0. -1.
          1    1    1    2  502    0 -0.60112257104E+02  0.71460724094E+02  0.90691563537E+03  0.91171052874E+03  0.00000000000E+00 0. -1.
         22    1    3    3    0    0  0.97182680484E+00 -0.85391907475E+02  0.27661843679E+02  0.89765805880E+02  0.00000000000E+00 0. -1.
         22    1    3    3    0    0  0.18704070594E+02  0.70405945444E+01 -0.59058441246E+02  0.62348309606E+02  0.00000000000E+00 0. -1.
</event>
<event>
 7    1  0.6888431E-006  0.1122434E+03  0.7818608E-02  0.1271953E+00
          2   -1    0    0  502    0  0.00000000000E+00  0.00000000000E+00  0.85548399482E+03  0.85548399482E+03  0.00000000000E+00 0. -1.
          1   -1    0    0  501    0 -0.00000000000E+00 -0.00000000000E+00 -0.22408057974E+04  0.22408057974E+04  0.00000000000E+00 0. -1.
         25    2    1    2    0    0  0.37437942142E+01 -0.16111310032E+02 -0.10381098086E+04  0.10457392861E+04  0.12500035819E+03 0.  0.
          2    1    1    2  501    0  0.44772393254E+02 -0.85486323988E+02 -0.11932038515E+04  0.11970997912E+04  0.00000000000E+00 0. -1.
          1    1    1    2  502    0 -0.48516187468E+02  0.10159763402E+03  0.84599185755E+03  0.85345071488E+03  0.00000000000E+00 0. -1.
         22    1    3    3    0    0 -0.46351587754E+02 -0.40382561300E+02 -0.73453862805E+03  0.73710665242E+03  0.00000000000E+00 0. -1.
         22    1    3    3    0    0  0.50095381968E+02  0.24271251268E+02 -0.30357118056E+03  0.30863263372E+03  0.00000000000E+00 0. -1.
</event>
<event>
 7    1  0.6888431E-006  0.5478594E+02  0.7818608E-02  0.1487978E+00
          2   -1    0    0  502    0  0.00000000000E+00  0.00000000000E+00  0.90352024850E+03  0.90352024850E+03  0.00000000000E+00 0. -1.
          1   -1    0    0  501    0 -0.00000000000E+00 -0.00000000000E+00 -0.36037689802E+02  0.36037689802E+02  0.00000000000E+00 0. -1.
         25    2    1    2    0    0 -0.72020590794E+02  0.71207168007E+01  0.45963285129E+03  0.48179394449E+03  0.12500150740E+03 0.  0.
          2    1    1    2  501    0  0.22172962004E+02 -0.25209187568E+02 -0.11185150640E+02  0.35387158359E+02  0.00000000000E+00 0. -1.
          1    1    1    2  502    0  0.49847628790E+02  0.18088470767E+02  0.41903485805E+03  0.42237683545E+03  0.00000000000E+00 0. -1.
         22    1    3    3    0    0 -0.80281370860E+02  0.65239160113E+01  0.13605079727E+03  0.15810591205E+03  0.00000000000E+00 0.  1.
         22    1    3    3    0    0  0.82607800666E+01  0.59680078945E+00  0.32358205403E+03  0.32368803244E+03  0.00000000000E+00 0.  1.
</event>
<event>
 7    1  0.6888431E-006  0.1266973E+03  0.7818608E-02  0.1253132E+00
          2   -1    0    0  502    0  0.00000000000E+00  0.00000000000E+00  0.19080465205E+04  0.19080465205E+04  0.00000000000E+00 0. -1.
          1   -1    0    0  501    0 -0.00000000000E+00 -0.00000000000E+00 -0.13075279818E+04  0.13075279818E+04  0.00000000000E+00 0. -1.
         25    2    1    2    0    0  0.20073736603E+03  0.10252355252E+03  0.60147274666E+03  0.65436637482E+03  0.12497727223E+03 0.  0.
          2    1    1    2  501    0 -0.12012461167E+03 -0.38756347648E+02 -0.12758988127E+04  0.12821270441E+04  0.00000000000E+00 0. -1.
          1    1    1    2  502    0 -0.80612754358E+02 -0.63767204869E+02  0.12749446048E+04  0.12790810834E+04  0.00000000000E+00 0. -1.
         22    1    3    3    0    0  0.12063436931E+03  0.53308958789E+01  0.20025168688E+03  0.23384141551E+03  0.00000000000E+00 0. -1.
         22    1    3    3    0    0  0.80102996718E+02  0.97192656639E+02  0.40122105978E+03  0.42052495931E+03  0.00000000000E+00 0. -1.
</event>
<event>
 7    1  0.6888431E-006  0.4616523E+02  0.7818608E-02  0.1482088E+00
          2   -1    0    0  502    0  0.00000000000E+00  0.00000000000E+00  0.14288079959E+02  0.14288079959E+02  0.00000000000E+00 0. -1.
          1   -1    0    0  501    0 -0.00000000000E+00 -0.00000000000E+00 -0.14380249298E+04  0.14380249298E+04  0.00000000000E+00 0. -1.
         25    2    1    2    0    0 -0.82504206785E+02  0.17808601902E+02 -0.81070656178E+03  0.82461164094E+03  0.12496054826E+03 0.  0.
          2    1    1    2  501    0  0.40655956264E+02 -0.84412316582E+01 -0.54941326897E+03  0.55098012786E+03  0.00000000000E+00 0. -1.
          1    1    1    2  502    0  0.41848250521E+02 -0.93673702438E+01 -0.63617019095E+02  0.76721240966E+02  0.00000000000E+00 0. -1.
         22    1    3    3    0    0 -0.19971910449E+02  0.19303241905E+01 -0.66450286041E+03  0.66480572715E+03  0.00000000000E+00 0. -1.
         22    1    3    3    0    0 -0.62532296336E+02  0.15878277712E+02 -0.14620370137E+03  0.15980591379E+03  0.00000000000E+00 0. -1.
</event>
<event>
 7    1  0.6888431E-006  0.1130447E+03  0.7818608E-02  0.1262624E+00
          2   -1    0    0  502    0  0.00000000000E+00  0.00000000000E+00  0.11062526104E+04  0.11062526104E+04  0.00000000000E+00 0. -1.
          1   -1    0    0  501    0 -0.00000000000E+00 -0.00000000000E+00 -0.21992375689E+03  0.21992375689E+03  0.00000000000E+00 0. -1.
         25    2    1    2    0    0  0.14776621770E+03 -0.52693403231E+01  0.20483099275E+03  0.28185800531E+03  0.12500231408E+03 0.  0.
          2    1    1    2  501    0 -0.64717863947E+02  0.82561868872E+02 -0.16212314006E+03  0.19310302081E+03  0.00000000000E+00 0. -1.
          1    1    1    2  502    0 -0.83048353755E+02 -0.77292528549E+02  0.84362100080E+03  0.85121534116E+03  0.00000000000E+00 0. -1.
         22    1    3    3    0    0  0.15905915340E+03  0.21187284636E+02  0.19236908401E+03  0.25050864215E+03  0.00000000000E+00 0.  1.
         22    1    3    3    0    0 -0.11292935697E+02 -0.26456624959E+02  0.12461908743E+02  0.31349363158E+02  0.00000000000E+00 0.  1.
</event>
<event>
 7    1  0.6888431E-006  0.8475908E+02  0.7818608E-02  0.1319660E+00
          2   -1    0    0  502    0  0.00000000000E+00  0.00000000000E+00  0.89290151949E+03  0.89290151949E+03  0.00000000000E+00 0. -1.
          1   -1    0    0  501    0 -0.00000000000E+00 -0.00000000000E+00 -0.45403831926E+03  0.45403831926E+03  0.00000000000E+00 0. -1.
         25    2    1    2    0    0  0.47987089643E+02  0.46340146434E+02  0.97726493496E+02  0.17211987477E+03  0.12499845526E+03 0.  0.
          2    1    1    2  501    0 -0.77668304321E+02  0.33937226069E+02 -0.41007771014E+03  0.41874554226E+03  0.00000000000E+00 0. -1.
          1    1    1    2  502    0  0.29681214678E+02 -0.80277372503E+02  0.75121441688E+03  0.75607442172E+03  0.00000000000E+00 0. -1.
         22    1    3    3    0    0  0.44063022343E+02 -0.69552991314E+01 -0.15248888324E+02  0.47142918016E+02  0.00000000000E+00 0.  1.
         22    1    3    3    0    0  0.39240672998E+01  0.53295445565E+02  0.11297538182E+03  0.12497695675E+03  0.00000000000E+00 0.  1.
</event>
<event>
 7    1  0.6888431E-006  0.2534887E+02  0.7818608E-02  0.1663238E+00
          2   -1    0    0  502    0  0.00000000000E+00  0.00000000000E+00  0.62193930746E+03  0.62193930746E+03  0.00000000000E+00 0. -1.
          1   -1    0    0  501    0 -0.00000000000E+00 -0.00000000000E+00 -0.10965258050E+03  0.10965258050E+03  0.00000000000E+00 0. -1.
         25    2    1    2    0    0 -0.43206683999E+02 -0.17243840911E+02  0.58455711287E+01  0.13350380749E+03  0.12499971328E+03 0.  0.
          2    1    1    2  501    0  0.24347424335E+02  0.43157558405E+00 -0.42276987490E+02  0.48788594983E+02  0.00000000000E+00 0. -1.
          1    1    1    2  502    0  0.18859259664E+02  0.16812265327E+02  0.54871814332E+03  0.54929948548E+03  0.00000000000E+00 0. -1.
         22    1    3    3    0    0  0.28516618379E+02 -0.30830883142E+02 -0.30551827376E+02  0.51934141325E+02  0.00000000000E+00 0.  1.
         22    1    3    3    0    0 -0.71723302378E+02  0.13587042231E+02  0.36397398505E+02  0.81569666166E+02  0.00000000000E+00 0.  1.
</event>
<event>
 7    1  0.6888431E-006  0.9216527E+02  0.7818608E-02  0.1362745E+00
          2   -1    0    0  502    0  0.00000000000E+00  0.00000000000E+00  0.26067015416E+03  0.26067015416E+03  0.00000000000E+00 0. -1.
          1   -1    0    0  501    0 -0.00000000000E+00 -0.00000000000E+00 -0.15492804767E+03  0.15492804767E+03  0.00000000000E+00 0. -1.
         25    2    1    2    0    0  0.10270365991E+03 -0.35393862489E+02  0.13997447628E+03  0.21683823899E+03  0.12500080246E+03 0.  0.
          2    1    1    2  501    0 -0.17617502371E+02  0.48920621259E+02 -0.84350003801E+02  0.99088479226E+02  0.00000000000E+00 0. -1.
          1    1    1    2  502    0 -0.85086157536E+02 -0.13526758769E+02  0.50117634006E+02  0.99671483612E+02  0.00000000000E+00 0. -1.
         22    1    3    3    0    0  0.96716377897E+02 -0.52754053807E+02  0.43197790767E+02  0.11833468246E+03  0.00000000000E+00 0.  1.
         22    1    3    3    0    0  0.59872820097E+01  0.17360191318E+02  0.96776685516E+02  0.98503556524E+02  0.00000000000E+00 0.  1.
</event>
<event>
 7    1  0.6888431E-006  0.2421734E+02  0.7818608E-02  0.1685665E+00
          2   -1    0    0  502    0  0.00000000000E+00  0.00000000000E+00  0.22810411328E+03  0.22810411328E+03  0.00000000000E+00 0. -1.
          1   -1    0    0  501    0 -0.00000000000E+00 -0.00000000000E+00 -0.58038768181E+03  0.58038768181E+03  0.00000000000E+00 0. -1.
         25    2    1    2    0    0 -0.41860201251E+00 -0.17210459605E+02  0.14672734247E+03  0.19351884663E+03  0.12499702327E+03 0.  0.
          2    1    1    2  501    0  0.22863388967E+02  0.79840538121E+01 -0.55417667781E+03  0.55470557045E+03  0.00000000000E+00 0. -1.
          1    1    1    2  502    0 -0.22444786955E+02  0.92264057933E+01  0.55165766802E+02  0.60267378010E+02  0.00000000000E+00 0. -1.
         22    1    3    3    0    0  0.89145845910E+01 -0.19789042287E+01 -0.22014932630E+02  0.23833655596E+02  0.00000000000E+00 0.  1.
         22    1    3    3    0    0 -0.93331866035E+01 -0.15231555377E+02  0.16874227510E+03  0.16968519104E+03  0.00000000000E+00 0.  1.
</event>
<event>
 7    1  0.6888431E-006  0.8716691E+02  0.7818608E-02  0.1395600E+00
          2   -1    0    0  502    0  0.00000000000E+00  0.00000000000E+00  0.88356330023E+02  0.88356330023E+02  0.00000000000E+00 0. -1.
          1   -1    0    0  501    0 -0.00000000000E+00 -0.00000000000E+00 -0.48960725731E+03  0.48960725731E+03  0.00000000000E+00 0. -1.
         25    2    1    2    0    0 -0.47353327843E+02 -0.91979600718E+02 -0.98686253083E+02  0.18991192090E+03  0.12499990619E+03 0.  0.
          2    1    1    2  501    0  0.66571470174E+02  0.54589476852E+02 -0.32786908229E+03  0.33898363787E+03  0.00000000000E+00 0. -1.
          1    1    1    2  502    0 -0.19218142330E+02  0.37390123867E+02  0.25304408090E+02  0.49068028554E+02  0.00000000000E+00 0. -1.
         22    1    3    3    0    0 -0.70080557695E+01 -0.10189235702E+03 -0.10658827661E+03  0.14762190208E+03  0.00000000000E+00 0. -1.
         22    1    3    3    0    0 -0.40345272074E+02  0.99127562994E+01  0.79020235227E+01  0.42290018821E+02  0.00000000000E+00 0. -1.
</event>
<event>
 7    1  0.6888431E-006  0.1423405E+03  0.7818608E-02  0.1387408E+00
          2   -1    0    0  502    0  0.00000000000E+00  0.00000000000E+00  0.30514920773E+03  0.30514920773E+03  0.00000000000E+00 0. -1.
          1   -1    0    0  501    0 -0.00000000000E+00 -0.00000000000E+00 -0.15090940345E+04  0.15090940345E+04  0.00000000000E+00 0. -1.
         25    2    1    2    0    0 -0.90680544326E+02  0.91582725029E+02 -0.21980170070E+03  0.28381352572E+03  0.12500789218E+03 0.  0.
          2    1    1    2  501    0 -0.26192967282E+02 -0.83518955361E+01 -0.12382808327E+04  0.12385859867E+04  0.00000000000E+00 0. -1.
          1    1    1    2  502    0  0.11687351161E+03 -0.83230829493E+02  0.25413770667E+03  0.29184372983E+03  0.00000000000E+00 0. -1.
         22    1    3    3    0    0  0.98190011020E+01  0.73634141088E+02 -0.11941852159E+03  0.14063848269E+03  0.00000000000E+00 0. -1.
         22    1    3    3    0    0 -0.10049954543E+03  0.17948583941E+02 -0.10038317912E+03  0.14317504303E+03  0.00000000000E+00 0. -1.
</event>
<event>
 7    1  0.6888431E-006  0.9113776E+02  0.7818608E-02  0.1475787E+00
          2   -1    0    0  502    0  0.00000000000E+00  0.00000000000E+00  0.72870059143E+03  0.72870059143E+03  0.00000000000E+00 0. -1.
          1   -1    0    0  501    0 -0.00000000000E+00 -0.00000000000E+00 -0.70012296860E+03  0.70012296860E+03  0.00000000000E+00 0. -1.
         25    2    1    2    0    0 -0.22007966190E+02 -0.10040994958E+03  0.12000185248E+02  0.16228087387E+03  0.12499827610E+03 0.  0.
          2    1    1    2  501    0 -0.13850840966E+02  0.17082043357E+02 -0.62158040157E+03  0.62196932209E+03  0.00000000000E+00 0. -1.
          1    1    1    2  502    0  0.35858807156E+02  0.83327906227E+02  0.63815783915E+03  0.64457336408E+03  0.00000000000E+00 0. -1.
         22    1    3    3    0    0 -0.54884295048E+02 -0.93728238354E+02 -0.25904983830E+02  0.11166170649E+03  0.00000000000E+00 0. -1.
         22    1    3    3    0    0  0.32876328858E+02 -0.66817112298E+01  0.37905169078E+02  0.50619167387E+02  0.00000000000E+00 0. -1.
</event>
<event>
 7    1  0.6888431E-006  0.4507776E+02  0.7818608E-02  0.1515109E+00
          2   -1    0    0  502    0  0.00000000000E+00  0.00000000000E+00  0.18226601753E+04  0.18226601753E+04  0.00000000000E+00 0. -1.
          1   -1    0    0  501    0 -0.00000000000E+00 -0.00000000000E+00 -0.12923036699E+02  0.12923036699E+02  0.00000000000E+00 0. -1.
         25    2    1    2    0    0  0.30484294527E+02  0.38358671759E+02  0.67836819780E+03  0.69152851724E+03  0.12501039337E+03 0.  0.
          2    1    1    2  501    0  0.14494251761E+02 -0.30619181054E+02  0.43056782872E+02  0.54785984831E+02  0.00000000000E+00 0. -1.
          1    1    1    2  502    0 -0.44978546288E+02 -0.77394907048E+01  0.10883121579E+04  0.10892687099E+04  0.00000000000E+00 0. -1.
         22    1    3    3    0    0  0.56400319765E+02 -0.28029785221E+01  0.13988767701E+03  0.15085560957E+03  0.00000000000E+00 0.  1.
         22    1    3    3    0    0 -0.25916025238E+02  0.41161650281E+02  0.53848052079E+03  0.54067290767E+03  0.00000000000E+00 0.  1.
</event>
<event>
 7    1  0.6888431E-006  0.1795934E+03  0.7818608E-02  0.1321770E+00
          2   -1    0    0  502    0  0.00000000000E+00  0.00000000000E+00  0.48827098638E+03  0.48827098638E+03  0.00000000000E+00 0. -1.
          1   -1    0    0  501    0 -0.00000000000E+00 -0.00000000000E+00 -0.76240857051E+03  0.76240857051E+03  0.00000000000E+00 0. -1.
         25    2    1    2    0    0 -0.71616525972E+02 -0.13624858306E+03  0.11857072603E+02  0.19864572655E+03  0.12500772506E+03 0.  0.
          2    1    1    2  501    0  0.54406296764E+01 -0.37619271792E+02 -0.64583268143E+03  0.64695027820E+03  0.00000000000E+00 0. -1.
          1    1    1    2  502    0  0.66175896295E+02  0.17386785486E+03  0.35983802470E+03  0.40508355215E+03  0.00000000000E+00 0. -1.
         22    1    3    3    0    0 -0.10012806540E+03 -0.59657057839E+02  0.58768728845E+01  0.11670103541E+03  0.00000000000E+00 0.  1.
         22    1    3    3    0    0  0.28511539427E+02 -0.76591525225E+02  0.59801997181E+01  0.81944691137E+02  0.00000000000E+00 0.  1.
</event>
<event>
 7    1  0.6888431E-006  0.8276757E+02  0.7818608E-02  0.1340620E+00
          2   -1    0    0  502    0  0.00000000000E+00  0.00000000000E+00  0.10406625059E+04  0.10406625059E+04  0.00000000000E+00 0. -1.
          1   -1    0    0  501    0 -0.00000000000E+00 -0.00000000000E+00 -0.10731565715E+03  0.10731565715E+03  0.00000000000E+00 0. -1.
         25    2    1    2    0    0 -0.10955249107E+03  0.17265082513E+02  0.29671169669E+03  0.34053269060E+03  0.12499940416E+03 0.  0.
          2    1    1    2  501    0  0.55208066834E+02 -0.61220430819E+02 -0.63357818416E+02  0.10397155836E+03  0.00000000000E+00 0. -1.
          1    1    1    2  502    0  0.54344424236E+02  0.43955348307E+02  0.69999297049E+03  0.70347391411E+03  0.00000000000E+00 0. -1.
         22    1    3    3    0    0 -0.12728538158E+03 -0.69749903769E+01  0.27609635053E+03  0.30410428085E+03  0.00000000000E+00 0.  1.
         22    1    3    3    0    0  0.17732890514E+02  0.24240072890E+02  0.20615346161E+02  0.36428409751E+02  0.00000000000E+00 0.  1.
</event>
<event>
 7    1  0.6888431E-006  0.1031012E+03  0.7818608E-02  0.1441687E+00
          2   -1    0    0  502    0  0.00000000000E+00  0.00000000000E+00  0.35692873477E+03  0.35692873477E+03  0.00000000000E+00 0. -1.
          1   -1    0    0  501    0 -0.00000000000E+00 -0.00000000000E+00 -0.14335510384E+04  0.14335510384E+04  0.00000000000E+00 0. -1.
         25    2    1    2    0    0 -0.32857777694E+02  0.87435972588E+02 -0.15316435856E+03  0.21865309933E+03  0.12500069701E+03 0.  0.
          2    1    1    2  501    0 -0.24878382191E+02 -0.13673307453E+01 -0.12392305738E+04  0.12394810279E+04  0.00000000000E+00 0. -1.
          1    1    1    2  502    0  0.57736159885E+02 -0.86068641843E+02  0.31577262877E+03  0.33234564590E+03  0.00000000000E+00 0. -1.
         22    1    3    3    0    0 -0.19589344571E+02  0.11471303479E+03 -0.14735863574E+03  0.18776951376E+03  0.00000000000E+00 0. -1.
         22    1    3    3    0    0 -0.13268433123E+02 -0.27277062200E+02 -0.58057228210E+01  0.30883585563E+02  0.00000000000E+00 0. -1.
</event>
<event>
 7    1  0.6888431E-006  0.4536917E+02  0.7818608E-02  0.1577538E+00
          2   -1    0    0  502    0  0.00000000000E+00  0.00000000000E+00  0.26921021309E+03  0.26921021309E+03  0.00000000000E+00 0. -1.
          1   -1    0    0  501    0 -0.00000000000E+00 -0.00000000000E+00 -0.12928614800E+04  0.12928614800E+04  0.00000000000E+00 0. -1.
         25    2    1    2    0    0  0.25083042908E+02  0.20123960949E+02 -0.41776572793E+03  0.43724789868E+03  0.12499355432E+03 0.  0.
          2    1    1    2  501    0 -0.67416133318E+01  0.21458120061E+02 -0.86321695194E+03  0.86350993416E+03  0.00000000000E+00 0. -1.
          1    1    1    2  502    0 -0.18341429577E+02 -0.41582081010E+02  0.25733141292E+03  0.26131386028E+03  0.00000000000E+00 0. -1.
         22    1    3    3    0    0 -0.28949188258E+02 -0.38426642466E+02 -0.12851774573E+03  0.13722781540E+03  0.00000000000E+00 0. -1.
         22    1    3    3    0    0  0.54032231167E+02  0.58550603415E+02 -0.28924798220E+03  0.30002008328E+03  0.00000000000E+00 0. -1.
</event>
<event>
 7    1  0.6888431E-006  0.2512930E+03  0.7818608E-02  0.1265132E+00
          2   -1    0    0  502    0  0.00000000000E+00  0.00000000000E+00  0.19934451600E+04  0.19934451600E+04  0.00000000000E+00 0. -1.
          1   -1    0    0  501    0 -0.00000000000E+00 -0.00000000000E+00 -0.15167002399E+03  0.15167002399E+03  0.00000000000E+00 0. -1.
         25    2    1    2    0    0 -0.21330141102E+03  0.39493011448E+02  0.53941093607E+03  0.59468163620E+03  0.12499960230E+03 0.  0.
          2    1    1    2  501    0  0.25807582039E+03 -0.28732079105E+02  0.12734926989E+02  0.25998238364E+03  0.00000000000E+00 0. -1.
          1    1    1    2  502    0 -0.44774409365E+02 -0.10760932343E+02  0.12896292730E+04  0.12904511642E+04  0.00000000000E+00 0. -1.
         22    1    3    3    0    0 -0.72090361411E+02 -0.43885959594E+02  0.14928877949E+03  0.17149384053E+03  0.00000000000E+00 0.  1.
         22    1    3    3    0    0 -0.14121104961E+03  0.83378971042E+02  0.39012215658E+03  0.42318779566E+03  0.00000000000E+00 0.  1.
</event>
<event>
 7    1  0.6888431E-006  0.1780201E+03  0.7818608E-02  0.1294075E+00
          2   -1    0    0  502    0  0.00000000000E+00  0.00000000000E+00  0.71916731569E+03  0.71916731569E+03  0.00000000000E+00 0. -1.
          1   -1    0    0  501    0 -0.00000000000E+00 -0.00000000000E+00 -0.25147765830E+03  0.25147765830E+03  0.00000000000E+00 0. -1.
         25    2    1    2    0    0 -0.55569652123E+02 -0.20628460654E+03  0.63434617804E+02  0.25552056299E+03  0.12500192895E+03 0.  0.
          2    1    1    2  501    0  0.35617793149E+02  0.34150295901E+02 -0.13762896538E+03  0.14620739383E+03  0.00000000000E+00 0. -1.
          1    1    1    2  502    0  0.19951858974E+02  0.17213431064E+03  0.54188400498E+03  0.56891701717E+03  0.00000000000E+00 0. -1.
         22    1    3    3    0    0 -0.36570085743E+02 -0.21400337459E+03  0.34158522873E+02  0.21977629579E+03  0.00000000000E+00 0.  1.
         22    1    3    3    0    0 -0.18999566381E+02  0.77187680522E+01  0.29276094931E+02  0.35744267195E+02  0.00000000000E+00 0.  1.
</event>
<event>
 7    1  0.6888431E-006  0.3426987E+02  0.7818608E-02  0.1638532E+00
          2   -1    0    0  502    0  0.00000000000E+00  0.00000000000E+00  0.10492109344E+04  0.10492109344E+04  0.00000000000E+00 0. -1.
          1   -1    0    0  501    0 -0.00000000000E+00 -0.00000000000E+00 -0.99936520482E+03  0.99936520482E+03  0.00000000000E+00 0. -1.
         25    2    1    2    0    0 -0.12295460483E+02  0.52846800206E+02 -0.28159470185E+03  0.31283255108E+03  0.12499866506E+03 0.  0.
          2    1    1    2  501    0  0.47435083045E+00 -0.20700185101E+02 -0.70171507464E+03  0.70202049020E+03  0.00000000000E+00 0. -1.
          1    1    1    2  502    0  0.11821109653E+02 -0.32146615104E+02  0.10331555061E+04  0.10337230980E+04  0.00000000000E+00 0. -1.
         22    1    3    3    0    0  0.47681684691E+02  0.35263265900E+02 -0.20794777122E+03  0.21623902639E+03  0.00000000000E+00 0. -1.
         22    1    3    3    0    0 -0.59977145174E+02  0.17583534306E+02 -0.73646930622E+02  0.96593524690E+02  0.00000000000E+00 0. -1.
</event>
<event>
 7    1  0.6888431E-006  0.8044339E+02  0.7818608E-02  0.1431035E+00
          2   -1    0    0  502    0  0.00000000000E+00  0.00000000000E+00  0.36005685025E+03  0.36005685025E+03  0.00000000000E+00 0. -1.
          1   -1    0    0  501    0 -0.00000000000E+00 -0.00000000000E+00 -0.66767288877E+03  0.66767288877E+03  0.00000000000E+00 0. -1.
         25    2    1    2    0    0 -0.71311715280E+02 -0.82114269887E+02 -0.22806198584E+03  0.28189744716E+03  0.12500314908E+03 0.  0.
          2    1    1    2  501    0  0.58220656965E+02  0.50092834819E+02 -0.40820401030E+03  0.41536664650E+03  0.00000000000E+00 0. -1.
          1    1    1    2  502    0  0.13091058315E+02  0.32021435067E+02  0.32864995763E+03  0.33046564535E+03  0.00000000000E+00 0. -1.
         22    1    3    3    0    0 -0.62803189812E+02 -0.72997888577E+02 -0.24361855247E+03  0.26195978985E+03  0.00000000000E+00 0. -1.
         22    1    3    3    0    0 -0.85085254685E+01 -0.91163813093E+01  0.15556566636E+02  0.19937657318E+02  0.00000000000E+00 0. -1.
</event>
<event>
 7    1  0.6888431E-006  0.8317639E+02  0.7818608E-02  0.1421476E+00
          2   -1    0    0  502    0  0.00000000000E+00  0.00000000000E+00  0.28350629130E+03  0.28350629130E+03  0.00000000000E+00 0. -1.
          1   -1    0    0  501    0 -0.00000000000E+00 -0.00000000000E+00 -0.76415894170E+02  0.76415894170E+02  0.00000000000E+00 0. -1.
         25    2    1    2    0    0 -0.67771098859E+02  0.31100427493E+02  0.10975841303E+03  0.18229681141E+03  0.12500023916E+03 0.  0.
          2    1    1    2  501    0  0.58509518847E+02 -0.65873954604E+02  0.17180048910E+02  0.89765782854E+02  0.00000000000E+00 0. -1.
          1    1    1    2  502    0  0.92615800124E+01  0.34773527110E+02  0.80151935184E+02  0.87859591200E+02  0.00000000000E+00 0. -1.
         22    1    3    3    0    0 -0.87139659075E+01  0.27500884654E+02 -0.23036304718E+02  0.36917518791E+02  0.00000000000E+00 0.  1.
         22    1    3    3    0    0 -0.59057132952E+02  0.35995428387E+01  0.13279471775E+03  0.14537929262E+03  0.00000000000E+00 0.  1.
</event>
<event>
 7    1  0.6888431E-006  0.1444489E+03  0.7818608E-02  0.1325386E+00
          2   -1    0    0  502    0  0.00000000000E+00  0.00000000000E+00  0.36127170866E+03  0.36127170866E+03  0.00000000000E+00 0. -1.
          1   -1    0    0  501    0 -0.00000000000E+00 -0.00000000000E+00 -0.73088076462E+03  0.73088076462E+03  0.00000000000E+00 0. -1.
         25    2    1    2    0    0 -0.65057286414E+01 -0.15596069096E+03  0.21952310738E+03  0.29695373022E+03  0.12500024634E+03 0.  0.
          2    1    1    2  501    0  0.37974385320E+02  0.25540740518E+02 -0.64733815016E+03  0.64895382272E+03  0.00000000000E+00 0. -1.
          1    1    1    2  502    0 -0.31468656679E+02  0.13041995044E+03  0.58205986815E+02  0.14624492035E+03  0.00000000000E+00 0. -1.
         22    1    3    3    0    0  0.80095058168E+01 -0.17471250992E+03  0.18082269901E+03  0.25156601873E+03  0.00000000000E+00 0. -1.
         22    1    3    3    0    0 -0.14515234458E+02  0.18751818956E+02  0.38700408374E+02  0.45387711485E+02  0.00000000000E+00 0. -1.
</event>
<event>
 7    1  0.6888431E-006  0.5410874E+02  0.7818608E-02  0.1454926E+00
          2   -1    0    0  502    0  0.00000000000E+00  0.00000000000E+00  0.28586452672E+03  0.28586452672E+03  0.00000000000E+00 0. -1.
          1   -1    0    0  501    0 -0.00000000000E+00 -0.00000000000E+00 -0.17178553876E+04  0.17178553876E+04  0.00000000000E+00 0. -1.
         25    2    1    2    0    0  0.88139056813E+02 -0.17725889290E+02  0.66411747688E+02  0.16768272757E+03  0.12499710560E+03 0.  0.
          2    1    1    2  501    0 -0.53434574481E+02 -0.77540607549E+01 -0.16640298520E+04  0.16649056212E+04  0.00000000000E+00 0. -1.
          1    1    1    2  502    0 -0.34704482332E+02  0.25479950045E+02  0.16562724344E+03  0.17113156552E+03  0.00000000000E+00 0. -1.
         22    1    3    3    0    0 -0.13393695786E+02  0.30886574657E+02  0.39575910930E+02  0.51957908991E+02  0.00000000000E+00 0.  1.
         22    1    3    3    0    0  0.10153275260E+03 -0.48612463947E+02  0.26835836758E+02  0.11572481858E+03  0.00000000000E+00 0.  1.
</event>
<event>
 7    1  0.6888431E-006  0.4616892E+02  0.7818608E-02  0.1571890E+00
          2   -1    0    0  502    0  0.00000000000E+00  0.00000000000E+00  0.13863426769E+04  0.13863426769E+04  0.00000000000E+00 0. -1.
          1   -1    0    0  501    0 -0.00000000000E+00 -0.00000000000E+00 -0.25834074586E+02  0.25834074586E+02  0.00000000000E+00 0. -1.
         25    2    1    2    0    0 -0.12083410466E+02  0.43685074521E+02  0.92054382154E+03  0.93009689114E+03  0.12499961992E+03 0.  0.
          2    1    1    2  501    0 -0.20865649735E+02 -0.94176631839E+01 -0.13201960970E+02  0.26426492241E+02  0.00000000000E+00 0. -1.
          1    1    1    2  502    0  0.32949060201E+02 -0.34267411337E+02  0.45316674177E+03  0.45565336814E+03  0.00000000000E+00 0. -1.
         22    1    3    3    0    0 -0.16638602819E+02  0.36960159895E+02  0.92106624075E+03  0.92195765432E+03  0.00000000000E+00 0. -1.
         22    1    3    3    0    0  0.45551923527E+01  0.67249146264E+01 -0.52241920300E+00  0.81392368147E+01  0.00000000000E+00 0. -1.
</event>
<event>
 7    1  0.6888431E-006  0.1376616E+03  0.7818608E-02  0.1356444E+00
          2   -1    0    0  502    0  0.00000000000E+00  0.00000000000E+00  0.45335579748E+02  0.45335579748E+02  0.00000000000E+00 0. -1.
          1   -1    0    0  501    0 -0.00000000000E+00 -0.00000000000E+00 -0.20753526173E+04  0.20753526173E+04  0.00000000000E+00 0. -1.
         25    2    1    2    0    0  0.40803481393E+02  0.15049724963E+03 -0.13687489015E+04  0.13832615094E+04  0.12499800727E+03 0.  0.
          2    1    1    2  501    0 -0.16465455824E+02 -0.12302047019E+03 -0.68339025972E+03  0.69456993485E+03  0.00000000000E+00 0. -1.
          1    1    1    2  502    0 -0.24338025569E+02 -0.27476779438E+02  0.22122123719E+02  0.42856752732E+02  0.00000000000E+00 0. -1.
         22    1    3    3    0    0  0.46674820629E+02  0.76163445515E+02 -0.33114021673E+03  0.34297704362E+03  0.00000000000E+00 0.  1.
         22    1    3    3    0    0 -0.58713392365E+01  0.74333804117E+02 -0.10376086848E+04  0.10402844658E+04  0.00000000000E+00 0.  1.
</event>
<event>
 7    1  0.6888431E-006  0.2277045E+03  0.7818608E-02  0.1337595E+00
          2   -1    0    0  502    0  0.00000000000E+00  0.00000000000E+00  0.18039427650E+04  0.18039427650E+04  0.00000000000E+00 0. -1.
          1   -1    0    0  501    0 -0.00000000000E+00 -0.00000000000E+00 -0.28745655953E+03  0.28745655953E+03  0.00000000000E+00 0. -1.
         25    2    1    2    0    0 -0.45969939369E+02  0.19862461709E+03  0.15114026706E+04  0.15302051247E+04  0.12499886791E+03 0.  0.
          2    1    1    2  501    0  0.60485638532E+02 -0.22029380399E+03 -0.23029093616E+03  0.32437908044E+03  0.00000000000E+00 0. -1.
          1    1    1    2  502    0 -0.14515699163E+02  0.21669186908E+02  0.23537447096E+03  0.23681511937E+03  0.00000000000E+00 0. -1.
         22    1    3    3    0    0 -0.73088510830E+02  0.83334524460E+02  0.51535516257E+03  0.52714088911E+03  0.00000000000E+00 0.  1.
         22    1    3    3    0    0  0.27118571462E+02  0.11529009263E+03  0.99604750807E+03  0.10030642356E+04  0.00000000000E+00 0.  1.
</event>
<event>
 7    1  0.6888431E-006  0.9527715E+02  0.7818608E-02  0.1418430E+00
          2   -1    0    0  502    0  0.00000000000E+00  0.00000000000E+00  0.45190887689E+03  0.45190887689E+03  0.00000000000E+00 0. -1.
          1   -1    0    0  501    0 -0.00000000000E+00 -0.00000000000E+00 -0.28342089368E+04  0.28342089368E+04  0.00000000000E+00 0. -1.
         25    2    1    2    0    0  0.41942385578E+02  0.60521769680E+02  0.10488216615E+03  0.17901744791E+03  0.12499971826E+03 0.  0.
          2    1    1    2  501    0 -0.30270659935E+02 -0.90489124563E+02 -0.27954909150E+04  0.27971188838E+04  0.00000000000E+00 0. -1.
          1    1    1    2  502    0 -0.11671725643E+02  0.29967354883E+02  0.30830868888E+03  0.30998148199E+03  0.00000000000E+00 0. -1.
         22    1    3    3    0    0 -0.10841244462E+02  0.71544260260E+02  0.14541076026E+02  0.73807564989E+02  0.00000000000E+00 0. -1.
         22    1    3    3    0    0  0.52783630040E+02 -0.11022490579E+02  0.90341090125E+02  0.10520988292E+03  0.00000000000E+00 0. -1.
</event>
<event>
 7    1  0.6888431E-006  0.8445731E+02  0.7818608E-02  0.1386495E+00
          2   -1    0    0  502    0  0.00000000000E+00  0.00000000000E+00  0.16287428407E+04  0.16287428407E+04  0.00000000000E+00 0. -1.
          1   -1    0    0  501    0 -0.00000000000E+00 -0.00000000000E+00 -0.48768926773E+02  0.48768926773E+02  0.00000000000E+00 0. -1.
         25    2    1    2    0    0  0.41890255964E+02 -0.35557953474E+02  0.48430895982E+03  0.50319010602E+03  0.12500381047E+03 0.  0.
          2    1    1    2  501    0 -0.33379573704E+02  0.81452455741E+02  0.11066863115E+02  0.88719636756E+02  0.00000000000E+00 0. -1.
          1    1    1    2  502    0 -0.85106822594E+01 -0.45894502267E+02  0.10845980910E+04  0.10856020247E+04  0.00000000000E+00 0. -1.
         22    1    3    3    0    0 -0.32607400271E+02 -0.30274973877E+02  0.31517944435E+03  0.31830472623E+03  0.00000000000E+00 0.  1.
         22    1    3    3    0    0  0.74497656235E+02 -0.52829795966E+01  0.16912951547E+03  0.18488537979E+03  0.00000000000E+00 0.  1.
</event>
<event>
 7    1  0.7630159E-006  0.1374708E+03  0.7818608E-02  0.1247041E+00
          2   -1    0    0  502    0  0.00000000000E+00  0.00000000000E+00  0.97170266644E+03  0.97170266644E+03  0.00000000000E+00 0. -1.
          1   -1    0    0  501    0 -0.00000000000E+00 -0.00000000000E+00 -0.13055692138E+04  0.13055692138E+04  0.00000000000E+00 0. -1.
         25    2    1    2    0    0 -0.42263203778E+02 -0.16811598302E+02 -0.82140090912E+02  0.15634154344E+03  0.12500750153E+03 0.  0.
          2    1    1    2  501    0 -0.99492686607E+02  0.15354675329E+02 -0.11787948053E+04  0.11830856916E+04  0.00000000000E+00 0. -1.
          1    1    1    2  502    0  0.14175589039E+03  0.14569229727E+01  0.92706834883E+03  0.93784464518E+03  0.00000000000E+00 0. -1.
         22    1    3    3    0    0  0.32389832973E+02  0.30431869766E+02 -0.23147235664E+02  0.50109824349E+02  0.00000000000E+00 0. -1.
         22    1    3    3    0    0 -0.74653036751E+02 -0.47243468067E+02 -0.58992855248E+02  0.10623171909E+03  0.00000000000E+00 0. -1.
</event>
<event>
 7    1  0.6888431E-006  0.6641432E+02  0.7818608E-02  0.1376035E+00
          2   -1    0    0  502    0  0.00000000000E+00  0.00000000000E+00  0.27994070787E+04  0.27994070787E+04  0.00000000000E+00 0. -1.
          1   -1    0    0  501    0 -0.00000000000E+00 -0.00000000000E+00 -0.31876407812E+03  0.31876407812E+03  0.00000000000E+00 0. -1.
         25    2    1    2    0    0 -0.16105888406E+02 -0.68221040850E+02  0.62789246812E+03  0.64403894365E+03  0.12499479735E+03 0.  0.
          2    1    1    2  501    0  0.62418433091E+02  0.23136695935E+02 -0.30663601494E+03  0.31377860530E+03  0.00000000000E+00 0. -1.
          1    1    1    2  502    0 -0.46312544684E+02  0.45084344915E+02  0.21593865474E+04  0.21603536079E+04  0.00000000000E+00 0. -1.
         22    1    3    3    0    0 -0.60799477377E+02 -0.30646590816E+02  0.18162090638E+03  0.19396376882E+03  0.00000000000E+00 0. -1.
         22    1    3    3    0    0  0.44693588971E+02 -0.37574450034E+02  0.44627156174E+03  0.45007517484E+03  0.00000000000E+00 0. -1.
</event>
<event>
 7    1  0.6888431E-006  0.6391714E+02  0.7818608E-02  0.1399541E+00
          2   -1    0    0  502    0  0.00000000000E+00  0.00000000000E+00  0.38242706386E+03  0.38242706386E+03  0.00000000000E+00 0. -1.
          1   -1    0    0  501    0 -0.00000000000E+00 -0.00000000000E+00 -0.20739887757E+03  0.20739887757E+03  0.00000000000E+00 0. -1.
         25    2    1    2    0    0 -0.51006034693E+02 -0.64473724698E+02  0.12400997403E+03  0.19432637886E+03  0.12500316440E+03 0.  0.
          2    1    1    2  501    0 -0.45547510769E+01  0.63844599937E+02 -0.16261510897E+03  0.17475855448E+03  0.00000000000E+00 0. -1.
          1    1    1    2  502    0  0.55560785770E+02  0.62912476087E+00  0.21363332123E+03  0.22074100809E+03  0.00000000000E+00 0. -1.
         22    1    3    3    0    0 -0.81590858431E+02 -0.90171556463E+01  0.46894107908E+02  0.94538006283E+02  0.00000000000E+00 0.  1.
         22    1    3    3    0    0  0.30584823738E+02 -0.55456569051E+02  0.77115866124E+02  0.99788372580E+02  0.00000000000E+00 0.  1.
</event>
<event>
 7    1  0.6888431E-006  0.7338310E+02  0.7818608E-02  0.1431853E+00
          2   -1    0    0  502    0  0.00000000000E+00  0.00000000000E+00  0.85952194499E+03  0.85952194499E+03  0.00000000000E+00 0. -1.
          1   -1    0    0  501    0 -0.00000000000E+00 -0.00000000000E+00 -0.83810934803E+03  0.83810934803E+03  0.00000000000E+00 0. -1.
         25    2    1    2    0    0 -0.75251063182E+02  0.72134336878E+02  0.21856901543E+03  0.27251419967E+03  0.12500195778E+03 0.  0.
          2    1    1    2  501    0  0.63557533309E+02 -0.36306036449E+02 -0.80890436397E+03  0.81220930700E+03  0.00000000000E+00 0. -1.
          1    1    1    2  502    0  0.11693529873E+02 -0.35828300429E+02  0.61174794550E+03  0.61290778636E+03  0.00000000000E+00 0. -1.
         22    1    3    3    0    0 -0.87696648907E+01 -0.30691810424E+02  0.15737370798E+02  0.35588749473E+02  0.00000000000E+00 0.  1.
         22    1    3    3    0    0 -0.66481398291E+02  0.10282614730E+03  0.20283164463E+03  0.23692545020E+03  0.00000000000E+00 0.  1.
</event>
<event>
 7    1  0.6888431E-006  0.2527078E+03  0.7818608E-02  0.1129201E+00
          2   -1    0    0  502    0  0.00000000000E+00  0.00000000000E+00  0.65732409669E+03  0.65732409669E+03  0.00000000000E+00 0. -1.
          1   -1    0    0  501    0 -0.00000000000E+00 -0.00000000000E+00 -0.86417784069E+03  0.86417784069E+03  0.00000000000E+00 0. -1.
         25    2    1    2    0    0  0.15150171120E+03  0.10359763749E+03 -0.21073144899E+03  0.30613372398E+03  0.12499949749E+03 0.  0.
          2    1    1    2  501    0 -0.14879857820E+03 -0.30640787318E+03 -0.53800480247E+03  0.63676994990E+03  0.00000000000E+00 0. -1.
          1    1    1    2  502    0 -0.27031330000E+01  0.20281023569E+03  0.54188250746E+03  0.57859826349E+03  0.00000000000E+00 0. -1.
         22    1    3    3    0    0  0.87792967704E+00  0.57069150238E+02 -0.24433454853E+02  0.62085846901E+02  0.00000000000E+00 0.  1.
         22    1    3    3    0    0  0.15062378152E+03  0.46528487254E+02 -0.18629799414E+03  0.24404787708E+03  0.00000000000E+00 0.  1.
</event>
<event>
 7    1  0.6888431E-006  0.5764491E+02  0.7818608E-02  0.1479486E+00
          2   -1    0    0  502    0  0.00000000000E+00  0.00000000000E+00  0.18425202045E+04  0.18425202045E+04  0.00000000000E+00 0. -1.
          1   -1    0    0  501    0 -0.00000000000E+00 -0.00000000000E+00 -0.31355012345E+02  0.31355012345E+02  0.00000000000E+00 0. -1.
         25    2    1    2    0    0  0.28747286869E+02  0.37300461221E+01  0.51622729436E+03  0.53193565965E+03  0.12499842726E+03 0.  0.
          2    1    1    2  501    0  0.25837488854E+02  0.21899826687E+02 -0.10228527491E+02  0.35380800074E+02  0.00000000000E+00 0. -1.
          1    1    1    2  502    0 -0.54584775724E+02 -0.25629872809E+02  0.13051664253E+04  0.13065587571E+04  0.00000000000E+00 0. -1.
         22    1    3    3    0    0  0.59096791259E+02 -0.29629488669E+02  0.42563441890E+03  0.43073773446E+03  0.00000000000E+00 0.  1.
         22    1    3    3    0    0 -0.30349504390E+02  0.33359534791E+02  0.90592875457E+02  0.10119792519E+03  0.00000000000E+00 0.  1.
</event>
<event>
 7    1  0.6888431E-006  0.8985078E+02  0.7818608E-02  0.1304669E+00
          2   -1    0    0  502    0  0.00000000000E+00  0.00000000000E+00  0.62370808950E+03  0.62370808950E+03  0.00000000000E+00 0. -1.
          1   -1    0    0  501    0 -0.00000000000E+00 -0.00000000000E+00 -0.41433113192E+03  0.41433113192E+03  0.00000000000E+00 0. -1.
         25    2    1    2    0    0 -0.11837889952E+03 -0.37091841587E+02  0.97854901915E+02  0.20146826408E+03  0.12499804414E+03 0.  0.
          2    1    1    2  501    0  0.40843939331E+02  0.80091791597E+02 -0.35268971155E+03  0.36396834353E+03  0.00000000000E+00 0. -1.
          1    1    1    2  502    0  0.77534960189E+02 -0.42999950011E+02  0.46421176721E+03  0.47260261380E+03  0.00000000000E+00 0. -1.
         22    1    3    3    0    0 -0.11114322063E+03 -0.77211852956E+02  0.74325759009E+02  0.15439820006E+03  0.00000000000E+00 0. -1.
         22    1    3    3    0    0 -0.72356788880E+01  0.40120011370E+02  0.23529142906E+02  0.47070064023E+02  0.00000000000E+00 0. -1.
</event>
<event>
 7    1  0.6888431E-006  0.5039512E+02  0.7818608E-02  0.1483103E+00
          2   -1    0    0  502    0  0.00000000000E+00  0.00000000000E+00  0.18507768625E+04  0.18507768625E+04  0.00000000000E+00 0. -1.
          1   -1    0    0  501    0 -0.00000000000E+00 -0.00000000000E+00 -0.27814967486E+04  0.27814967486E+04  0.00000000000E+00 0. -1.
         25    2    1    2    0    0  0.79365348117E+00  0.12835284425E+02  0.36461545244E+03  0.38566396843E+03  0.12500757568E+03 0.  0.
          2    1    1    2  501    0 -0.10881818167E+02 -0.49229844419E+02 -0.27705014446E+04  0.27709601668E+04  0.00000000000E+00 0. -1.
          1    1    1    2  502    0  0.10088164686E+02  0.36394559995E+02  0.14751661061E+04  0.14756494758E+04  0.00000000000E+00 0. -1.
         22    1    3    3    0    0  0.12686463158E+02 -0.15497935425E+02  0.27514726229E+00  0.20030178629E+02  0.00000000000E+00 0. -1.
         22    1    3    3    0    0 -0.11892809677E+02  0.28333219849E+02  0.36434030518E+03  0.36563378980E+03  0.00000000000E+00 0. -1.
</event>
<event>
 7    1  0.6888431E-006  0.1171480E+03  0.7818608E-02  0.1368372E+00
          2   -1    0    0  502    0  0.00000000000E+00  0.00000000000E+00  0.23873588357E+03  0.23873588357E+03  0.00000000000E+00 0. -1.
          1   -1    0    0  501    0 -0.00000000000E+00 -0.00000000000E+00 -0.18900695923E+04  0.18900695923E+04  0.00000000000E+00 0. -1.
         25    2    1    2    0    0 -0.95700848625E+02 -0.68254286234E+01 -0.89820989397E+03  0.91192775609E+03  0.12500391912E+03 0.  0.
          2    1    1    2  501    0 -0.18612291037E+02  0.34310296091E+02 -0.96967954935E+03  0.97046485883E+03  0.00000000000E+00 0. -1.
          1    1    1    2  502    0  0.11431313966E+03 -0.27484867467E+02  0.21655573461E+03  0.24641286093E+03  0.00000000000E+00 0. -1.
         22    1    3    3    0    0 -0.49032955933E+02 -0.18637157190E+02 -0.10612269355E+03  0.11837905423E+03  0.00000000000E+00 0.  1.
         22    1    3    3    0    0 -0.46667892692E+02  0.11811728567E+02 -0.79208720042E+03  0.79354870185E+03  0.00000000000E+00 0.  1.
</event>
<event>
 7    1  0.6888431E-006  0.1597892E+03  0.7818608E-02  0.1392415E+00
          2   -1    0    0  502    0  0.00000000000E+00  0.00000000000E+00  0.94648266308E+03  0.94648266308E+03  0.00000000000E+00 0. -1.
          1   -1    0    0  501    0 -0.00000000000E+00 -0.00000000000E+00 -0.45478770038E+03  0.45478770038E+03  0.00000000000E+00 0. -1.
         25    2    1    2    0    0  0.11633654677E+03 -0.13881316336E+03  0.51148832127E+03  0.55682042127E+03  0.12500156924E+03 0.  0.
          2    1    1    2  501    0 -0.95977871607E+02  0.12702706858E+03 -0.41709728774E+03  0.44645019368E+03  0.00000000000E+00 0. -1.
          1    1    1    2  502    0 -0.20358675164E+02  0.11786094781E+02  0.39730392917E+03  0.39799974852E+03  0.00000000000E+00 0. -1.
         22    1    3    3    0    0  0.45679364333E+02 -0.62641454986E+02  0.74039023830E+02  0.10720230062E+03  0.00000000000E+00 0.  1.
         22    1    3    3    0    0  0.70657182439E+02 -0.76171708371E+02  0.43744929744E+03  0.44961812065E+03  0.00000000000E+00 0.  1.
</event>
<event>
 7    1  0.6888431E-006  0.1059488E+03  0.7818608E-02  0.1399377E+00
          2   -1    0    0  502    0  0.00000000000E+00  0.00000000000E+00  0.65818740564E+03  0.65818740564E+03  0.00000000000E+00 0. -1.
          1   -1    0    0  501    0 -0.00000000000E+00 -0.00000000000E+00 -0.18097194722E+03  0.18097194722E+03  0.00000000000E+00 0. -1.
         25    2    1    2    0    0 -0.31078458583E+02 -0.78229082847E+02  0.69811336023E+02  0.16608668106E+03  0.12500201197E+03 0.  0.
          2    1    1    2  501    0  0.17878611781E+02  0.10908911572E+03 -0.10919624610E+03  0.15538307530E+03  0.00000000000E+00 0. -1.
          1    1    1    2  502    0  0.13199846802E+02 -0.30860032875E+02  0.51660036850E+03  0.51768959649E+03  0.00000000000E+00 0. -1.
         22    1    3    3    0    0 -0.51190485134E+00 -0.48699213856E+02 -0.30278642018E+02  0.57346940975E+02  0.00000000000E+00 0. -1.
         22    1    3    3    0    0 -0.30566553732E+02 -0.29529868991E+02  0.10008997804E+03  0.10873974009E+03  0.00000000000E+00 0. -1.
</event>
<event>
 7    1  0.6888431E-006  0.5337177E+02  0.7818608E-02  0.1481571E+00
          2   -1    0    0  502    0  0.00000000000E+00  0.00000000000E+00  0.66789959270E+03  0.66789959270E+03  0.00000000000E+00 0. -1.
          1   -1    0    0  501    0 -0.00000000000E+00 -0.00000000000E+00 -0.21487030078E+04  0.21487030078E+04  0.00000000000E+00 0. -1.
         25    2    1    2    0    0  0.66103617624E+02 -0.13334155072E+02 -0.58513331117E+03  0.60212349383E+03  0.12499688806E+03 0.  0.
          2    1    1    2  501    0 -0.16187769001E+02  0.32208030473E+02 -0.15537855288E+04  0.15542036130E+04  0.00000000000E+00 0. -1.
          1    1    1    2  502    0 -0.49915848623E+02 -0.18873875401E+02  0.65811542487E+03  0.66027549369E+03  0.00000000000E+00 0. -1.
         22    1    3    3    0    0 -0.11040160292E+02 -0.49981130080E+02 -0.14471322941E+03  0.15349891618E+03  0.00000000000E+00 0. -1.
         22    1    3    3    0    0  0.77143777915E+02  0.36646975008E+02 -0.44042008177E+03  0.44862457765E+03  0.00000000000E+00 0. -1.
</event>
<event>
 7    1  0.6888431E-006  0.6156597E+02  0.7818608E-02  0.1501999E+00
          2   -1    0    0  502    0  0.00000000000E+00  0.00000000000E+00  0.15717943532E+03  0.15717943532E+03  0.00000000000E+00 0. -1.
          1   -1    0    0  501    0 -0.00000000000E+00 -0.00000000000E+00 -0.85473954523E+03  0.85473954523E+03  0.00000000000E+00 0. -1.
         25    2    1    2    0    0  0.79806923410E+02  0.27513061244E+02 -0.27722823454E+03  0.31560505241E+03  0.12499976608E+03 0.  0.
          2    1    1    2  501    0 -0.52700266815E+02 -0.28128940280E+02 -0.55537362347E+03  0.55857713616E+03  0.00000000000E+00 0. -1.
          1    1    1    2  502    0 -0.27106656595E+02  0.61587903650E+00  0.13504174808E+03  0.13773679198E+03  0.00000000000E+00 0. -1.
         22    1    3    3    0    0 -0.30321500442E+02 -0.63604325150E+01 -0.31384382166E+02  0.44100203342E+02  0.00000000000E+00 0. -1.
         22    1    3    3    0    0  0.11012842385E+03  0.33873493759E+02 -0.24584385237E+03  0.27150484907E+03  0.00000000000E+00 0. -1.
</event>
<event>
 7    1  0.6888431E-006  0.9634337E+02  0.7818608E-02  0.1475655E+00
          2   -1    0    0  502    0  0.00000000000E+00  0.00000000000E+00  0.26504810639E+04  0.26504810639E+04  0.00000000000E+00 0. -1.
          1   -1    0    0  501    0 -0.00000000000E+00 -0.00000000000E+00 -0.35484200971E+03  0.35484200971E+03  0.00000000000E+00 0. -1.
         25    2    1    2    0    0  0.13487612176E+02 -0.11592971127E+03  0.15991263862E+04  0.16082450331E+04  0.12500109420E+03 0.  0.
          2    1    1    2  501    0 -0.14646658892E+02  0.95138848409E+02 -0.34356332806E+03  0.35679361749E+03  0.00000000000E+00 0. -1.
          1    1    1    2  502    0  0.11590467158E+01  0.20790862860E+02  0.10400759960E+04  0.10402844231E+04  0.00000000000E+00 0. -1.
         22    1    3    3    0    0  0.35253046011E+02 -0.11850103077E+03  0.86491505587E+03  0.87370665868E+03  0.00000000000E+00 0.  1.
         22    1    3    3    0    0 -0.21765433834E+02  0.25713195045E+01  0.73421133037E+03  0.73453837438E+03  0.00000000000E+00 0.  1.
</event>
<event>
 7    1  0.6888431E-006  0.1281515E+03  0.7818608E-02  0.1380110E+00
          2   -1    0    0  502    0  0.00000000000E+00  0.00000000000E+00  0.10246103731E+04  0.10246103731E+04  0.00000000000E+00 0. -1.
          1   -1    0    0  501    0 -0.00000000000E+00 -0.00000000000E+00 -0.18576009243E+03  0.18576009243E+03  0.00000000000E+00 0. -1.
         25    2    1    2    0    0  0.75911728581E+02 -0.12090162574E+03  0.64172147741E+03  0.66918746698E+03  0.12500247099E+03 0.  0.
          2    1    1    2  501    0  0.30440942650E+01  0.32254630180E+02 -0.16082615468E+03  0.16405694044E+03  0.00000000000E+00 0. -1.
          1    1    1    2  502    0 -0.78955822846E+02  0.88646995558E+02  0.35795495797E+03  0.37712605813E+03  0.00000000000E+00 0. -1.
         22    1    3    3    0    0 -0.15878674336E+02 -0.19675305738E+02  0.18938756989E+02  0.31589974214E+02  0.00000000000E+00 0.  1.
         22    1    3    3    0    0  0.91790402917E+02 -0.10122632000E+03  0.62278272042E+03  0.63759749277E+03  0.00000000000E+00 0.  1.
</event>
<event>
 7    1  0.6888431E-006  0.4653644E+03  0.7818608E-02  0.1227488E+00
          2   -1    0    0  502    0  0.00000000000E+00  0.00000000000E+00  0.75162337723E+03  0.75162337723E+03  0.00000000000E+00 0. -1.
          1   -1    0    0  501    0 -0.00000000000E+00 -0.00000000000E+00 -0.58224414577E+03  0.58224414577E+03  0.00000000000E+00 0. -1.
         25    2    1    2    0    0 -0.16654200480E+03 -0.44744892236E+03  0.26372111379E+03  0.55958344388E+03  0.12505209842E+03 0.  0.
          2    1    1    2  501    0 -0.16165454527E+02  0.32505600273E+02 -0.28146721066E+03  0.28379874321E+03  0.00000000000E+00 0. -1.
          1    1    1    2  502    0  0.18270745933E+03  0.41494332209E+03  0.18712532833E+03  0.49048533591E+03  0.00000000000E+00 0. -1.
         22    1    3    3    0    0 -0.48134058897E+02 -0.60493776962E+02  0.91521805449E+02  0.11980244384E+03  0.00000000000E+00 0. -1.
         22    1    3    3    0    0 -0.11840794591E+03 -0.38695514540E+03  0.17219930834E+03  0.43978100004E+03  0.00000000000E+00 0. -1.
</event>
<event>
 7    1  0.6888431E-006  0.1513841E+03  0.7818608E-02  0.1269474E+00
          2   -1    0    0  502    0  0.00000000000E+00  0.00000000000E+00  0.12569749408E+04  0.12569749408E+04  0.00000000000E+00 0. -1.
          1   -1    0    0  501    0 -0.00000000000E+00 -0.00000000000E+00 -0.92924324027E+03  0.92924324027E+03  0.00000000000E+00 0. -1.
         25    2    1    2    0    0 -0.69477819831E+02  0.19470895170E+03 -0.70306672862E+02  0.25161048444E+03  0.12500425717E+03 0.  0.
          2    1    1    2  501    0 -0.15983609603E+02 -0.71519814420E+02 -0.76170036306E+03  0.76521761788E+03  0.00000000000E+00 0. -1.
          1    1    1    2  502    0  0.85461429434E+02 -0.12318913728E+03  0.11597387365E+04  0.11693900788E+04  0.00000000000E+00 0. -1.
         22    1    3    3    0    0 -0.31165274879E+02  0.17315745773E+03 -0.89958329991E+01  0.17616953351E+03  0.00000000000E+00 0.  1.
         22    1    3    3    0    0 -0.38312544953E+02  0.21551493973E+02 -0.61310839863E+02  0.75440950935E+02  0.00000000000E+00 0.  1.
</event>
<event>
 7    1  0.6888431E-006  0.6482455E+02  0.7818608E-02  0.1403598E+00
          2   -1    0    0  502    0  0.00000000000E+00  0.00000000000E+00  0.16925799815E+04  0.16925799815E+04  0.00000000000E+00 0. -1.
          1   -1    0    0  501    0 -0.00000000000E+00 -0.00000000000E+00 -0.22499230143E+03  0.22499230143E+03  0.00000000000E+00 0. -1.
         25    2    1    2    0    0 -0.71829065713E+02 -0.68422241432E+02  0.54928382055E+03  0.57199493835E+03  0.12499790467E+03 0.  0.
          2    1    1    2  501    0  0.19195984164E+02  0.61715727343E+02 -0.20810959804E+03  0.21791494122E+03  0.00000000000E+00 0. -1.
          1    1    1    2  502    0  0.52633081549E+02  0.67065140884E+01  0.11264134575E+04  0.11276624033E+04  0.00000000000E+00 0. -1.
         22    1    3    3    0    0 -0.12031163756E+02 -0.17126472539E+01  0.38233102086E+03  0.38252410588E+03  0.00000000000E+00 0. -1.
         22    1    3    3    0    0 -0.59797901957E+02 -0.66709594178E+02  0.16695279969E+03  0.18947083247E+03  0.00000000000E+00 0. -1.
</event>
<event>
 7    1  0.6888431E-006  0.1228134E+03  0.7818608E-02  0.1379044E+00
          2   -1    0    0  502    0  0.00000000000E+00  0.00000000000E+00  0.58585969364E+03  0.58585969364E+03  0.00000000000E+00 0. -1.
          1   -1    0    0  501    0 -0.00000000000E+00 -0.00000000000E+00 -0.29951410720E+03  0.29951410720E+03  0.00000000000E+00 0. -1.
         25    2    1    2    0    0  0.53977914816E+02  0.10677584728E+03 -0.16082330753E+03  0.23621213898E+03  0.12496936227E+03 0.  0.
          2    1    1    2  501    0 -0.25779856473E+02 -0.12595351629E+03 -0.59274797687E+02  0.14157115139E+03  0.00000000000E+00 0. -1.
          1    1    1    2  502    0 -0.28198058343E+02  0.19177669010E+02  0.50644369167E+03  0.50759051046E+03  0.00000000000E+00 0. -1.
         22    1    3    3    0    0 -0.16671084007E+02  0.45662325846E+01  0.13645335962E+02  0.22022050665E+02  0.00000000000E+00 0. -1.
         22    1    3    3    0    0  0.70648998823E+02  0.10220961470E+03 -0.17446864350E+03  0.21419008832E+03  0.00000000000E+00 0. -1.
</event>
<event>
 7    1  0.6888431E-006  0.2882727E+02  0.7818608E-02  0.1631866E+00
          2   -1    0    0  502    0  0.00000000000E+00  0.00000000000E+00  0.14385066558E+04  0.14385066558E+04  0.00000000000E+00 0. -1.
          1   -1    0    0  501    0 -0.00000000000E+00 -0.00000000000E+00 -0.89537695494E+03  0.89537695494E+03  0.00000000000E+00 0. -1.
         25    2    1    2    0    0 -0.46350839760E+02  0.15656660602E+02 -0.32742281241E+02  0.13816994934E+03  0.12500138620E+03 0.  0.
          2    1    1    2  501    0  0.21073084633E+02 -0.19558224348E+02 -0.80954761586E+03  0.81005798644E+03  0.00000000000E+00 0. -1.
          1    1    1    2  502    0  0.25277755128E+02  0.39015637458E+01  0.13854195979E+04  0.13856556749E+04  0.00000000000E+00 0. -1.
         22    1    3    3    0    0 -0.55190348700E+02  0.62205097251E+02 -0.36129812992E+02  0.90668694159E+02  0.00000000000E+00 0. -1.
         22    1    3    3    0    0  0.88395089401E+01 -0.46548436649E+02  0.33875317510E+01  0.47501255185E+02  0.00000000000E+00 0. -1.
</event>
<event>
 7    1  0.6888431E-006  0.2762561E+02  0.7818608E-02  0.1637966E+00
          2   -1    0    0  502    0  0.00000000000E+00  0.00000000000E+00  0.25924502297E+04  0.25924502297E+04  0.00000000000E+00 0. -1.
          1   -1    0    0  501    0 -0.00000000000E+00 -0.00000000000E+00 -0.68698028798E+02  0.68698028798E+02  0.00000000000E+00 0. -1.
         25    2    1    2    0    0 -0.25998399330E+02 -0.40739719472E+02  0.15331241946E+04  0.15389713324E+04  0.12500929725E+03 0.  0.
          2    1    1    2  501    0  0.21276919128E+02  0.14537509303E+02 -0.63075884996E+02  0.68136728219E+02  0.00000000000E+00 0. -1.
          1    1    1    2  502    0  0.47214802016E+01  0.26202210169E+02  0.10537038913E+04  0.10540401979E+04  0.00000000000E+00 0. -1.
         22    1    3    3    0    0 -0.69513649654E+02 -0.13785913098E+02  0.11835164704E+04  0.11856362994E+04  0.00000000000E+00 0.  1.
         22    1    3    3    0    0  0.43515250325E+02 -0.26953806374E+02  0.34960772419E+03  0.35333503294E+03  0.00000000000E+00 0.  1.
</event>
<event>
 7    1  0.6888431E-006  0.1233185E+03  0.7818608E-02  0.1311211E+00
          2   -1    0    0  502    0  0.00000000000E+00  0.00000000000E+00  0.12008058920E+04  0.12008058920E+04  0.00000000000E+00 0. -1.
          1   -1    0    0  501    0 -0.00000000000E+00 -0.00000000000E+00 -0.75578980229E+03  0.75578980229E+03  0.00000000000E+00 0. -1.
         25    2    1    2    0    0  0.91818955855E+02  0.15725101466E+03  0.94907361104E+02  0.24039761799E+03  0.12500002112E+03 0.  0.
          2    1    1    2  501    0 -0.64637018032E+02 -0.10279390510E+03 -0.67673982135E+03  0.68754731970E+03  0.00000000000E+00 0. -1.
          1    1    1    2  502    0 -0.27181937823E+02 -0.54457109561E+02  0.10268485499E+04  0.10286507566E+04  0.00000000000E+00 0. -1.
         22    1    3    3    0    0 -0.29187945390E+02  0.13911259815E+02  0.63227459186E+01  0.32945962145E+02  0.00000000000E+00 0. -1.
         22    1    3    3    0    0  0.12100690125E+03  0.14333975484E+03  0.88584615185E+02  0.20745165585E+03  0.00000000000E+00 0. -1.
</event>
<event>
 7    1  0.6888431E-006  0.1473120E+03  0.7818608E-02  0.1376833E+00
          2   -1    0    0  502    0  0.00000000000E+00  0.00000000000E+00  0.70236190223E+03  0.70236190223E+03  0.00000000000E+00 0. -1.
          1   -1    0    0  501    0 -0.00000000000E+00 -0.00000000000E+00 -0.10558473893E+04  0.10558473893E+04  0.00000000000E+00 0. -1.
         25    2    1    2    0    0 -0.66053403481E+01 -0.13847783514E+03  0.37768838914E+03  0.42129467734E+03  0.12498377705E+03 0.  0.
          2    1    1    2  501    0  0.35165839191E+02  0.14320530602E+03 -0.10280795544E+04  0.10386009658E+04  0.00000000000E+00 0. -1.
          1    1    1    2  502    0 -0.28560498843E+02 -0.47274708798E+01  0.29690567820E+03  0.29831364840E+03  0.00000000000E+00 0. -1.
         22    1    3    3    0    0 -0.22118634059E+02 -0.23659249389E+02  0.72904689085E+01  0.33198569113E+02  0.00000000000E+00 0. -1.
         22    1    3    3    0    0  0.15513293711E+02 -0.11481858575E+03  0.37039792023E+03  0.38809610823E+03  0.00000000000E+00 0. -1.
</event>
<event>
 7    1  0.6888431E-006  0.1136658E+03  0.7818608E-02  0.1301924E+00
          2   -1    0    0  502    0  0.00000000000E+00  0.00000000000E+00  0.14242482293E+04  0.14242482293E+04  0.00000000000E+00 0. -1.
          1   -1    0    0  501    0 -0.00000000000E+00 -0.00000000000E+00 -0.23757141932E+03  0.23757141932E+03  0.00000000000E+00 0. -1.
         25    2    1    2    0    0  0.36271532411E+02  0.56193935247E+02  0.82991401646E+02  0.16427429460E+03  0.12500035479E+03 0.  0.
          2    1    1    2  501    0 -0.71294284536E+01 -0.12189158632E+03 -0.17689901344E+03  0.21494568738E+03  0.00000000000E+00 0. -1.
          1    1    1    2  502    0 -0.29142103958E+02  0.65697651077E+02  0.12805844218E+04  0.12825996667E+04  0.00000000000E+00 0. -1.
         22    1    3    3    0    0  0.25593146377E+02 -0.38074119704E+02  0.36495231286E+02  0.58622091735E+02  0.00000000000E+00 0. -1.
         22    1    3    3    0    0  0.10678386034E+02  0.94268054951E+02  0.46496170360E+02  0.10565220287E+03  0.00000000000E+00 0. -1.
</event>
<event>
 7    1  0.6888431E-006  0.2450081E+02  0.7818608E-02  0.1697203E+00
          2   -1    0    0  502    0  0.00000000000E+00  0.00000000000E+00  0.50391362778E+03  0.50391362778E+03  0.00000000000E+00 0. -1.
          1   -1    0    0  501    0 -0.00000000000E+00 -0.00000000000E+00 -0.37953534440E+03  0.37953534440E+03  0.00000000000E+00 0. -1.
         25    2    1    2    0    0 -0.40612072655E+01  0.30142845419E+01  0.12911648574E+03  0.17978150470E+03  0.12499897291E+03 0.  0.
          2    1    1    2  501    0  0.56564586089E+01 -0.23897408413E+02 -0.35346261155E+03  0.35431468981E+03  0.00000000000E+00 0. -1.
          1    1    1    2  502    0 -0.15952513435E+01  0.20883123871E+02  0.34872440919E+03  0.34935277766E+03  0.00000000000E+00 0. -1.
         22    1    3    3    0    0  0.39091576378E+02 -0.44609898962E+02  0.75992902621E+02  0.96400807454E+02  0.00000000000E+00 0.  1.
         22    1    3    3    0    0 -0.43152783643E+02  0.47624183504E+02  0.53123583115E+02  0.83380697248E+02  0.00000000000E+00 0.  1.
</event>
<event>
 7    1  0.6888431E-006  0.1778714E+03  0.7818608E-02  0.1242999E+00
          2   -1    0    0  502    0  0.00000000000E+00  0.00000000000E+00  0.32375557431E+04  0.32375557431E+04  0.00000000000E+00 0. -1.
          1   -1    0    0  501    0 -0.00000000000E+00 -0.00000000000E+00 -0.44541685503E+02  0.44541685503E+02  0.00000000000E+00 0. -1.
         25    2    1    2    0    0 -0.13041460829E+03 -0.42592321929E+00  0.95363175448E+03  0.97059075006E+03  0.12499891791E+03 0.  0.
          2    1    1    2  501    0  0.18184116880E+03  0.63054850282E+02  0.22748980599E+03  0.29798277911E+03  0.00000000000E+00 0. -1.
          1    1    1    2  502    0 -0.51426560504E+02 -0.62628927063E+02  0.20118924971E+04  0.20135238994E+04  0.00000000000E+00 0. -1.
         22    1    3    3    0    0 -0.40283157974E+02 -0.36222157780E+01  0.70410134182E+03  0.70526204549E+03  0.00000000000E+00 0.  1.
         22    1    3    3    0    0 -0.90131450317E+02  0.31962925588E+01  0.24953041266E+03  0.26532870456E+03  0.00000000000E+00 0.  1.
</event>
<event>
 7    1  0.6888431E-006  0.5360658E+02  0.7818608E-02  0.1458152E+00
          2   -1    0    0  502    0  0.00000000000E+00  0.00000000000E+00  0.82539046878E+03  0.82539046878E+03  0.00000000000E+00 0. -1.
          1   -1    0    0  501    0 -0.00000000000E+00 -0.00000000000E+00 -0.21024301661E+02  0.21024301661E+02  0.00000000000E+00 0. -1.
         25    2    1    2    0    0 -0.36370322526E+02  0.55550520637E+02  0.28572526098E+03  0.31886059175E+03  0.12499796600E+03 0.  0.
          2    1    1    2  501    0  0.42385395258E+02 -0.22617674499E+01  0.25589576332E+03  0.25939213366E+03  0.00000000000E+00 0. -1.
          1    1    1    2  502    0 -0.60150727324E+01 -0.53288753187E+02  0.26274514282E+03  0.26816204502E+03  0.00000000000E+00 0. -1.
         22    1    3    3    0    0 -0.31166653935E+02  0.33998320474E+02  0.29215688611E+03  0.29577507031E+03  0.00000000000E+00 0. -1.
         22    1    3    3    0    0 -0.52036685907E+01  0.21552200163E+02 -0.64316251278E+01  0.23085521447E+02  0.00000000000E+00 0. -1.
</event>
<event>
 7    1  0.6888431E-006  0.5012109E+02  0.7818608E-02  0.1451322E+00
          2   -1    0    0  502    0  0.00000000000E+00  0.00000000000E+00  0.65237021281E+03  0.65237021281E+03  0.00000000000E+00 0. -1.
          1   -1    0    0  501    0 -0.00000000000E+00 -0.00000000000E+00 -0.10944714150E+03  0.10944714150E+03  0.00000000000E+00 0. -1.
         25    2    1    2    0    0  0.58315424059E+02  0.15236057985E+02  0.51126495424E+03  0.52976225260E+03  0.12499345864E+03 0.  0.
          2    1    1    2  501    0 -0.21398718411E+02 -0.45481129167E+02 -0.89049325687E+02  0.10225566324E+03  0.00000000000E+00 0. -1.
          1    1    1    2  502    0 -0.36916705649E+02  0.30245071182E+02  0.12070744277E+03  0.12979943847E+03  0.00000000000E+00 0. -1.
         22    1    3    3    0    0  0.26007791017E+02 -0.52772508791E+02  0.15887383722E+03  0.16941735163E+03  0.00000000000E+00 0.  1.
         22    1    3    3    0    0  0.32307633042E+02  0.68008566777E+02  0.35239111701E+03  0.36034490097E+03  0.00000000000E+00 0.  1.
</event>
<event>
 7    1  0.6888431E-006  0.3203504E+02  0.7818608E-02  0.1652685E+00
          2   -1    0    0  502    0  0.00000000000E+00  0.00000000000E+00  0.10159148475E+04  0.10159148475E+04  0.00000000000E+00 0. -1.
          1   -1    0    0  501    0 -0.00000000000E+00 -0.00000000000E+00 -0.94471484059E+02  0.94471484059E+02  0.00000000000E+00 0. -1.
         25    2    1    2    0    0  0.15807982718E+02  0.21982569661E+02  0.54484576199E+03  0.55965459632E+03  0.12499294831E+03 0.  0.
          2    1    1    2  501    0  0.19904776332E+01 -0.32032596351E+02 -0.83874999660E+02  0.89805705822E+02  0.00000000000E+00 0. -1.
          1    1    1    2  502    0 -0.17798460351E+02  0.10050026690E+02  0.46047260112E+03  0.46092602943E+03  0.00000000000E+00 0. -1.
         22    1    3    3    0    0 -0.47749384102E+02  0.31595123290E+02  0.34519005089E+03  0.34990631136E+03  0.00000000000E+00 0.  1.
         22    1    3    3    0    0  0.63557366820E+02 -0.96125536294E+01  0.19965571110E+03  0.20974828495E+03  0.00000000000E+00 0.  1.
</event>
<event>
 7    1  0.6888431E-006  0.1924771E+03  0.7818608E-02  0.1245664E+00
          2   -1    0    0  502    0  0.00000000000E+00  0.00000000000E+00  0.16704343523E+04  0.16704343523E+04  0.00000000000E+00 0. -1.
          1   -1    0    0  501    0 -0.00000000000E+00 -0.00000000000E+00 -0.61129821060E+02  0.61129821060E+02  0.00000000000E+00 0. -1.
         25    2    1    2    0    0  0.61510029051E+02  0.22254655709E+03  0.45805862507E+03  0.52796989631E+03  0.12499621461E+03 0.  0.
          2    1    1    2  501    0  0.34804811453E+02 -0.64057854582E+02  0.53842488681E+02  0.90630001772E+02  0.00000000000E+00 0. -1.
          1    1    1    2  502    0 -0.96314840504E+02 -0.15848870250E+03  0.10974034175E+04  0.11129642753E+04  0.00000000000E+00 0. -1.
         22    1    3    3    0    0  0.69729892593E+02  0.10541799623E+03  0.33419779929E+03  0.35730012721E+03  0.00000000000E+00 0.  1.
         22    1    3    3    0    0 -0.82198635419E+01  0.11712856085E+03  0.12386082578E+03  0.17066976911E+03  0.00000000000E+00 0.  1.
</event>
<event>
 7    1  0.6888431E-006  0.1174483E+03  0.7818608E-02  0.1388154E+00
          2   -1    0    0  502    0  0.00000000000E+00  0.00000000000E+00  0.66367267059E+03  0.66367267059E+03  0.00000000000E+00 0. -1.
          1   -1    0    0  501    0 -0.00000000000E+00 -0.00000000000E+00 -0.23969011448E+04  0.23969011448E+04  0.00000000000E+00 0. -1.
         25    2    1    2    0    0  0.97522132369E+02  0.33941795661E+02 -0.39172610751E+02  0.16679930855E+03  0.12499961642E+03 0.  0.
          2    1    1    2  501    0  0.20655888810E+02 -0.25888357709E+02 -0.22879465890E+04  0.22881862833E+04  0.00000000000E+00 0. -1.
          1    1    1    2  502    0 -0.11817802118E+03 -0.80534379516E+01  0.59389072558E+03  0.60558822353E+03  0.00000000000E+00 0. -1.
         22    1    3    3    0    0  0.10902249824E+03 -0.16612945676E+02 -0.27365708719E+02  0.11362560055E+03  0.00000000000E+00 0.  1.
         22    1    3    3    0    0 -0.11500365873E+02  0.50554741337E+02 -0.11806902032E+02  0.53173708000E+02  0.00000000000E+00 0.  1.
</event>
<event>
 7    1  0.6888431E-006  0.8084275E+02  0.7818608E-02  0.1464528E+00
          2   -1    0    0  502    0  0.00000000000E+00  0.00000000000E+00  0.13801102318E+04  0.13801102318E+04  0.00000000000E+00 0. -1.
          1   -1    0    0  501    0 -0.00000000000E+00 -0.00000000000E+00 -0.11081933033E+04  0.11081933033E+04  0.00000000000E+00 0. -1.
         25    2    1    2    0    0  0.64950938341E+02  0.34732906216E+01  0.42247602502E+03  0.44535529473E+03  0.12499863474E+03 0.  0.
          2    1    1    2  501    0  0.16946498381E+02 -0.20857537661E+02 -0.10947364421E+04  0.10950662529E+04  0.00000000000E+00 0. -1.
          1    1    1    2  502    0 -0.81897436722E+02  0.17384247040E+02  0.94417734555E+03  0.94788198740E+03  0.00000000000E+00 0. -1.
         22    1    3    3    0    0  0.49511890268E+02 -0.14495558150E+02  0.41809143416E+03  0.42126238356E+03  0.00000000000E+00 0. -1.
         22    1    3    3    0    0  0.15439048073E+02  0.17968848772E+02  0.43845908597E+01  0.24092911169E+02  0.00000000000E+00 0. -1.
</event>
<event>
 7    1  0.6888431E-006  0.1251238E+03  0.7818608E-02  0.1266497E+00
          2   -1    0    0  502    0  0.00000000000E+00  0.00000000000E+00  0.52569900769E+03  0.52569900769E+03  0.00000000000E+00 0. -1.
          1   -1    0    0  501    0 -0.00000000000E+00 -0.00000000000E+00 -0.15878692704E+03  0.15878692704E+03  0.00000000000E+00 0. -1.
         25    2    1    2    0    0  0.24167518109E+02 -0.13779153250E+03  0.61581470032E+02  0.19747464021E+03  0.12503351837E+03 0.  0.
          2    1    1    2  501    0  0.72628372363E+02  0.55263235388E+02 -0.53854228177E+02  0.10596784206E+03  0.00000000000E+00 0. -1.
          1    1    1    2  502    0 -0.96795890472E+02  0.82528297110E+02  0.35918483880E+03  0.38104345246E+03  0.00000000000E+00 0. -1.
         22    1    3    3    0    0  0.66275660599E+02 -0.12503063015E+03  0.59250583889E+02  0.15341366743E+03  0.00000000000E+00 0. -1.
         22    1    3    3    0    0 -0.42108142489E+02 -0.12760902353E+02  0.23308861428E+01  0.44060972788E+02  0.00000000000E+00 0. -1.
</event>
<event>
 7    1  0.6888431E-006  0.1783169E+03  0.7818608E-02  0.1341048E+00
          2   -1    0    0  502    0  0.00000000000E+00  0.00000000000E+00  0.49524476278E+02  0.49524476278E+02  0.00000000000E+00 0. -1.
          1   -1    0    0  501    0 -0.00000000000E+00 -0.00000000000E+00 -0.18206701476E+04  0.18206701476E+04  0.00000000000E+00 0. -1.
         25    2    1    2    0    0 -0.11332669495E+03 -0.10474120175E+03 -0.73686655710E+03  0.76315840131E+03  0.12499905354E+03 0.  0.
          2    1    1    2  501    0 -0.27881345465E+02 -0.16352344433E+02 -0.83046970184E+03  0.83109848650E+03  0.00000000000E+00 0. -1.
          1    1    1    2  502    0  0.14120804041E+03  0.12109354618E+03 -0.20380941235E+03  0.27593773603E+03  0.00000000000E+00 0. -1.
         22    1    3    3    0    0 -0.12615683145E+02 -0.94373039270E+02 -0.30158562903E+03  0.31625830841E+03  0.00000000000E+00 0.  1.
         22    1    3    3    0    0 -0.10071101180E+03 -0.10368162481E+02 -0.43528092807E+03  0.44690009290E+03  0.00000000000E+00 0.  1.
</event>
<event>
 7    1  0.6888431E-006  0.9549661E+02  0.7818608E-02  0.1449229E+00
          2   -1    0    0  502    0  0.00000000000E+00  0.00000000000E+00  0.59809518710E+03  0.59809518710E+03  0.00000000000E+00 0. -1.
          1   -1    0    0  501    0 -0.00000000000E+00 -0.00000000000E+00 -0.13420284402E+04  0.13420284402E+04  0.00000000000E+00 0. -1.
         25    2    1    2    0    0 -0.12041854661E+00  0.71483086363E+02 -0.57600156694E+02  0.15508309641E+03  0.12499257019E+03 0.  0.
          2    1    1    2  501    0 -0.56487207583E+01  0.24801864144E+02 -0.12313203436E+04  0.12315830581E+04  0.00000000000E+00 0. -1.
          1    1    1    2  502    0  0.57691393049E+01 -0.96284950507E+02  0.54498724714E+03  0.55345747281E+03  0.00000000000E+00 0. -1.
         22    1    3    3    0    0  0.45343753373E+02  0.81814146580E+02 -0.54724073821E+02  0.10837128220E+03  0.00000000000E+00 0. -1.
         22    1    3    3    0    0 -0.45464171920E+02 -0.10331060216E+02 -0.28760828737E+01  0.46711814204E+02  0.00000000000E+00 0. -1.
</event>
<event>
 7    1  0.6888431E-006  0.1100372E+03  0.7818608E-02  0.1349888E+00
          2   -1    0    0  502    0  0.00000000000E+00  0.00000000000E+00  0.19811765677E+04  0.19811765677E+04  0.00000000000E+00 0. -1.
          1   -1    0    0  501    0 -0.00000000000E+00 -0.00000000000E+00 -0.37643350065E+03  0.37643350065E+03  0.00000000000E+00 0. -1.
         25    2    1    2    0    0 -0.12987511739E+03 -0.82714112361E+02  0.49962068088E+03  0.53754414305E+03  0.12499484177E+03 0.  0.
          2    1    1    2  501    0  0.38915744266E+02  0.29027774888E+02 -0.35390548462E+03  0.35722001471E+03  0.00000000000E+00 0. -1.
          1    1    1    2  502    0  0.90959373123E+02  0.53686337473E+02  0.14590278707E+04  0.14628459105E+04  0.00000000000E+00 0. -1.
         22    1    3    3    0    0 -0.65338737580E+02  0.22433625865E+02  0.12102644941E+03  0.13935501302E+03  0.00000000000E+00 0.  1.
         22    1    3    3    0    0 -0.64536379808E+02 -0.10514773823E+03  0.37859423147E+03  0.39818913003E+03  0.00000000000E+00 0.  1.
</event>
<event>
 7    1  0.6888431E-006  0.5012111E+02  0.7818608E-02  0.1507226E+00
          2   -1    0    0  502    0  0.00000000000E+00  0.00000000000E+00  0.60139687002E+03  0.60139687002E+03  0.00000000000E+00 0. -1.
          1   -1    0    0  501    0 -0.00000000000E+00 -0.00000000000E+00 -0.33927563338E+03  0.33927563338E+03  0.00000000000E+00 0. -1.
         25    2    1    2    0    0  0.40876818401E+02 -0.30358500285E+01  0.27782555318E+03  0.30739515167E+03  0.12499844240E+03 0.  0.
          2    1    1    2  501    0 -0.16187725072E+01 -0.32096491161E+02 -0.32143662976E+03  0.32303918047E+03  0.00000000000E+00 0. -1.
          1    1    1    2  502    0 -0.39258045894E+02  0.35132341190E+02  0.30573231321E+03  0.31023817126E+03  0.00000000000E+00 0. -1.
         22    1    3    3    0    0  0.80733718053E+02 -0.14192033733E+02  0.22987247326E+03  0.24405061158E+03  0.00000000000E+00 0. -1.
         22    1    3    3    0    0 -0.39856899652E+02  0.11156183705E+02  0.47953079924E+02  0.63344540088E+02  0.00000000000E+00 0. -1.
</event>
<event>
 7    1  0.6888431E-006  0.9340845E+02  0.7818608E-02  0.1396356E+00
          2   -1    0    0  502    0  0.00000000000E+00  0.00000000000E+00  0.97088720596E+03  0.97088720596E+03  0.00000000000E+00 0. -1.
          1   -1    0    0  501    0 -0.00000000000E+00 -0.00000000000E+00 -0.81001904691E+03  0.81001904691E+03  0.00000000000E+00 0. -1.
         25    2    1    2    0    0  0.57790482216E+02  0.85279296381E+01 -0.51282387967E+02  0.14720277903E+03  0.12500523758E+03 0.  0.
          2    1    1    2  501    0  0.36328013816E+02 -0.14174201545E+02 -0.70783024796E+03  0.70890358477E+03  0.00000000000E+00 0. -1.
          1    1    1    2  502    0 -0.94118496032E+02  0.56462719069E+01  0.91998079498E+03  0.92479988906E+03  0.00000000000E+00 0. -1.
         22    1    3    3    0    0 -0.16810722655E+02 -0.42656782556E+02 -0.66807129899E+01  0.46333933788E+02  0.00000000000E+00 0. -1.
         22    1    3    3    0    0  0.74601204871E+02  0.51184712194E+02 -0.44601674977E+02  0.10086884525E+03  0.00000000000E+00 0. -1.
</event>
<event>
 7    1  0.6888431E-006  0.4525462E+02  0.7818608E-02  0.1514443E+00
          2   -1    0    0  502    0  0.00000000000E+00  0.00000000000E+00  0.20417674915E+04  0.20417674915E+04  0.00000000000E+00 0. -1.
          1   -1    0    0  501    0 -0.00000000000E+00 -0.00000000000E+00 -0.21189487015E+03  0.21189487015E+03  0.00000000000E+00 0. -1.
         25    2    1    2    0    0 -0.22771395645E+02 -0.66543753486E+02  0.25186590830E+03  0.28984075588E+03  0.12499848167E+03 0.  0.
          2    1    1    2  501    0  0.26037276616E+02  0.21702469878E+02 -0.19113066174E+03  0.19411302591E+03  0.00000000000E+00 0. -1.
          1    1    1    2  502    0 -0.32658809705E+01  0.44841283608E+02  0.17691373748E+04  0.17697085799E+04  0.00000000000E+00 0. -1.
         22    1    3    3    0    0 -0.20374537530E+02 -0.79153000100E+02  0.26138197878E+03  0.27386284530E+03  0.00000000000E+00 0. -1.
         22    1    3    3    0    0 -0.23968581149E+01  0.12609246614E+02 -0.95160704858E+01  0.15977910580E+02  0.00000000000E+00 0. -1.
</event>
<event>
 7    1  0.8884741E-006  0.7372032E+02  0.7818608E-02  0.1396502E+00
          2   -1    0    0  502    0  0.00000000000E+00  0.00000000000E+00  0.61304281569E+03  0.61304281569E+03  0.00000000000E+00 0. -1.
          1   -1    0    0  501    0 -0.00000000000E+00 -0.00000000000E+00 -0.13531411716E+04  0.13531411716E+04  0.00000000000E+00 0. -1.
         25    2    1    2    0    0  0.17038888763E+02 -0.97065969148E+02 -0.44763953502E+03  0.47509865755E+03  0.12500181999E+03 0.  0.
          2    1    1    2  501    0  0.29237589523E+02  0.39759169545E+02 -0.88882169272E+03  0.89019078273E+03  0.00000000000E+00 0. -1.
          1    1    1    2  502    0 -0.46276478286E+02  0.57306799603E+02  0.59636287183E+03  0.60089454701E+03  0.00000000000E+00 0. -1.
         22    1    3    3    0    0  0.35536544277E+02 -0.73530106407E+02 -0.43500834752E+03  0.44260793592E+03  0.00000000000E+00 0.  1.
         22    1    3    3    0    0 -0.18497655515E+02 -0.23535862741E+02 -0.12631187492E+02  0.32490721629E+02  0.00000000000E+00 0.  1.
</event>
<event>
 7    1  0.6888431E-006  0.1366018E+03  0.7818608E-02  0.1323060E+00
          2   -1    0    0  502    0  0.00000000000E+00  0.00000000000E+00  0.48143245428E+03  0.48143245428E+03  0.00000000000E+00 0. -1.
          1   -1    0    0  501    0 -0.00000000000E+00 -0.00000000000E+00 -0.56939815730E+03  0.56939815730E+03  0.00000000000E+00 0. -1.
         25    2    1    2    0    0 -0.76479809900E+02  0.11087695031E+03  0.22442511615E+03  0.29005952657E+03  0.12500014706E+03 0.  0.
          2    1    1    2  501    0  0.32349982798E+02 -0.13308569116E+03 -0.52496215901E+03  0.54253441455E+03  0.00000000000E+00 0. -1.
          1    1    1    2  502    0  0.44129827102E+02  0.22208740848E+02  0.21257133984E+03  0.21823667045E+03  0.00000000000E+00 0. -1.
         22    1    3    3    0    0  0.26455707735E+02  0.63782939523E+02  0.67457663303E+02  0.96533435577E+02  0.00000000000E+00 0.  1.
         22    1    3    3    0    0 -0.10293551763E+03  0.47094010787E+02  0.15696745285E+03  0.19352609100E+03  0.00000000000E+00 0.  1.
</event>
<event>
 7    1  0.6888431E-006  0.5369988E+02  0.7818608E-02  0.1512045E+00
          2   -1    0    0  502    0  0.00000000000E+00  0.00000000000E+00  0.35953652427E+03  0.35953652427E+03  0.00000000000E+00 0. -1.
          1   -1    0    0  501    0 -0.00000000000E+00 -0.00000000000E+00 -0.39612881795E+02  0.39612881795E+02  0.00000000000E+00 0. -1.
         25    2    1    2    0    0 -0.77719018249E+02  0.11485425589E+02  0.22967289752E+03  0.27303310231E+03  0.12500109721E+03 0.  0.
          2    1    1    2  501    0  0.48827121114E+02 -0.86444941959E+01  0.26859815855E+02  0.56393836045E+02  0.00000000000E+00 0. -1.
          1    1    1    2  502    0  0.28891897135E+02 -0.28409313932E+01  0.63390929100E+02  0.69722467709E+02  0.00000000000E+00 0. -1.
         22    1    3    3    0    0 -0.58296781475E+02  0.26521239291E+02  0.23848719170E+03  0.24693730271E+03  0.00000000000E+00 0.  1.
         22    1    3    3    0    0 -0.19422236774E+02 -0.15035813702E+02 -0.88142941810E+01  0.26095799602E+02  0.00000000000E+00 0.  1.
</event>
<event>
 7    1  0.6888431E-006  0.5729885E+02  0.7818608E-02  0.1451714E+00
          2   -1    0    0  502    0  0.00000000000E+00  0.00000000000E+00  0.87873054037E+03  0.87873054037E+03  0.00000000000E+00 0. -1.
          1   -1    0    0  501    0 -0.00000000000E+00 -0.00000000000E+00 -0.74041065020E+03  0.74041065020E+03  0.00000000000E+00 0. -1.
         25    2    1    2    0    0 -0.25813635392E+02 -0.87666470056E+02  0.53713546335E+01  0.15493835228E+03  0.12500115124E+03 0.  0.
          2    1    1    2  501    0  0.32576446808E+02  0.46593743316E+02 -0.66386892876E+03  0.66629884915E+03  0.00000000000E+00 0. -1.
          1    1    1    2  502    0 -0.67628114165E+01  0.41072726740E+02  0.79681746429E+03  0.79790398915E+03  0.00000000000E+00 0. -1.
         22    1    3    3    0    0  0.56391667039E+01 -0.88523190407E+02  0.48853518851E+02  0.10126609376E+03  0.00000000000E+00 0. -1.
         22    1    3    3    0    0 -0.31452802096E+02  0.85672035087E+00 -0.43482164217E+02  0.53672258518E+02  0.00000000000E+00 0. -1.
</event>
<event>
 7    1  0.6888431E-006  0.8586557E+02  0.7818608E-02  0.1317583E+00
          2   -1    0    0  502    0  0.00000000000E+00  0.00000000000E+00  0.32046669850E+04  0.32046669850E+04  0.00000000000E+00 0. -1.
          1   -1    0    0  501    0 -0.00000000000E+00 -0.00000000000E+00 -0.12040012598E+03  0.12040012598E+03  0.00000000000E+00 0. -1.
         25    2    1    2    0    0  0.96770525135E+02 -0.56710222385E+02  0.54252856050E+00  0.16794288155E+03  0.12499573300E+03 0.  0.
          2    1    1    2  501    0 -0.17905549081E+02  0.81041943062E+02  0.11497505036E+02  0.83789007902E+02  0.00000000000E+00 0. -1.
          1    1    1    2  502    0 -0.78864976054E+02 -0.24331720677E+02  0.30722268254E+04  0.30733352215E+04  0.00000000000E+00 0. -1.
         22    1    3    3    0    0  0.80384869413E+02 -0.77927988869E+02 -0.40383533577E+02  0.11901818543E+03  0.00000000000E+00 0.  1.
         22    1    3    3    0    0  0.16385655722E+02  0.21217766484E+02  0.40926062138E+02  0.48924696117E+02  0.00000000000E+00 0.  1.
</event>
<event>
 7    1  0.6888431E-006  0.1292127E+03  0.7818608E-02  0.1257853E+00
          2   -1    0    0  502    0  0.00000000000E+00  0.00000000000E+00  0.26708740026E+03  0.26708740026E+03  0.00000000000E+00 0. -1.
          1   -1    0    0  501    0 -0.00000000000E+00 -0.00000000000E+00 -0.33935175120E+03  0.33935175120E+03  0.00000000000E+00 0. -1.
         25    2    1    2    0    0 -0.54154121230E+02  0.26512950492E+02 -0.16566140253E+01  0.13878942166E+03  0.12499661518E+03 0.  0.
          2    1    1    2  501    0  0.15033184763E+03 -0.27363343931E+02 -0.23316299055E+03  0.27877122729E+03  0.00000000000E+00 0. -1.
          1    1    1    2  502    0 -0.96177726401E+02  0.85039343882E+00  0.16255525364E+03  0.18887850251E+03  0.00000000000E+00 0. -1.
         22    1    3    3    0    0  0.71930721021E+01  0.10258958167E+02 -0.54675748954E+02  0.56092994506E+02  0.00000000000E+00 0. -1.
         22    1    3    3    0    0 -0.61347193332E+02  0.16253992326E+02  0.53019134929E+02  0.82696427159E+02  0.00000000000E+00 0. -1.
</event>
<event>
 7    1  0.6888431E-006  0.8427814E+02  0.7818608E-02  0.1393067E+00
          2   -1    0    0  502    0  0.00000000000E+00  0.00000000000E+00  0.14122415975E+04  0.14122415975E+04  0.00000000000E+00 0. -1.
          1   -1    0    0  501    0 -0.00000000000E+00 -0.00000000000E+00 -0.44865411828E+03  0.44865411828E+03  0.00000000000E+00 0. -1.
         25    2    1    2    0    0  0.11649840222E+03  0.34092977508E+02  0.55758461055E+03  0.58417475578E+03  0.12500135411E+03 0.  0.
          2    1    1    2  501    0 -0.72827770274E+02 -0.41934940735E+02 -0.43071025857E+03  0.43883225749E+03  0.00000000000E+00 0. -1.
          1    1    1    2  502    0 -0.43670631949E+02  0.78419632274E+01  0.83671312721E+03  0.83788870247E+03  0.00000000000E+00 0. -1.
         22    1    3    3    0    0  0.11854554732E+03  0.68746198262E+02  0.40035387821E+03  0.42315755265E+03  0.00000000000E+00 0. -1.
         22    1    3    3    0    0 -0.20471450970E+01 -0.34653220754E+02  0.15723073235E+03  0.16101720313E+03  0.00000000000E+00 0. -1.
</event>
<event>
 7    1  0.6888431E-006  0.9065709E+02  0.7818608E-02  0.1370351E+00
          2   -1    0    0  502    0  0.00000000000E+00  0.00000000000E+00  0.59355599366E+03  0.59355599366E+03  0.00000000000E+00 0. -1.
          1   -1    0    0  501    0 -0.00000000000E+00 -0.00000000000E+00 -0.15891276793E+03  0.15891276793E+03  0.00000000000E+00 0. -1.
         25    2    1    2    0    0 -0.12465376350E+03  0.13450773912E+02  0.20505712254E+03  0.27091139844E+03  0.12500031291E+03 0.  0.
          2    1    1    2  501    0  0.86761232482E+02  0.18583960321E+02 -0.10832328454E+03  0.14002431581E+03  0.00000000000E+00 0. -1.
          1    1    1    2  502    0  0.37892531015E+02 -0.32034734233E+02  0.33790938773E+03  0.34153304734E+03  0.00000000000E+00 0. -1.
         22    1    3    3    0    0 -0.19284798251E+02  0.17507944691E+02 -0.12691582728E+02  0.28974261734E+02  0.00000000000E+00 0.  1.
         22    1    3    3    0    0 -0.10536896525E+03 -0.40571707795E+01  0.21774870527E+03  0.24193713671E+03  0.00000000000E+00 0.  1.
</event>
<event>
 7    1  0.6888431E-006  0.1057744E+03  0.7818608E-02  0.1348114E+00
          2   -1    0    0  502    0  0.00000000000E+00  0.00000000000E+00  0.19171317152E+03  0.19171317152E+03  0.00000000000E+00 0. -1.
          1   -1    0    0  501    0 -0.00000000000E+00 -0.00000000000E+00 -0.87114154950E+03  0.87114154950E+03  0.00000000000E+00 0. -1.
         25    2    1    2    0    0  0.26110812092E+02 -0.10635938073E+03 -0.21951757592E+03  0.27532815147E+03  0.12499412977E+03 0.  0.
          2    1    1    2  501    0  0.43961088549E+02  0.26396580151E+02 -0.60526755963E+03  0.60743573774E+03  0.00000000000E+00 0. -1.
          1    1    1    2  502    0 -0.70071900641E+02  0.79962800577E+02  0.14535675756E+03  0.18009083181E+03  0.00000000000E+00 0. -1.
         22    1    3    3    0    0  0.41465500535E+02 -0.79164918030E+02 -0.22635558236E+03  0.24335842218E+03  0.00000000000E+00 0. -1.
         22    1    3    3    0    0 -0.15354688442E+02 -0.27194462699E+02  0.68380064420E+01  0.31969729288E+02  0.00000000000E+00 0. -1.
</event>
<event>
 7    1  0.6888431E-006  0.7744138E+02  0.7818608E-02  0.1351810E+00
          2   -1    0    0  502    0  0.00000000000E+00  0.00000000000E+00  0.14138713584E+04  0.14138713584E+04  0.00000000000E+00 0. -1.
          1   -1    0    0  501    0 -0.00000000000E+00 -0.00000000000E+00 -0.81031701578E+03  0.81031701578E+03  0.00000000000E+00 0. -1.
         25    2    1    2    0    0  0.54512349027E+01  0.22985265475E+02  0.27915128104E+03  0.30677140050E+03  0.12500086427E+03 0.  0.
          2    1    1    2  501    0  0.53543711316E+02 -0.56527588845E+02 -0.79357279315E+03  0.79738326754E+03  0.00000000000E+00 0. -1.
          1    1    1    2  502    0 -0.58994946218E+02  0.33542323370E+02  0.11179758547E+04  0.11200337061E+04  0.00000000000E+00 0. -1.
         22    1    3    3    0    0  0.52049866618E+02 -0.19271914315E+02  0.76039100313E+02  0.94141064752E+02  0.00000000000E+00 0. -1.
         22    1    3    3    0    0 -0.46598631715E+02  0.42257179790E+02  0.20311218072E+03  0.21263033575E+03  0.00000000000E+00 0. -1.
</event>
<event>
 7    1  0.6888431E-006  0.1871522E+03  0.7818608E-02  0.1374969E+00
          2   -1    0    0  502    0  0.00000000000E+00  0.00000000000E+00  0.61294215046E+03  0.61294215046E+03  0.00000000000E+00 0. -1.
          1   -1    0    0  501    0 -0.00000000000E+00 -0.00000000000E+00 -0.14915572084E+04  0.14915572084E+04  0.00000000000E+00 0. -1.
         25    2    1    2    0    0 -0.13581591121E+03 -0.95923187066E+02  0.81006948589E+02  0.22323234091E+03  0.12499333084E+03 0.  0.
          2    1    1    2  501    0  0.14855739700E+03  0.11523678786E+03 -0.14139273735E+04  0.14263728246E+04  0.00000000000E+00 0. -1.
          1    1    1    2  502    0 -0.12741485787E+02 -0.19313600796E+02  0.45430536695E+03  0.45489419328E+03  0.00000000000E+00 0. -1.
         22    1    3    3    0    0 -0.74839309137E+02 -0.10960596588E+03  0.17045100033E+02  0.13380928736E+03  0.00000000000E+00 0.  1.
         22    1    3    3    0    0 -0.60976602071E+02  0.13682778810E+02  0.63961848556E+02  0.89423053553E+02  0.00000000000E+00 0.  1.
</event>
<event>
 7    1  0.6888431E-006  0.1503939E+03  0.7818608E-02  0.1284183E+00
          2   -1    0    0  502    0  0.00000000000E+00  0.00000000000E+00  0.27627879541E+04  0.27627879541E+04  0.00000000000E+00 0. -1.
          1   -1    0    0  501    0 -0.00000000000E+00 -0.00000000000E+00 -0.16414169377E+03  0.16414169377E+03  0.00000000000E+00 0. -1.
         25    2    1    2    0    0  0.75131855208E+02  0.97786588007E+02  0.13937345542E+03  0.22418077956E+03  0.12500019755E+03 0.  0.
          2    1    1    2  501    0 -0.44437738614E+02 -0.15404419816E+03 -0.68369037332E+02  0.17429472988E+03  0.00000000000E+00 0. -1.
          1    1    1    2  502    0 -0.30694116594E+02  0.56257610151E+02  0.25276418423E+04  0.25284541384E+04  0.00000000000E+00 0. -1.
         22    1    3    3    0    0  0.58142531493E+02  0.82441083580E+01  0.12985794585E+01  0.58738450777E+02  0.00000000000E+00 0. -1.
         22    1    3    3    0    0  0.16989323715E+02  0.89542479649E+02  0.13807487596E+03  0.16544232879E+03  0.00000000000E+00 0. -1.
</event>
<event>
 7    1  0.6888431E-006  0.7647956E+02  0.7818608E-02  0.1412959E+00
          2   -1    0    0  502    0  0.00000000000E+00  0.00000000000E+00  0.23295678157E+04  0.23295678157E+04  0.00000000000E+00 0. -1.
          1   -1    0    0  501    0 -0.00000000000E+00 -0.00000000000E+00 -0.31854360102E+03  0.31854360102E+03  0.00000000000E+00 0. -1.
         25    2    1    2    0    0  0.37160715481E+02 -0.20167176048E+02  0.71078137268E+03  0.72292634136E+03  0.12499880605E+03 0.  0.
          2    1    1    2  501    0  0.41515506875E+02 -0.48433755262E+01 -0.31001120258E+03  0.31281614620E+03  0.00000000000E+00 0. -1.
          1    1    1    2  502    0 -0.78676222356E+02  0.25010551574E+02  0.16102540446E+04  0.16123689292E+04  0.00000000000E+00 0. -1.
         22    1    3    3    0    0  0.53665801151E+01 -0.21289511792E+02  0.67374220634E+03  0.67409984728E+03  0.00000000000E+00 0. -1.
         22    1    3    3    0    0  0.31794135366E+02  0.11223357435E+01  0.37039166345E+02  0.48826494086E+02  0.00000000000E+00 0. -1.
</event>
<event>
 7    1  0.6888431E-006  0.3378529E+02  0.7818608E-02  0.1563761E+00
          2   -1    0    0  502    0  0.00000000000E+00  0.00000000000E+00  0.50467187431E+02  0.50467187431E+02  0.00000000000E+00 0. -1.
          1   -1    0    0  501    0 -0.00000000000E+00 -0.00000000000E+00 -0.58486392176E+03  0.58486392176E+03  0.00000000000E+00 0. -1.
         25    2    1    2    0    0  0.49868971036E+01  0.25126828094E+01 -0.11931359013E+03  0.17289202369E+03  0.12499894538E+03 0.  0.
          2    1    1    2  501    0  0.27841036891E+01 -0.34502567880E+02 -0.42626766488E+03  0.42767078524E+03  0.00000000000E+00 0. -1.
          1    1    1    2  502    0 -0.77710007927E+01  0.31989885070E+02  0.11184520687E+02  0.34768300262E+02  0.00000000000E+00 0. -1.
         22    1    3    3    0    0 -0.25494571363E+02 -0.33462607344E+02  0.26294381010E+01  0.42150126975E+02  0.00000000000E+00 0. -1.
         22    1    3    3    0    0  0.30481468467E+02  0.35975290153E+02 -0.12194302823E+03  0.13074189671E+03  0.00000000000E+00 0. -1.
</event>
<event>
 7    1  0.6888431E-006  0.6276948E+02  0.7818608E-02  0.1389773E+00
          2   -1    0    0  502    0  0.00000000000E+00  0.00000000000E+00  0.60070237099E+03  0.60070237099E+03  0.00000000000E+00 0. -1.
          1   -1    0    0  501    0 -0.00000000000E+00 -0.00000000000E+00 -0.21927158178E+04  0.21927158178E+04  0.00000000000E+00 0. -1.
         25    2    1    2    0    0 -0.77182791163E+01  0.98403748414E+01  0.31173693980E+02  0.12943370064E+03  0.12499951542E+03 0.  0.
          2    1    1    2  501    0  0.50925025809E+02  0.36696720006E+02 -0.21411869452E+04  0.21421067999E+04  0.00000000000E+00 0. -1.
          1    1    1    2  502    0 -0.43206746693E+02 -0.46537094848E+02  0.51799980444E+03  0.52187768831E+03  0.00000000000E+00 0. -1.
         22    1    3    3    0    0  0.14001175532E+02  0.36793869560E+02  0.68199918959E+02  0.78746750406E+02  0.00000000000E+00 0.  1.
         22    1    3    3    0    0 -0.21719454648E+02 -0.26953494718E+02 -0.37026224979E+02  0.50686950233E+02  0.00000000000E+00 0.  1.
</event>
<event>
 7    1  0.6888431E-006  0.1799179E+03  0.7818608E-02  0.1245460E+00
          2   -1    0    0  502    0  0.00000000000E+00  0.00000000000E+00  0.14168097550E+04  0.14168097550E+04  0.00000000000E+00 0. -1.
          1   -1    0    0  501    0 -0.00000000000E+00 -0.00000000000E+00 -0.93448664003E+03  0.93448664003E+03  0.00000000000E+00 0. -1.
         25    2    1    2    0    0  0.39376930253E+02 -0.12411979608E+03  0.45750708904E+03  0.49182696857E+03  0.12499905627E+03 0.  0.
          2    1    1    2  501    0 -0.11612051319E+03  0.13888868435E+03 -0.90674256339E+03  0.92463837066E+03  0.00000000000E+00 0. -1.
          1    1    1    2  502    0  0.76743582940E+02 -0.14768888260E+02  0.93155858931E+03  0.93483105580E+03  0.00000000000E+00 0. -1.
         22    1    3    3    0    0  0.59496904290E+01 -0.31296664890E+02  0.32534891993E+03  0.32690487875E+03  0.00000000000E+00 0. -1.
         22    1    3    3    0    0  0.33427239824E+02 -0.92823131194E+02  0.13215816911E+03  0.16492208982E+03  0.00000000000E+00 0. -1.
</event>
<event>
 7    1  0.6888431E-006  0.9779356E+02  0.7818608E-02  0.1301819E+00
          2   -1    0    0  502    0  0.00000000000E+00  0.00000000000E+00  0.55598362386E+03  0.55598362386E+03  0.00000000000E+00 0. -1.
          1   -1    0    0  501    0 -0.00000000000E+00 -0.00000000000E+00 -0.19304594750E+04  0.19304594750E+04  0.00000000000E+00 0. -1.
         25    2    1    2    0    0 -0.81728623416E+02  0.13939355819E+03 -0.56538321451E+03  0.60115984378E+03  0.12499938632E+03 0.  0.
          2    1    1    2  501    0  0.18700324437E+01 -0.83595892650E+02 -0.13414660770E+04  0.13440695689E+04  0.00000000000E+00 0. -1.
          1    1    1    2  502    0  0.79858590973E+02 -0.55797665543E+02  0.53237344040E+03  0.54121368615E+03  0.00000000000E+00 0. -1.
         22    1    3    3    0    0  0.24627580208E+02  0.16614651693E+02 -0.18755073986E+03  0.18988903175E+03  0.00000000000E+00 0.  1.
         22    1    3    3    0    0 -0.10635620362E+03  0.12277890650E+03 -0.37783247465E+03  0.41127081203E+03  0.00000000000E+00 0.  1.
</event>
<event>
 7    1  0.6888431E-006  0.8473287E+02  0.7818608E-02  0.1343867E+00
          2   -1    0    0  502    0  0.00000000000E+00  0.00000000000E+00  0.19539387979E+04  0.19539387979E+04  0.00000000000E+00 0. -1.
          1   -1    0    0  501    0 -0.00000000000E+00 -0.00000000000E+00 -0.12108834668E+03  0.12108834668E+03  0.00000000000E+00 0. -1.
         25    2    1    2    0    0  0.14458999186E+03  0.17628828378E+02  0.53709495663E+03  0.57036216441E+03  0.12499985925E+03 0.  0.
          2    1    1    2  501    0 -0.66370389421E+02  0.14944928227E+01 -0.92620777539E+02  0.11395556385E+03  0.00000000000E+00 0. -1.
          1    1    1    2  502    0 -0.78219602441E+02 -0.19123321201E+02  0.13883762721E+04  0.13907094163E+04  0.00000000000E+00 0. -1.
         22    1    3    3    0    0  0.16579867986E+02  0.48371921733E+02  0.82262166617E+02  0.96859686614E+02  0.00000000000E+00 0.  1.
         22    1    3    3    0    0  0.12801012388E+03 -0.30743093355E+02  0.45483279001E+03  0.47350247779E+03  0.00000000000E+00 0.  1.
</event>
<event>
 7    1  0.6888431E-006  0.8777638E+02  0.7818608E-02  0.1330981E+00
          2   -1    0    0  502    0  0.00000000000E+00  0.00000000000E+00  0.10244618870E+04  0.10244618870E+04  0.00000000000E+00 0. -1.
          1   -1    0    0  501    0 -0.00000000000E+00 -0.00000000000E+00 -0.60804993753E+02  0.60804993753E+02  0.00000000000E+00 0. -1.
         25    2    1    2    0    0 -0.27747128209E+02  0.12627020913E+02  0.23018338923E+03  0.26370051705E+03  0.12499690090E+03 0.  0.
          2    1    1    2  501    0  0.95225422115E+02 -0.36824681951E+02  0.19425816368E+02  0.10392930558E+03  0.00000000000E+00 0. -1.
          1    1    1    2  502    0 -0.67478293906E+02  0.24197661038E+02  0.71404768766E+03  0.71763705813E+03  0.00000000000E+00 0. -1.
         22    1    3    3    0    0 -0.48530333238E+02 -0.26231508303E+02  0.39139596213E+02  0.67640174924E+02  0.00000000000E+00 0.  1.
         22    1    3    3    0    0  0.20783205029E+02  0.38858529215E+02  0.19104379302E+03  0.19606034213E+03  0.00000000000E+00 0.  1.
</event>
<event>
 7    1  0.6888431E-006  0.6785914E+02  0.7818608E-02  0.1496943E+00
          2   -1    0    0  502    0  0.00000000000E+00  0.00000000000E+00  0.37343934203E+04  0.37343934203E+04  0.00000000000E+00 0. -1.
          1   -1    0    0  501    0 -0.00000000000E+00 -0.00000000000E+00 -0.49124175945E+02  0.49124175945E+02  0.00000000000E+00 0. -1.
         25    2    1    2    0    0 -0.84309137436E+02 -0.14576264069E+02  0.14340590209E+03  0.20859207285E+03  0.12499960789E+03 0.  0.
          2    1    1    2  501    0  0.22224867670E+02 -0.12439670311E+02 -0.62024601584E+01  0.26213749301E+02  0.00000000000E+00 0. -1.
          1    1    1    2  502    0  0.62084269766E+02  0.27015934380E+02  0.35480658024E+04  0.35487117740E+04  0.00000000000E+00 0. -1.
         22    1    3    3    0    0  0.27849265142E+02 -0.66976897646E+01  0.31246002499E+01  0.28813256391E+02  0.00000000000E+00 0.  1.
         22    1    3    3    0    0 -0.11215840258E+03 -0.78785743043E+01  0.14028130185E+03  0.17977881646E+03  0.00000000000E+00 0.  1.
</event>
<event>
 7    1  0.6888431E-006  0.6272010E+02  0.7818608E-02  0.1391652E+00
          2   -1    0    0  502    0  0.00000000000E+00  0.00000000000E+00  0.94884237356E+03  0.94884237356E+03  0.00000000000E+00 0. -1.
          1   -1    0    0  501    0 -0.00000000000E+00 -0.00000000000E+00 -0.75077067328E+03  0.75077067328E+03  0.00000000000E+00 0. -1.
         25    2    1    2    0    0  0.21605547820E+01  0.49703913518E+01 -0.12145997898E+03  0.17437567144E+03  0.12499990204E+03 0.  0.
          2    1    1    2  501    0 -0.36157128729E+02  0.48256044481E+02 -0.60025942093E+03  0.60328049546E+03  0.00000000000E+00 0. -1.
          1    1    1    2  502    0  0.33996573947E+02 -0.53226435833E+02  0.91979110018E+03  0.92195687994E+03  0.00000000000E+00 0. -1.
         22    1    3    3    0    0  0.38579183271E+02  0.52548279745E+02 -0.64466772722E+02  0.91682276756E+02  0.00000000000E+00 0. -1.
         22    1    3    3    0    0 -0.36418628489E+02 -0.47577888393E+02 -0.56993206255E+02  0.82693394683E+02  0.00000000000E+00 0. -1.
</event>
<event>
 7    1  0.6888431E-006  0.9866319E+02  0.7818608E-02  0.1386278E+00
          2   -1    0    0  502    0  0.00000000000E+00  0.00000000000E+00  0.20391017840E+04  0.20391017840E+04  0.00000000000E+00 0. -1.
          1   -1    0    0  501    0 -0.00000000000E+00 -0.00000000000E+00 -0.75597134872E+03  0.75597134872E+03  0.00000000000E+00 0. -1.
         25    2    1    2    0    0  0.69765830184E+02  0.11827214262E+03  0.65705125074E+02  0.19697388980E+03  0.12500391602E+03 0.  0.
          2    1    1    2  501    0 -0.25282413450E+02 -0.31030726455E+02 -0.68849864809E+03  0.68966114493E+03  0.00000000000E+00 0. -1.
          1    1    1    2  502    0 -0.44483416734E+02 -0.87241416161E+02  0.19059239583E+04  0.19084380980E+04  0.00000000000E+00 0. -1.
         22    1    3    3    0    0 -0.33098438127E+02  0.57134905499E+02  0.23709302316E+02  0.70157216658E+02  0.00000000000E+00 0.  1.
         22    1    3    3    0    0  0.10286426831E+03  0.61137237117E+02  0.41995822758E+02  0.12681667314E+03  0.00000000000E+00 0.  1.
</event>
<event>
 7    1  0.6888431E-006  0.1826598E+03  0.7818608E-02  0.1328769E+00
          2   -1    0    0  502    0  0.00000000000E+00  0.00000000000E+00  0.22774012645E+04  0.22774012645E+04  0.00000000000E+00 0. -1.
          1   -1    0    0  501    0 -0.00000000000E+00 -0.00000000000E+00 -0.41505160111E+03  0.41505160111E+03  0.00000000000E+00 0. -1.
         25    2    1    2    0    0  0.13849458928E+03 -0.12629299312E+03 -0.11009979728E+03  0.25075427571E+03  0.12500028022E+03 0.  0.
          2    1    1    2  501    0 -0.28976391285E+02 -0.19853145860E+02 -0.22950815953E+03  0.23218047709E+03  0.00000000000E+00 0. -1.
          1    1    1    2  502    0 -0.10951819800E+03  0.14614613898E+03  0.22019576202E+04  0.22095181128E+04  0.00000000000E+00 0. -1.
         22    1    3    3    0    0  0.94464707191E+02 -0.24122380862E+02 -0.48695878806E+01  0.97617534538E+02  0.00000000000E+00 0.  1.
         22    1    3    3    0    0  0.44029882090E+02 -0.10217061226E+03 -0.10523020940E+03  0.15313674117E+03  0.00000000000E+00 0.  1.
</event>
<event>
 7    1  0.6888431E-006  0.1680279E+03  0.7818608E-02  0.1292964E+00
          2   -1    0    0  502    0  0.00000000000E+00  0.00000000000E+00  0.27719393014E+04  0.27719393014E+04  0.00000000000E+00 0. -1.
          1   -1    0    0  501    0 -0.00000000000E+00 -0.00000000000E+00 -0.46735306619E+03  0.46735306619E+03  0.00000000000E+00 0. -1.
         25    2    1    2    0    0  0.11635630055E+02  0.13828434549E+03 -0.53144430043E+02  0.19419282511E+03  0.12501429833E+03 0.  0.
          2    1    1    2  501    0  0.49238767496E+02  0.19124100166E+02 -0.33900118473E+03  0.34309181086E+03  0.00000000000E+00 0. -1.
          1    1    1    2  502    0 -0.60874397551E+02 -0.15740844566E+03  0.26967318499E+04  0.27020077316E+04  0.00000000000E+00 0. -1.
         22    1    3    3    0    0  0.57705249724E+02  0.44077653178E+02  0.75865155659E+01  0.73008839011E+02  0.00000000000E+00 0. -1.
         22    1    3    3    0    0 -0.46069619669E+02  0.94206692314E+02 -0.60730945609E+02  0.12118398610E+03  0.00000000000E+00 0. -1.
</event>
<event>
 7    1  0.6888431E-006  0.3360862E+02  0.7818608E-02  0.1646139E+00
          2   -1    0    0  502    0  0.00000000000E+00  0.00000000000E+00  0.32329590220E+02  0.32329590220E+02  0.00000000000E+00 0. -1.
          1   -1    0    0  501    0 -0.00000000000E+00 -0.00000000000E+00 -0.18308654129E+04  0.18308654129E+04  0.00000000000E+00 0. -1.
         25    2    1    2    0    0 -0.49335088658E+02 -0.11319951337E+02 -0.25738565914E+03  0.29057621066E+03  0.12500025760E+03 0.  0.
          2    1    1    2  501    0  0.33422183546E+02 -0.11502481472E+01 -0.15501346458E+04  0.15504953355E+04  0.00000000000E+00 0. -1.
          1    1    1    2  502    0  0.15912905113E+02  0.12470199484E+02  0.89844822636E+01  0.22123456914E+02  0.00000000000E+00 0. -1.
         22    1    3    3    0    0 -0.18877780367E+02 -0.55322271622E+02 -0.51681799427E+02  0.78025205678E+02  0.00000000000E+00 0.  1.
         22    1    3    3    0    0 -0.30457308291E+02  0.44002320285E+02 -0.20570385971E+03  0.21255100498E+03  0.00000000000E+00 0.  1.
</event>
<event>
 7    1  0.6888431E-006  0.2093883E+03  0.7818608E-02  0.1199954E+00
          2   -1    0    0  502    0  0.00000000000E+00  0.00000000000E+00  0.10806613620E+04  0.10806613620E+04  0.00000000000E+00 0. -1.
          1   -1    0    0  501    0 -0.00000000000E+00 -0.00000000000E+00 -0.14615139371E+04  0.14615139371E+04  0.00000000000E+00 0. -1.
         25    2    1    2    0    0  0.37146435723E+02 -0.18596074966E+03  0.18219498761E+01  0.22713317089E+03  0.12499959886E+03 0.  0.
          2    1    1    2  501    0  0.69887467244E+02  0.20083795755E+03 -0.13374100803E+04  0.13542104217E+04  0.00000000000E+00 0. -1.
          1    1    1    2  502    0 -0.10703390297E+03 -0.14877207897E+02  0.95473555535E+03  0.96083170657E+03  0.00000000000E+00 0. -1.
         22    1    3    3    0    0  0.41373419953E+02 -0.16609085720E+03 -0.44239453887E+02  0.17679101222E+03  0.00000000000E+00 0. -1.
         22    1    3    3    0    0 -0.42269842304E+01 -0.19869892459E+02  0.46061403763E+02  0.50342158661E+02  0.00000000000E+00 0. -1.
</event>
<event>
 7    1  0.6888431E-006  0.1390692E+03  0.7818608E-02  0.1368883E+00
          2   -1    0    0  502    0  0.00000000000E+00  0.00000000000E+00  0.20940479737E+04  0.20940479737E+04  0.00000000000E+00 0. -1.
          1   -1    0    0  501    0 -0.00000000000E+00 -0.00000000000E+00 -0.67625045992E+03  0.67625045992E+03  0.00000000000E+00 0. -1.
         25    2    1    2    0    0  0.77391447616E+02 -0.14987259680E+03  0.25997640756E+03  0.33415750299E+03  0.12498909106E+03 0.  0.
          2    1    1    2  501    0 -0.79879853463E+01  0.31752480349E+02 -0.63612705522E+03  0.63696911880E+03  0.00000000000E+00 0. -1.
          1    1    1    2  502    0 -0.69403462270E+02  0.11812011645E+03  0.17939481614E+04  0.17991718118E+04  0.00000000000E+00 0. -1.
         22    1    3    3    0    0  0.39071365214E+02 -0.40766967444E+02  0.19175058883E+03  0.19989198466E+03  0.00000000000E+00 0. -1.
         22    1    3    3    0    0  0.38320082403E+02 -0.10910562936E+03  0.68225818729E+02  0.13426551834E+03  0.00000000000E+00 0. -1.
</event>
<event>
 7    1  0.6888431E-006  0.7241586E+02  0.7818608E-02  0.1393133E+00
          2   -1    0    0  502    0  0.00000000000E+00  0.00000000000E+00  0.35857014123E+04  0.35857014123E+04  0.00000000000E+00 0. -1.
          1   -1    0    0  501    0 -0.00000000000E+00 -0.00000000000E+00 -0.10436044487E+02  0.10436044487E+02  0.00000000000E+00 0. -1.
         25    2    1    2    0    0 -0.11501408926E+02 -0.24124999437E+02  0.63278156670E+03  0.64556330889E+03  0.12500070649E+03 0.  0.
          2    1    1    2  501    0 -0.52670662064E+02  0.57680960152E+02  0.42936233215E+03  0.43640956002E+03  0.00000000000E+00 0. -1.
          1    1    1    2  502    0  0.64172070989E+02 -0.33555960715E+02  0.25131214689E+04  0.25141645878E+04  0.00000000000E+00 0. -1.
         22    1    3    3    0    0  0.72024933686E+01 -0.40175799320E+02  0.61873965830E+02  0.74123939516E+02  0.00000000000E+00 0.  1.
         22    1    3    3    0    0 -0.18703902294E+02  0.16050799883E+02  0.57090760087E+03  0.57143936937E+03  0.00000000000E+00 0.  1.
</event>
<event>
 7    1  0.6888431E-006  0.1565050E+03  0.7818608E-02  0.1351698E+00
          2   -1    0    0  502    0  0.00000000000E+00  0.00000000000E+00  0.49774094543E+03  0.49774094543E+03  0.00000000000E+00 0. -1.
          1   -1    0    0  501    0 -0.00000000000E+00 -0.00000000000E+00 -0.18496508048E+03  0.18496508048E+03  0.00000000000E+00 0. -1.
         25    2    1    2    0    0 -0.97323677211E+02 -0.15177740506E+03  0.15016619814E+03  0.26586177851E+03  0.12499727749E+03 0.  0.
          2    1    1    2  501    0  0.94623672213E+02  0.11827382920E+03 -0.80425904427E+02  0.17149537638E+03  0.00000000000E+00 0. -1.
          1    1    1    2  502    0  0.27000049977E+01  0.33503575856E+02  0.24303557124E+03  0.24534887102E+03  0.00000000000E+00 0. -1.
         22    1    3    3    0    0  0.12087910765E+02 -0.95639442887E+02  0.64295713819E+02  0.11587475755E+03  0.00000000000E+00 0.  1.
         22    1    3    3    0    0 -0.10941158798E+03 -0.56137962169E+02  0.85870484319E+02  0.14998702096E+03  0.00000000000E+00 0.  1.
</event>
<event>
 7    1  0.6888431E-006  0.2784128E+02  0.7818608E-02  0.1636277E+00
          2   -1    0    0  502    0  0.00000000000E+00  0.00000000000E+00  0.10132015131E+04  0.10132015131E+04  0.00000000000E+00 0. -1.
          1   -1    0    0  501    0 -0.00000000000E+00 -0.00000000000E+00 -0.39259487960E+03  0.39259487960E+03  0.00000000000E+00 0. -1.
         25    2    1    2    0    0 -0.16866767711E+02  0.33834110122E+02  0.64318247063E+03  0.65630695792E+03  0.12500359046E+03 0.  0.
          2    1    1    2  501    0  0.26089879017E+02 -0.97192899929E+01 -0.38507090063E+03  0.38607608693E+03  0.00000000000E+00 0. -1.
          1    1    1    2  502    0 -0.92231113056E+01 -0.24114820129E+02  0.36249506353E+03  0.36341334788E+03  0.00000000000E+00 0. -1.
         22    1    3    3    0    0  0.25032640953E+02 -0.11526484774E+02  0.49508370047E+03  0.49585014211E+03  0.00000000000E+00 0.  1.
         22    1    3    3    0    0 -0.41899408664E+02  0.45360594896E+02  0.14809877016E+03  0.16045681581E+03  0.00000000000E+00 0.  1.
</event>
<event>
 7    1  0.6888431E-006  0.1251396E+03  0.7818608E-02  0.1250043E+00
          2   -1    0    0  502    0  0.00000000000E+00  0.00000000000E+00  0.22936111796E+03  0.22936111796E+03  0.00000000000E+00 0. -1.
          1   -1    0    0  501    0 -0.00000000000E+00 -0.00000000000E+00 -0.95892128936E+03  0.95892128936E+03  0.00000000000E+00 0. -1.
         25    2    1    2    0    0  0.36239708710E+02 -0.14807284178E+03 -0.32669462141E+03  0.38157160050E+03  0.12501450993E+03 0.  0.
          2    1    1    2  501    0  0.70330959735E+02  0.81057191496E+02 -0.57975140782E+03  0.58960020952E+03  0.00000000000E+00 0. -1.
          1    1    1    2  502    0 -0.10657066845E+03  0.67015650280E+02  0.17688585784E+03  0.21711059730E+03  0.00000000000E+00 0. -1.
         22    1    3    3    0    0 -0.82546893199E+01 -0.78250477364E+00  0.90351650618E+01  0.12263213983E+02  0.00000000000E+00 0. -1.
         22    1    3    3    0    0  0.44494398030E+02 -0.14729033700E+03 -0.33572978647E+03  0.36930838652E+03  0.00000000000E+00 0. -1.
</event>
<event>
 7    1  0.6888431E-006  0.1482761E+03  0.7818608E-02  0.1353109E+00
          2   -1    0    0  502    0  0.00000000000E+00  0.00000000000E+00  0.63268574945E+03  0.63268574945E+03  0.00000000000E+00 0. -1.
          1   -1    0    0  501    0 -0.00000000000E+00 -0.00000000000E+00 -0.14089029120E+04  0.14089029120E+04  0.00000000000E+00 0. -1.
         25    2    1    2    0    0  0.31237721721E+02 -0.16977488991E+03  0.13871784922E+01  0.21313445959E+03  0.12500026040E+03 0.  0.
          2    1    1    2  501    0 -0.48424835663E+02  0.13922285927E+03 -0.12982692846E+04  0.13066105405E+04  0.00000000000E+00 0. -1.
          1    1    1    2  502    0  0.17187113942E+02  0.30552030639E+02  0.52066494354E+03  0.52184366136E+03  0.00000000000E+00 0. -1.
         22    1    3    3    0    0 -0.20590041961E+02 -0.15085543463E+03 -0.20798151465E+02  0.15366806790E+03  0.00000000000E+00 0. -1.
         22    1    3    3    0    0  0.51827763682E+02 -0.18919455271E+02  0.22185329958E+02  0.59466391697E+02  0.00000000000E+00 0. -1.
</event>
<event>
 7    1  0.6888431E-006  0.9712000E+02  0.7818608E-02  0.1296108E+00
          2   -1    0    0  502    0  0.00000000000E+00  0.00000000000E+00  0.33004392996E+04  0.33004392996E+04  0.00000000000E+00 0. -1.
          1   -1    0    0  501    0 -0.00000000000E+00 -0.00000000000E+00 -0.80379866385E+02  0.80379866385E+02  0.00000000000E+00 0. -1.
         25    2    1    2    0    0  0.15449865740E+03  0.88533726310E+02  0.91127352965E+03  0.93688454641E+03  0.12500060655E+03 0.  0.
          2    1    1    2  501    0 -0.83121643076E+02 -0.31117275163E+02 -0.37145968866E+02  0.96214943560E+02  0.00000000000E+00 0. -1.
          1    1    1    2  502    0 -0.71377014327E+02 -0.57416451147E+02  0.23459318725E+04  0.23477196760E+04  0.00000000000E+00 0. -1.
         22    1    3    3    0    0  0.25559166126E+02 -0.27393110941E+02  0.26985380682E+03  0.27244216002E+03  0.00000000000E+00 0.  1.
         22    1    3    3    0    0  0.12893949128E+03  0.11592683725E+03  0.64141972282E+03  0.66444238639E+03  0.00000000000E+00 0.  1.
</event>
<event>
 7    1  0.6888431E-006  0.5982285E+02  0.7818608E-02  0.1539267E+00
          2   -1    0    0  502    0  0.00000000000E+00  0.00000000000E+00  0.44626992636E+03  0.44626992636E+03  0.00000000000E+00 0. -1.
          1   -1    0    0  501    0 -0.00000000000E+00 -0.00000000000E+00 -0.23565991845E+03  0.23565991845E+03  0.00000000000E+00 0. -1.
         25    2    1    2    0    0  0.95908209779E+01  0.63524044453E+02 -0.80583262788E+02  0.16200332379E+03  0.12499650638E+03 0.  0.
          2    1    1    2  501    0 -0.28301772643E+02 -0.52429740419E+02 -0.10628916170E+03  0.12184930820E+03  0.00000000000E+00 0. -1.
          1    1    1    2  502    0  0.18710951665E+02 -0.11094304034E+02  0.39748243240E+03  0.39807721281E+03  0.00000000000E+00 0. -1.
         22    1    3    3    0    0  0.97206717057E+01  0.82836705878E+02 -0.10292165270E+03  0.13247368755E+03  0.00000000000E+00 0. -1.
         22    1    3    3    0    0 -0.12985072782E+00 -0.19312661425E+02  0.22338389914E+02  0.29529636240E+02  0.00000000000E+00 0. -1.
</event>
<event>
 7    1  0.6888431E-006  0.1692069E+03  0.7818608E-02  0.1183728E+00
          2   -1    0    0  502    0  0.00000000000E+00  0.00000000000E+00  0.77562006462E+03  0.77562006462E+03  0.00000000000E+00 0. -1.
          1   -1    0    0  501    0 -0.00000000000E+00 -0.00000000000E+00 -0.29107712613E+03  0.29107712613E+03  0.00000000000E+00 0. -1.
         25    2    1    2    0    0 -0.39612963924E+02 -0.84760478547E+02  0.12686640261E+03  0.20117651638E+03  0.12499352383E+03 0.  0.
          2    1    1    2  501    0 -0.15937678921E+03 -0.12785013768E+02 -0.20546278278E+03  0.26034471883E+03  0.00000000000E+00 0. -1.
          1    1    1    2  502    0  0.19898975313E+03  0.97545492315E+02  0.56313931867E+03  0.60517595553E+03  0.00000000000E+00 0. -1.
         22    1    3    3    0    0 -0.40922786909E+02 -0.46506587172E+02 -0.66295502498E+01  0.62301589669E+02  0.00000000000E+00 0.  1.
         22    1    3    3    0    0  0.13098229855E+01 -0.38253891375E+02  0.13349595286E+03  0.13887492672E+03  0.00000000000E+00 0.  1.
</event>
<event>
 7    1  0.6888431E-006  0.5130164E+02  0.7818608E-02  0.1524977E+00
          2   -1    0    0  502    0  0.00000000000E+00  0.00000000000E+00  0.10315835604E+04  0.10315835604E+04  0.00000000000E+00 0. -1.
          1   -1    0    0  501    0 -0.00000000000E+00 -0.00000000000E+00 -0.58845408485E+02  0.58845408485E+02  0.00000000000E+00 0. -1.
         25    2    1    2    0    0 -0.90661885221E+01 -0.25521277059E+02  0.90996189443E+03  0.91890555581E+03  0.12499295910E+03 0.  0.
          2    1    1    2  501    0  0.33053815763E+02  0.39702902472E+02 -0.39809546561E+02  0.65220205448E+02  0.00000000000E+00 0. -1.
          1    1    1    2  502    0 -0.23987627241E+02 -0.14181625414E+02  0.10258580403E+03  0.10630320761E+03  0.00000000000E+00 0. -1.
         22    1    3    3    0    0 -0.37157427936E+02 -0.42552282612E+02  0.83682464809E+03  0.83872931441E+03  0.00000000000E+00 0.  1.
         22    1    3    3    0    0  0.28091239414E+02  0.17031005553E+02  0.73137246339E+02  0.80176241394E+02  0.00000000000E+00 0.  1.
</event>
<event>
 7    1  0.6888431E-006  0.7289621E+02  0.7818608E-02  0.1520583E+00
          2   -1    0    0  502    0  0.00000000000E+00  0.00000000000E+00  0.91465204573E+02  0.91465204573E+02  0.00000000000E+00 0. -1.
          1   -1    0    0  501    0 -0.00000000000E+00 -0.00000000000E+00 -0.41784645870E+03  0.41784645870E+03  0.00000000000E+00 0. -1.
         25    2    1    2    0    0 -0.52906517699E+02 -0.15290234555E+02 -0.34412334777E+02  0.14086461804E+03  0.12500296374E+03 0.  0.
          2    1    1    2  501    0  0.69124906529E+02  0.27321394954E+02 -0.32299009054E+03  0.33143221013E+03  0.00000000000E+00 0. -1.
          1    1    1    2  502    0 -0.16218388830E+02 -0.12031160399E+02  0.31021171181E+02  0.37014835110E+02  0.00000000000E+00 0. -1.
         22    1    3    3    0    0  0.26204443289E+02  0.11624228196E+02  0.25238941667E+02  0.38194236551E+02  0.00000000000E+00 0. -1.
         22    1    3    3    0    0 -0.79110960988E+02 -0.26914462752E+02 -0.59651276444E+02  0.10267038149E+03  0.00000000000E+00 0. -1.
</event>
<event>
 7    1  0.6888431E-006  0.6130738E+02  0.7818608E-02  0.1538894E+00
          2   -1    0    0  502    0  0.00000000000E+00  0.00000000000E+00  0.50904863764E+03  0.50904863764E+03  0.00000000000E+00 0. -1.
          1   -1    0    0  501    0 -0.00000000000E+00 -0.00000000000E+00 -0.97555910119E+02  0.97555910119E+02  0.00000000000E+00 0. -1.
         25    2    1    2    0    0 -0.88416955164E+01 -0.48790036026E+02  0.11630437580E+03  0.17776449935E+03  0.12495945824E+03 0.  0.
          2    1    1    2  501    0  0.16647271944E+02 -0.13251791435E+02 -0.62346943136E+02  0.65877788046E+02  0.00000000000E+00 0. -1.
          1    1    1    2  502    0 -0.78055764273E+01  0.62041827461E+02  0.35753529486E+03  0.36296226037E+03  0.00000000000E+00 0. -1.
         22    1    3    3    0    0 -0.51188541074E+02 -0.43026653179E+02  0.16032441337E+02  0.68764807833E+02  0.00000000000E+00 0. -1.
         22    1    3    3    0    0  0.42346845557E+02 -0.57633828469E+01  0.10027193446E+03  0.10899969152E+03  0.00000000000E+00 0. -1.
</event>
<event>
 7    1  0.6888431E-006  0.8354323E+02  0.7818608E-02  0.1322345E+00
          2   -1    0    0  502    0  0.00000000000E+00  0.00000000000E+00  0.11210882705E+04  0.11210882705E+04  0.00000000000E+00 0. -1.
          1   -1    0    0  501    0 -0.00000000000E+00 -0.00000000000E+00 -0.16057318803E+03  0.16057318803E+03  0.00000000000E+00 0. -1.
         25    2    1    2    0    0  0.26463182857E+02  0.76113569311E+02 -0.56954189055E+02  0.15925573008E+03  0.12500012973E+03 0.  0.
          2    1    1    2  501    0  0.56762558482E+02 -0.83390020509E+02 -0.63693894699E+00  0.10087759542E+03  0.00000000000E+00 0. -1.
          1    1    1    2  502    0 -0.83225741339E+02  0.72764511979E+01  0.10181062104E+04  0.10215281330E+04  0.00000000000E+00 0. -1.
         22    1    3    3    0    0  0.64370870654E+02  0.67514133123E+02 -0.71728091776E+02  0.11767194360E+03  0.00000000000E+00 0. -1.
         22    1    3    3    0    0 -0.37907687796E+02  0.85994361877E+01  0.14773902721E+02  0.41583786485E+02  0.00000000000E+00 0. -1.
</event>
<event>
 7    1  0.6888431E-006  0.6710849E+02  0.7818608E-02  0.1423130E+00
          2   -1    0    0  502    0  0.00000000000E+00  0.00000000000E+00  0.18398683724E+03  0.18398683724E+03  0.00000000000E+00 0. -1.
          1   -1    0    0  501    0 -0.00000000000E+00 -0.00000000000E+00 -0.75327548556E+03  0.75327548556E+03  0.00000000000E+00 0. -1.
         25    2    1    2    0    0 -0.85291781069E+01  0.88458579798E+02 -0.19745678002E+03  0.25002515515E+03  0.12500292402E+03 0.  0.
          2    1    1    2  501    0  0.34737988675E+02 -0.27069977917E+02 -0.52150150850E+03  0.52335775043E+03  0.00000000000E+00 0. -1.
          1    1    1    2  502    0 -0.26208810568E+02 -0.61388601881E+02  0.14966964020E+03  0.16387941722E+03  0.00000000000E+00 0. -1.
         22    1    3    3    0    0  0.37017976030E+02 -0.13130073872E+02 -0.74038240837E+02  0.83811636993E+02  0.00000000000E+00 0. -1.
         22    1    3    3    0    0 -0.45547154137E+02  0.10158865367E+03 -0.12341853919E+03  0.16621351816E+03  0.00000000000E+00 0. -1.
</event>
<event>
 7    1  0.6888431E-006  0.6178052E+02  0.7818608E-02  0.1451975E+00
          2   -1    0    0  502    0  0.00000000000E+00  0.00000000000E+00  0.13154177558E+04  0.13154177558E+04  0.00000000000E+00 0. -1.
          1   -1    0    0  501    0 -0.00000000000E+00 -0.00000000000E+00 -0.61981673981E+02  0.61981673981E+02  0.00000000000E+00 0. -1.
         25    2    1    2    0    0  0.77988905757E+02 -0.19882532701E+02  0.12655198771E+03  0.19523725062E+03  0.12499837562E+03 0.  0.
          2    1    1    2  501    0 -0.32171536596E+02 -0.21206738012E+02 -0.12963418697E+02  0.40654442910E+02  0.00000000000E+00 0. -1.
          1    1    1    2  502    0 -0.45817369161E+02  0.41089270713E+02  0.11398475128E+04  0.11415077362E+04  0.00000000000E+00 0. -1.
         22    1    3    3    0    0  0.30565114983E+02 -0.58733491054E+02  0.11522552584E+03  0.13289383368E+03  0.00000000000E+00 0.  1.
         22    1    3    3    0    0  0.47423790774E+02  0.38850958353E+02  0.11326461869E+02  0.62343416932E+02  0.00000000000E+00 0.  1.
</event>
<event>
 7    1  0.6888431E-006  0.7679845E+02  0.7818608E-02  0.1382340E+00
          2   -1    0    0  502    0  0.00000000000E+00  0.00000000000E+00  0.54696584945E+03  0.54696584945E+03  0.00000000000E+00 0. -1.
          1   -1    0    0  501    0 -0.00000000000E+00 -0.00000000000E+00 -0.56491690205E+03  0.56491690205E+03  0.00000000000E+00 0. -1.
         25    2    1    2    0    0 -0.96263362443E+02  0.50297950631E+02 -0.13812731180E+03  0.21563901362E+03  0.12499804456E+03 0.  0.
          2    1    1    2  501    0  0.74734744821E+02 -0.17698802266E+01 -0.38302387588E+03  0.39025082198E+03  0.00000000000E+00 0. -1.
          1    1    1    2  502    0  0.21528617622E+02 -0.48528070404E+02  0.50320013508E+03  0.50599291590E+03  0.00000000000E+00 0. -1.
         22    1    3    3    0    0 -0.12307485546E+01 -0.68772871959E+01 -0.97155893744E+02  0.97406773432E+02  0.00000000000E+00 0.  1.
         22    1    3    3    0    0 -0.95032613889E+02  0.57175237827E+02 -0.40971418055E+02  0.11823224019E+03  0.00000000000E+00 0.  1.
</event>
<event>
 7    1  0.6888431E-006  0.1024188E+03  0.7818608E-02  0.1344312E+00
          2   -1    0    0  502    0  0.00000000000E+00  0.00000000000E+00  0.16933889118E+04  0.16933889118E+04  0.00000000000E+00 0. -1.
          1   -1    0    0  501    0 -0.00000000000E+00 -0.00000000000E+00 -0.32658040910E+02  0.32658040910E+02  0.00000000000E+00 0. -1.
         25    2    1    2    0    0 -0.10867805325E+03 -0.95932612182E+02  0.92130232999E+03  0.94097685051E+03  0.12500185842E+03 0.  0.
          2    1    1    2  501    0  0.40258403261E+02  0.37051821297E+02  0.17389647638E+02  0.57410594314E+02  0.00000000000E+00 0. -1.
          1    1    1    2  502    0  0.68419649985E+02  0.58880790885E+02  0.72203889327E+03  0.72765950789E+03  0.00000000000E+00 0. -1.
         22    1    3    3    0    0 -0.22156182246E+02 -0.10223470350E+03  0.49235635741E+03  0.50334641520E+03  0.00000000000E+00 0.  1.
         22    1    3    3    0    0 -0.86521870999E+02  0.63020913139E+01  0.42894597258E+03  0.43763043531E+03  0.00000000000E+00 0.  1.
</event>
<event>
 7    1  0.6888431E-006  0.5175110E+02  0.7818608E-02  0.1491525E+00
          2   -1    0    0  502    0  0.00000000000E+00  0.00000000000E+00  0.22074418175E+02  0.22074418175E+02  0.00000000000E+00 0. -1.
          1   -1    0    0  501    0 -0.00000000000E+00 -0.00000000000E+00 -0.25636046463E+04  0.25636046463E+04  0.00000000000E+00 0. -1.
         25    2    1    2    0    0  0.68989374115E+02 -0.16264021294E+02 -0.11173257120E+04  0.11265287466E+04  0.12500487205E+03 0.  0.
          2    1    1    2  501    0 -0.38497990386E+02  0.32773966242E+02 -0.14235727875E+04  0.14244703260E+04  0.00000000000E+00 0. -1.
          1    1    1    2  502    0 -0.30491383729E+02 -0.16509944948E+02 -0.63172864640E+00  0.34679991998E+02  0.00000000000E+00 0. -1.
         22    1    3    3    0    0  0.72825126533E+02 -0.59661592537E+02 -0.59643519666E+03  0.60381946680E+03  0.00000000000E+00 0.  1.
         22    1    3    3    0    0 -0.38357524183E+01  0.43397571243E+02 -0.52089051532E+03  0.52270927975E+03  0.00000000000E+00 0.  1.
</event>
<event>
 7    1  0.6888431E-006  0.1175050E+03  0.7818608E-02  0.1255559E+00
          2   -1    0    0  502    0  0.00000000000E+00  0.00000000000E+00  0.10781340817E+03  0.10781340817E+03  0.00000000000E+00 0. -1.
          1   -1    0    0  501    0 -0.00000000000E+00 -0.00000000000E+00 -0.18128173780E+04  0.18128173780E+04  0.00000000000E+00 0. -1.
         25    2    1    2    0    0 -0.22591766713E+02 -0.90193950242E+02 -0.46602730550E+03  0.49137765438E+03  0.12500085266E+03 0.  0.
          2    1    1    2  501    0  0.10817640684E+03  0.16343843524E+01 -0.12910247670E+04  0.12955499818E+04  0.00000000000E+00 0. -1.
          1    1    1    2  502    0 -0.85584640122E+02  0.88559565890E+02  0.52048102677E+02  0.13370315003E+03  0.00000000000E+00 0. -1.
         22    1    3    3    0    0 -0.21563910152E+02  0.19732214582E+02 -0.21966861835E+03  0.22160474814E+03  0.00000000000E+00 0. -1.
         22    1    3    3    0    0 -0.10278565603E+01 -0.10992616482E+03 -0.24635868715E+03  0.26977290623E+03  0.00000000000E+00 0. -1.
</event>
<event>
 7    1  0.6888431E-006  0.6724083E+02  0.7818608E-02  0.1531625E+00
          2   -1    0    0  502    0  0.00000000000E+00  0.00000000000E+00  0.45712096450E+03  0.45712096450E+03  0.00000000000E+00 0. -1.
          1   -1    0    0  501    0 -0.00000000000E+00 -0.00000000000E+00 -0.73842360576E+02  0.73842360576E+02  0.00000000000E+00 0. -1.
         25    2    1    2    0    0 -0.43330951949E+02  0.30162857215E+02  0.89460967645E+01  0.13598627930E+03  0.12499946464E+03 0.  0.
          2    1    1    2  501    0 -0.19774175337E+02 -0.47909706085E+01  0.71771447611E+01  0.21575050789E+02  0.00000000000E+00 0. -1.
          1    1    1    2  502    0  0.63105127286E+02 -0.25371886607E+02  0.36715536240E+03  0.37340199498E+03  0.00000000000E+00 0. -1.
         22    1    3    3    0    0 -0.51917737528E+02  0.73814403309E+02  0.13569092457E+02  0.91258631789E+02  0.00000000000E+00 0.  1.
         22    1    3    3    0    0  0.85867855799E+01 -0.43651546094E+02 -0.46229956923E+01  0.44727647514E+02  0.00000000000E+00 0.  1.
</event>
<event>
 7    1  0.6888431E-006  0.1179600E+03  0.7818608E-02  0.1329271E+00
          2   -1    0    0  502    0  0.00000000000E+00  0.00000000000E+00  0.87765445617E+03  0.87765445617E+03  0.00000000000E+00 0. -1.
          1   -1    0    0  501    0 -0.00000000000E+00 -0.00000000000E+00 -0.20292146587E+04  0.20292146587E+04  0.00000000000E+00 0. -1.
         25    2    1    2    0    0  0.73917159973E+02  0.10874007944E+03  0.65708145812E+03  0.68166733381E+03  0.12500463978E+03 0.  0.
          2    1    1    2  501    0 -0.54082835302E+02 -0.27099500732E+01 -0.20025646162E+04  0.20032966178E+04  0.00000000000E+00 0. -1.
          1    1    1    2  502    0 -0.19834324671E+02 -0.10603012937E+03  0.19392295556E+03  0.22190516322E+03  0.00000000000E+00 0. -1.
         22    1    3    3    0    0  0.53610902078E+02 -0.15227005386E+02  0.21091626560E+03  0.21815513198E+03  0.00000000000E+00 0. -1.
         22    1    3    3    0    0  0.20306257895E+02  0.12396708483E+03  0.44616519252E+03  0.46351220183E+03  0.00000000000E+00 0. -1.
</event>
<event>
 7    1  0.6888431E-006  0.1420198E+03  0.7818608E-02  0.1416764E+00
          2   -1    0    0  502    0  0.00000000000E+00  0.00000000000E+00  0.23369491738E+04  0.23369491738E+04  0.00000000000E+00 0. -1.
          1   -1    0    0  501    0 -0.00000000000E+00 -0.00000000000E+00 -0.17105712274E+03  0.17105712274E+03  0.00000000000E+00 0. -1.
         25    2    1    2    0    0 -0.14134685321E+03 -0.39735898414E+02  0.68228689141E+03  0.70901634194E+03  0.12502358345E+03 0.  0.
          2    1    1    2  501    0  0.12944295672E+03  0.58063809724E+02 -0.12569472700E+03  0.18954168259E+03  0.00000000000E+00 0. -1.
          1    1    1    2  502    0  0.11903896494E+02 -0.18327911310E+02  0.16092998866E+04  0.16094482720E+04  0.00000000000E+00 0. -1.
         22    1    3    3    0    0 -0.54485212188E+02 -0.77108451448E+02  0.27024845691E+03  0.28626662413E+03  0.00000000000E+00 0. -1.
         22    1    3    3    0    0 -0.86861641026E+02  0.37372553034E+02  0.41203843450E+03  0.42274971781E+03  0.00000000000E+00 0. -1.
</event>
<event>
 7    1  0.6888431E-006  0.7863238E+02  0.7818608E-02  0.1445967E+00
          2   -1    0    0  502    0  0.00000000000E+00  0.00000000000E+00  0.30393415977E+03  0.30393415977E+03  0.00000000000E+00 0. -1.
          1   -1    0    0  501    0 -0.00000000000E+00 -0.00000000000E+00 -0.53842976050E+03  0.53842976050E+03  0.00000000000E+00 0. -1.
         25    2    1    2    0    0  0.88021070264E+02 -0.44129654582E+02 -0.53841772917E+02  0.16799208586E+03  0.12500907638E+03 0.  0.
          2    1    1    2  501    0 -0.11702918565E+02  0.29403109563E+02 -0.42078568940E+03  0.42197404845E+03  0.00000000000E+00 0. -1.
          1    1    1    2  502    0 -0.76318151699E+02  0.14726545019E+02  0.24013186159E+03  0.25239778596E+03  0.00000000000E+00 0. -1.
         22    1    3    3    0    0  0.58028420320E+02  0.23440465606E+02  0.17779662534E+02  0.65060505627E+02  0.00000000000E+00 0. -1.
         22    1    3    3    0    0  0.29992649945E+02 -0.67570120189E+02 -0.71621435451E+02  0.10293158023E+03  0.00000000000E+00 0. -1.
</event>
<event>
 7    1  0.6888431E-006  0.2803847E+02  0.7818608E-02  0.1657155E+00
          2   -1    0    0  502    0  0.00000000000E+00  0.00000000000E+00  0.72437681123E+03  0.72437681123E+03  0.00000000000E+00 0. -1.
          1   -1    0    0  501    0 -0.00000000000E+00 -0.00000000000E+00 -0.11367527901E+02  0.11367527901E+02  0.00000000000E+00 0. -1.
         25    2    1    2    0    0 -0.75950869305E+01 -0.25263376142E+02  0.54210325892E+03  0.55695127426E+03  0.12499141988E+03 0.  0.
          2    1    1    2  501    0 -0.15177711149E+02  0.25557007179E+02  0.99121991653E+02  0.10348281384E+03  0.00000000000E+00 0. -1.
          1    1    1    2  502    0  0.22772798080E+02 -0.29363103700E+00  0.71784032759E+02  0.75310251034E+02  0.00000000000E+00 0. -1.
         22    1    3    3    0    0 -0.59342465177E+02 -0.16273833124E+02  0.16301694431E+03  0.17424376589E+03  0.00000000000E+00 0.  1.
         22    1    3    3    0    0  0.51747378247E+02 -0.89895430184E+01  0.37908631461E+03  0.38270750837E+03  0.00000000000E+00 0.  1.
</event>
<event>
 7    1  0.6888431E-006  0.9560685E+02  0.7818608E-02  0.1364150E+00
          2   -1    0    0  502    0  0.00000000000E+00  0.00000000000E+00  0.90107038819E+03  0.90107038819E+03  0.00000000000E+00 0. -1.
          1   -1    0    0  501    0 -0.00000000000E+00 -0.00000000000E+00 -0.31715402138E+03  0.31715402138E+03  0.00000000000E+00 0. -1.
         25    2    1    2    0    0  0.53006406539E+02  0.25318331387E+01  0.13321294908E+03  0.19022850283E+03  0.12500041669E+03 0.  0.
          2    1    1    2  501    0  0.45264362062E+02  0.20130972293E+02 -0.28304587570E+03  0.28734837092E+03  0.00000000000E+00 0. -1.
          1    1    1    2  502    0 -0.98270768601E+02 -0.22662805432E+02  0.73374929343E+03  0.74064753583E+03  0.00000000000E+00 0. -1.
         22    1    3    3    0    0  0.64290286036E+02  0.50072335312E+02  0.56078670691E+02  0.98920659868E+02  0.00000000000E+00 0.  1.
         22    1    3    3    0    0 -0.11283879497E+02 -0.47540502173E+02  0.77134278391E+02  0.91307842962E+02  0.00000000000E+00 0.  1.
</event>
<event>
 7    1  0.6888431E-006  0.1194620E+03  0.7818608E-02  0.1278970E+00
          2   -1    0    0  502    0  0.00000000000E+00  0.00000000000E+00  0.21302840978E+04  0.21302840978E+04  0.00000000000E+00 0. -1.
          1   -1    0    0  501    0 -0.00000000000E+00 -0.00000000000E+00 -0.11666085681E+04  0.11666085681E+04  0.00000000000E+00 0. -1.
         25    2    1    2    0    0  0.19854346571E+03 -0.34107947568E+02  0.13096513046E+03  0.27085042110E+03  0.12500090140E+03 0.  0.
          2    1    1    2  501    0 -0.81743256634E+02  0.22458448378E+02 -0.10932382127E+04  0.10965200097E+04  0.00000000000E+00 0. -1.
          1    1    1    2  502    0 -0.11680020908E+03  0.11649499190E+02  0.19259486120E+04  0.19295222351E+04  0.00000000000E+00 0. -1.
         22    1    3    3    0    0  0.26768739424E+02  0.40349295982E+02  0.39477047926E+02  0.62474542091E+02  0.00000000000E+00 0.  1.
         22    1    3    3    0    0  0.17177472629E+03 -0.74457243549E+02  0.91488082536E+02  0.20837587901E+03  0.00000000000E+00 0.  1.
</event>
<event>
 7    1  0.6888431E-006  0.1565854E+03  0.7818608E-02  0.1280340E+00
          2   -1    0    0  502    0  0.00000000000E+00  0.00000000000E+00  0.19976351396E+04  0.19976351396E+04  0.00000000000E+00 0. -1.
          1   -1    0    0  501    0 -0.00000000000E+00 -0.00000000000E+00 -0.16426190879E+04  0.16426190879E+04  0.00000000000E+00 0. -1.
         25    2    1    2    0    0 -0.93762756398E+02 -0.13686617390E+03  0.35993401743E+03  0.41557177789E+03  0.12499440640E+03 0.  0.
          2    1    1    2  501    0  0.32077315526E+02  0.15329757770E+03 -0.16103668507E+04  0.16179649240E+04  0.00000000000E+00 0. -1.
          1    1    1    2  502    0  0.61685440872E+02 -0.16431403801E+02  0.16054488850E+04  0.16067175256E+04  0.00000000000E+00 0. -1.
         22    1    3    3    0    0 -0.55165793591E+02 -0.50377333583E+02  0.46164279244E+02  0.87819594622E+02  0.00000000000E+00 0.  1.
         22    1    3    3    0    0 -0.38596962808E+02 -0.86488840320E+02  0.31376973818E+03  0.32775218327E+03  0.00000000000E+00 0.  1.
</event>
<event>
 7    1  0.6888431E-006  0.1045905E+03  0.7818608E-02  0.1390969E+00
          2   -1    0    0  502    0  0.00000000000E+00  0.00000000000E+00  0.10794461371E+03  0.10794461371E+03  0.00000000000E+00 0. -1.
          1   -1    0    0  501    0 -0.00000000000E+00 -0.00000000000E+00 -0.13774926583E+04  0.13774926583E+04  0.00000000000E+00 0. -1.
         25    2    1    2    0    0  0.12520646880E+03 -0.14193527189E+02 -0.57278358046E+02  0.18650503532E+03  0.12500080742E+03 0.  0.
          2    1    1    2  501    0 -0.29633993014E+02  0.21065604946E+02 -0.12020162146E+04  0.12025659705E+04  0.00000000000E+00 0. -1.
          1    1    1    2  502    0 -0.95572475791E+02 -0.68720777563E+01 -0.10253472006E+02  0.96366266243E+02  0.00000000000E+00 0. -1.
         22    1    3    3    0    0 -0.23866777679E+02 -0.13385800837E+02 -0.16496012051E+02  0.31951856822E+02  0.00000000000E+00 0.  1.
         22    1    3    3    0    0  0.14907324648E+03 -0.80772635232E+00 -0.40782345995E+02  0.15455317850E+03  0.00000000000E+00 0.  1.
</event>
<event>
 7    1  0.6888431E-006  0.5712015E+02  0.7818608E-02  0.1479081E+00
          2   -1    0    0  502    0  0.00000000000E+00  0.00000000000E+00  0.13529199270E+04  0.13529199270E+04  0.00000000000E+00 0. -1.
          1   -1    0    0  501    0 -0.00000000000E+00 -0.00000000000E+00 -0.52114570227E+03  0.52114570227E+03  0.00000000000E+00 0. -1.
         25    2    1    2    0    0  0.50775875270E+02  0.67438421954E+02  0.14812996780E+03  0.21140957451E+03  0.12500156225E+03 0.  0.
          2    1    1    2  501    0 -0.19473442293E+02 -0.53466399600E+02 -0.48760064839E+03  0.49090962829E+03  0.00000000000E+00 0. -1.
          1    1    1    2  502    0 -0.31302432977E+02 -0.13972022354E+02  0.11712449053E+04  0.11717464264E+04  0.00000000000E+00 0. -1.
         22    1    3    3    0    0  0.90429953874E+02  0.60126320943E+02  0.92174369806E+02  0.14243898861E+03  0.00000000000E+00 0. -1.
         22    1    3    3    0    0 -0.39654078604E+02  0.73121010111E+01  0.55955597997E+02  0.68970585893E+02  0.00000000000E+00 0. -1.
</event>
<event>
 7    1  0.6888431E-006  0.1269370E+03  0.7818608E-02  0.1363233E+00
          2   -1    0    0  502    0  0.00000000000E+00  0.00000000000E+00  0.14078796164E+04  0.14078796164E+04  0.00000000000E+00 0. -1.
          1   -1    0    0  501    0 -0.00000000000E+00 -0.00000000000E+00 -0.16397374764E+04  0.16397374764E+04  0.00000000000E+00 0. -1.
         25    2    1    2    0    0  0.67957348541E+02  0.59749164009E+02 -0.65688668769E+02  0.16770743393E+03  0.12499047311E+03 0.  0.
          2    1    1    2  501    0  0.31113424539E+02  0.21110152483E+02 -0.15197933533E+04  0.15202583729E+04  0.00000000000E+00 0. -1.
          1    1    1    2  502    0 -0.99070773080E+02 -0.80859316492E+02  0.13536241621E+04  0.13596512859E+04  0.00000000000E+00 0. -1.
         22    1    3    3    0    0  0.31018433516E+02  0.71768810179E+02 -0.92041708948E+02  0.12076664075E+03  0.00000000000E+00 0.  1.
         22    1    3    3    0    0  0.36938915025E+02 -0.12019646169E+02  0.26353040179E+02  0.46940793175E+02  0.00000000000E+00 0.  1.
</event>
<event>
 7    1  0.6888431E-006  0.8573018E+02  0.7818608E-02  0.1409539E+00
          2   -1    0    0  502    0  0.00000000000E+00  0.00000000000E+00  0.18464608755E+04  0.18464608755E+04  0.00000000000E+00 0. -1.
          1   -1    0    0  501    0 -0.00000000000E+00 -0.00000000000E+00 -0.45250113917E+02  0.45250113917E+02  0.00000000000E+00 0. -1.
         25    2    1    2    0    0  0.57514572229E+02  0.34096239552E+02  0.11896123966E+04  0.11980289230E+04  0.12500066586E+03 0.  0.
          2    1    1    2  501    0  0.30477516272E+02  0.23184459128E+02 -0.26779059962E+02  0.46728109266E+02  0.00000000000E+00 0. -1.
          1    1    1    2  502    0 -0.87992088501E+02 -0.57280698680E+02  0.63837742491E+03  0.64695395718E+03  0.00000000000E+00 0. -1.
         22    1    3    3    0    0  0.62021681504E+01 -0.38970552310E+01  0.95082243799E+03  0.95085065206E+03  0.00000000000E+00 0.  1.
         22    1    3    3    0    0  0.51312404079E+02  0.37993294783E+02  0.23878995864E+03  0.24717827091E+03  0.00000000000E+00 0.  1.
</event>
<event>
 7    1  0.6888431E-006  0.1100727E+03  0.7818608E-02  0.1452081E+00
          2   -1    0    0  502    0  0.00000000000E+00  0.00000000000E+00  0.58741930582E+03  0.58741930582E+03  0.00000000000E+00 0. -1.
          1   -1    0    0  501    0 -0.00000000000E+00 -0.00000000000E+00 -0.50716912719E+03  0.50716912719E+03  0.00000000000E+00 0. -1.
         25    2    1    2    0    0 -0.81702267911E+02 -0.47636366321E+02 -0.89672907375E+02  0.18058416144E+03  0.12499970027E+03 0.  0.
          2    1    1    2  501    0 -0.20831305735E+02  0.57492445995E+01 -0.36605970975E+03  0.36669702510E+03  0.00000000000E+00 0. -1.
          1    1    1    2  502    0  0.10253357365E+03  0.41887121722E+02  0.53598279577E+03  0.54730724648E+03  0.00000000000E+00 0. -1.
         22    1    3    3    0    0 -0.57244729362E+02 -0.87614186406E+02 -0.82302451045E+02  0.13314239801E+03  0.00000000000E+00 0. -1.
         22    1    3    3    0    0 -0.24457538549E+02  0.39977820085E+02 -0.73704563294E+01  0.47441763427E+02  0.00000000000E+00 0. -1.
</event>
<event>
 7    1  0.6888431E-006  0.1738395E+03  0.7818608E-02  0.1374518E+00
          2   -1    0    0  502    0  0.00000000000E+00  0.00000000000E+00  0.18260824623E+04  0.18260824623E+04  0.00000000000E+00 0. -1.
          1   -1    0    0  501    0 -0.00000000000E+00 -0.00000000000E+00 -0.99799271684E+03  0.99799271684E+03  0.00000000000E+00 0. -1.
         25    2    1    2    0    0 -0.17981429295E+03  0.64322594113E+02 -0.83515277980E+02  0.24304529910E+03  0.12500255876E+03 0.  0.
          2    1    1    2  501    0  0.23021118152E+02  0.97538116952E+01 -0.83021879560E+03  0.83059518256E+03  0.00000000000E+00 0. -1.
          1    1    1    2  502    0  0.15679317480E+03 -0.74076405808E+02  0.17418238190E+04  0.17504346974E+04  0.00000000000E+00 0. -1.
         22    1    3    3    0    0  0.13387939851E+02  0.14028397358E+02 -0.31079358706E+02  0.36632764071E+02  0.00000000000E+00 0. -1.
         22    1    3    3    0    0 -0.19320223280E+03  0.50294196755E+02 -0.52435919273E+02  0.20641253503E+03  0.00000000000E+00 0. -1.
</event>
<event>
 7    1  0.6888431E-006  0.1048322E+03  0.7818608E-02  0.1285360E+00
          2   -1    0    0  502    0  0.00000000000E+00  0.00000000000E+00  0.93361039428E+03  0.93361039428E+03  0.00000000000E+00 0. -1.
          1   -1    0    0  501    0 -0.00000000000E+00 -0.00000000000E+00 -0.29614911448E+03  0.29614911448E+03  0.00000000000E+00 0. -1.
         25    2    1    2    0    0 -0.92457580060E+02  0.48764315785E+02  0.21716011868E+03  0.27149378370E+03  0.12499597929E+03 0.  0.
          2    1    1    2  501    0 -0.96835024431E+01 -0.90405254463E+02 -0.25670572680E+03  0.27233198569E+03  0.00000000000E+00 0. -1.
          1    1    1    2  502    0  0.10214108250E+03  0.41640938678E+02  0.67700688792E+03  0.68593373937E+03  0.00000000000E+00 0. -1.
         22    1    3    3    0    0 -0.57595132428E+02 -0.37753726836E+02  0.10566605856E+03  0.12612636164E+03  0.00000000000E+00 0.  1.
         22    1    3    3    0    0 -0.34862447632E+02  0.86518042622E+02  0.11149406012E+03  0.14536742206E+03  0.00000000000E+00 0.  1.
</event>
<event>
 7    1  0.6888431E-006  0.7663889E+02  0.7818608E-02  0.1482558E+00
          2   -1    0    0  502    0  0.00000000000E+00  0.00000000000E+00  0.11569130503E+04  0.11569130503E+04  0.00000000000E+00 0. -1.
          1   -1    0    0  501    0 -0.00000000000E+00 -0.00000000000E+00 -0.26769475957E+04  0.26769475957E+04  0.00000000000E+00 0. -1.
         25    2    1    2    0    0  0.10019961739E+03 -0.11541316822E+00 -0.21671561647E+03  0.26949948265E+03  0.12499734428E+03 0.  0.
          2    1    1    2  501    0 -0.75913637074E+02 -0.55132014221E+01 -0.24331074301E+04  0.24342976486E+04  0.00000000000E+00 0. -1.
          1    1    1    2  502    0 -0.24285980318E+02  0.56286145903E+01  0.11297885011E+04  0.11300635148E+04  0.00000000000E+00 0. -1.
         22    1    3    3    0    0  0.12724165153E+03  0.78064581567E+01 -0.19861933446E+03  0.23601063259E+03  0.00000000000E+00 0.  1.
         22    1    3    3    0    0 -0.27042034138E+02 -0.79218713249E+01 -0.18096282013E+02  0.33488850059E+02  0.00000000000E+00 0.  1.
</event>
<event>
 7    1  0.6888431E-006  0.1388822E+03  0.7818608E-02  0.1264403E+00
          2   -1    0    0  502    0  0.00000000000E+00  0.00000000000E+00  0.28937044548E+04  0.28937044548E+04  0.00000000000E+00 0. -1.
          1   -1    0    0  501    0 -0.00000000000E+00 -0.00000000000E+00 -0.83986642754E+02  0.83986642754E+02  0.00000000000E+00 0. -1.
         25    2    1    2    0    0  0.60071667901E+02 -0.68773426303E+02  0.40110090720E+03  0.42993691512E+03  0.12500169509E+03 0.  0.
          2    1    1    2  501    0  0.80734465852E+02  0.22886470264E+02 -0.41186774330E+02  0.93478312337E+02  0.00000000000E+00 0. -1.
          1    1    1    2  502    0 -0.14080613375E+03  0.45886956039E+02  0.24498036792E+04  0.24542758701E+04  0.00000000000E+00 0. -1.
         22    1    3    3    0    0  0.89163595566E+02 -0.42363515087E+02  0.17926180750E+03  0.20464508255E+03  0.00000000000E+00 0.  1.
         22    1    3    3    0    0 -0.29091927664E+02 -0.26409911217E+02  0.22183909970E+03  0.22529183257E+03  0.00000000000E+00 0.  1.
</event>
<event>
 7    1  0.6888431E-006  0.3635961E+03  0.7818608E-02  0.1145562E+00
          2   -1    0    0  502    0  0.00000000000E+00  0.00000000000E+00  0.18215817405E+04  0.18215817405E+04  0.00000000000E+00 0. -1.
          1   -1    0    0  501    0 -0.00000000000E+00 -0.00000000000E+00 -0.13264615984E+04  0.13264615984E+04  0.00000000000E+00 0. -1.
         25    2    1    2    0    0  0.30311762151E+03 -0.33079841746E+03  0.25548443084E+03  0.53123068122E+03  0.12500342716E+03 0.  0.
          2    1    1    2  501    0 -0.28687797819E+02  0.11200170339E+03 -0.11641190979E+04  0.11698464195E+04  0.00000000000E+00 0. -1.
          1    1    1    2  502    0 -0.27442982370E+03  0.21879671407E+03  0.14037548091E+04  0.14469662382E+04  0.00000000000E+00 0. -1.
         22    1    3    3    0    0  0.10228819274E+03 -0.19661034158E+03  0.15031376482E+03  0.26779232380E+03  0.00000000000E+00 0.  1.
         22    1    3    3    0    0  0.20082942878E+03 -0.13418807588E+03  0.10517066602E+03  0.26343835742E+03  0.00000000000E+00 0.  1.
</event>
<event>
 7    1  0.6888431E-006  0.1022655E+03  0.7818608E-02  0.1307648E+00
          2   -1    0    0  502    0  0.00000000000E+00  0.00000000000E+00  0.63110663824E+03  0.63110663824E+03  0.00000000000E+00 0. -1.
          1   -1    0    0  501    0 -0.00000000000E+00 -0.00000000000E+00 -0.29699990353E+03  0.29699990353E+03  0.00000000000E+00 0. -1.
         25    2    1    2    0    0 -0.72157320606E+01 -0.51764293988E+02  0.62806306890E+02  0.14933734911E+03  0.12500161092E+03 0.  0.
          2    1    1    2  501    0  0.79458497949E+02  0.74738818562E+02 -0.23907953832E+03  0.26278997230E+03  0.00000000000E+00 0. -1.
          1    1    1    2  502    0 -0.72242765889E+02 -0.22974524574E+02  0.51037996614E+03  0.51597922036E+03  0.00000000000E+00 0. -1.
         22    1    3    3    0    0  0.16984422535E+02 -0.39986744315E+01  0.88317328528E+02  0.90024499579E+02  0.00000000000E+00 0. -1.
         22    1    3    3    0    0 -0.24200154596E+02 -0.47765619556E+02 -0.25511021638E+02  0.59312849527E+02  0.00000000000E+00 0. -1.
</event>
<event>
 7    1  0.6888431E-006  0.5998180E+02  0.7818608E-02  0.1417588E+00
          2   -1    0    0  502    0  0.00000000000E+00  0.00000000000E+00  0.29520602882E+03  0.29520602882E+03  0.00000000000E+00 0. -1.
          1   -1    0    0  501    0 -0.00000000000E+00 -0.00000000000E+00 -0.11479506862E+03  0.11479506862E+03  0.00000000000E+00 0. -1.
         25    2    1    2    0    0  0.51137415903E+02  0.71143919597E+02  0.90603268925E+01  0.15291705368E+03  0.12500017273E+03 0.  0.
          2    1    1    2  501    0  0.45629637209E+01 -0.51214110583E+02 -0.21225749731E+02  0.55625877182E+02  0.00000000000E+00 0. -1.
          1    1    1    2  502    0 -0.55700379624E+02 -0.19929809014E+02  0.19257638303E+03  0.20145816658E+03  0.00000000000E+00 0. -1.
         22    1    3    3    0    0  0.25427848015E+02 -0.40333241099E+00 -0.50365191393E+02  0.56421544075E+02  0.00000000000E+00 0.  1.
         22    1    3    3    0    0  0.25709567888E+02  0.71547252008E+02  0.59425518286E+02  0.96495509607E+02  0.00000000000E+00 0.  1.
</event>
<event>
 7    1  0.6888431E-006  0.7272173E+02  0.7818608E-02  0.1518297E+00
          2   -1    0    0  502    0  0.00000000000E+00  0.00000000000E+00  0.55459127584E+02  0.55459127584E+02  0.00000000000E+00 0. -1.
          1   -1    0    0  501    0 -0.00000000000E+00 -0.00000000000E+00 -0.21994564558E+04  0.21994564558E+04  0.00000000000E+00 0. -1.
         25    2    1    2    0    0 -0.70374578877E+02 -0.13324762561E+01 -0.26997846009E+03  0.30572510347E+03  0.12500045254E+03 0.  0.
          2    1    1    2  501    0  0.70340918725E+02 -0.19221550849E+02 -0.19080451494E+04  0.19094380338E+04  0.00000000000E+00 0. -1.
          1    1    1    2  502    0  0.33660152030E-01  0.20554027105E+02  0.34026281202E+02  0.39752446159E+02  0.00000000000E+00 0. -1.
         22    1    3    3    0    0 -0.10157375376E+03 -0.13399898987E+02 -0.23940632005E+03  0.26040770117E+03  0.00000000000E+00 0.  1.
         22    1    3    3    0    0  0.31199174888E+02  0.12067422731E+02 -0.30572140035E+02  0.45317402302E+02  0.00000000000E+00 0.  1.
</event>
<event>
 7    1  0.6888431E-006  0.4760568E+02  0.7818608E-02  0.1510738E+00
          2   -1    0    0  502    0  0.00000000000E+00  0.00000000000E+00  0.56925658955E+02  0.56925658955E+02  0.00000000000E+00 0. -1.
          1   -1    0    0  501    0 -0.00000000000E+00 -0.00000000000E+00 -0.62124807879E+03  0.62124807879E+03  0.00000000000E+00 0. -1.
         25    2    1    2    0    0 -0.97062142515E+01 -0.51168812022E+02 -0.28477906046E+03  0.31534018989E+03  0.12501145614E+03 0.  0.
          2    1    1    2  501    0  0.36401907619E+02  0.31704218165E+02 -0.31247733658E+03  0.31618403218E+03  0.00000000000E+00 0. -1.
          1    1    1    2  502    0 -0.26695693367E+02  0.19464593857E+02  0.32933977204E+02  0.46649515676E+02  0.00000000000E+00 0. -1.
         22    1    3    3    0    0 -0.11305524170E+02  0.81628550794E+01 -0.24145422055E+03  0.24185654364E+03  0.00000000000E+00 0.  1.
         22    1    3    3    0    0  0.15993099181E+01 -0.59331667101E+02 -0.43324839906E+02  0.73483646249E+02  0.00000000000E+00 0.  1.
</event>
<event>
 7    1  0.6888431E-006  0.1206444E+03  0.7818608E-02  0.1379261E+00
          2   -1    0    0  502    0  0.00000000000E+00  0.00000000000E+00  0.33863888205E+03  0.33863888205E+03  0.00000000000E+00 0. -1.
          1   -1    0    0  501    0 -0.00000000000E+00 -0.00000000000E+00 -0.10415731213E+04  0.10415731213E+04  0.00000000000E+00 0. -1.
         25    2    1    2    0    0  0.50140907478E+02 -0.13755983408E+03 -0.14865082147E+03  0.24322542944E+03  0.12499889698E+03 0.  0.
          2    1    1    2  501    0 -0.27943287272E+02  0.20494358478E+02 -0.83307763862E+03  0.83379805589E+03  0.00000000000E+00 0. -1.
          1    1    1    2  502    0 -0.22197620206E+02  0.11706547561E+03  0.27879422081E+03  0.30318851805E+03  0.00000000000E+00 0. -1.
         22    1    3    3    0    0 -0.21400925596E+02  0.13494379838E+02 -0.17304165669E+02  0.30651787111E+02  0.00000000000E+00 0. -1.
         22    1    3    3    0    0  0.71541833074E+02 -0.15105421392E+03 -0.13134665580E+03  0.21257364233E+03  0.00000000000E+00 0. -1.
</event>
<event>
 7    1  0.6888431E-006  0.5266360E+02  0.7818608E-02  0.1505630E+00
          2   -1    0    0  502    0  0.00000000000E+00  0.00000000000E+00  0.21992777224E+04  0.21992777224E+04  0.00000000000E+00 0. -1.
          1   -1    0    0  501    0 -0.00000000000E+00 -0.00000000000E+00 -0.58533388429E+03  0.58533388429E+03  0.00000000000E+00 0. -1.
         25    2    1    2    0    0 -0.17346435897E+02  0.37907120594E+02 -0.30214817982E+03  0.32963273863E+03  0.12500548461E+03 0.  0.
          2    1    1    2  501    0 -0.79589251138E+01 -0.55674568321E+02 -0.26639796913E+03  0.27226986613E+03  0.00000000000E+00 0. -1.
          1    1    1    2  502    0  0.25305361011E+02  0.17767447726E+02  0.21824899870E+04  0.21827090019E+04  0.00000000000E+00 0. -1.
         22    1    3    3    0    0 -0.21676580640E+01  0.82805091633E+02 -0.16698555288E+03  0.18640160088E+03  0.00000000000E+00 0.  1.
         22    1    3    3    0    0 -0.15178777833E+02 -0.44897971039E+02 -0.13516262694E+03  0.14323113775E+03  0.00000000000E+00 0.  1.
</event>
<event>
 7    1  0.9982797E-006  0.6724742E+02  0.7818608E-02  0.1400837E+00
          2   -1    0    0  502    0  0.00000000000E+00  0.00000000000E+00  0.24635289247E+04  0.24635289247E+04  0.00000000000E+00 0. -1.
          1   -1    0    0  501    0 -0.00000000000E+00 -0.00000000000E+00 -0.85021596336E+03  0.85021596336E+03  0.00000000000E+00 0. -1.
         25    2    1    2    0    0  0.51154029426E+00  0.16823384747E+02 -0.66260667270E+02  0.14245379917E+03  0.12497728163E+03 0.  0.
          2    1    1    2  501    0 -0.24012897009E+02  0.46431757489E+02 -0.74447272396E+03  0.74630567735E+03  0.00000000000E+00 0. -1.
          1    1    1    2  502    0  0.23501356714E+02 -0.63255142236E+02  0.24240463526E+04  0.24249854115E+04  0.00000000000E+00 0. -1.
         22    1    3    3    0    0 -0.34649303025E+02  0.27606725763E+02 -0.88857448172E+02  0.99289232060E+02  0.00000000000E+00 0. -1.
         22    1    3    3    0    0  0.35160843319E+02 -0.10783341016E+02  0.22596780902E+02  0.43164567107E+02  0.00000000000E+00 0. -1.
</event>
<event>
 7    1  0.6888431E-006  0.3753618E+02  0.7818608E-02  0.1601360E+00
          2   -1    0    0  502    0  0.00000000000E+00  0.00000000000E+00  0.66016235540E+03  0.66016235540E+03  0.00000000000E+00 0. -1.
          1   -1    0    0  501    0 -0.00000000000E+00 -0.00000000000E+00 -0.86873153211E+03  0.86873153211E+03  0.00000000000E+00 0. -1.
         25    2    1    2    0    0  0.11134996208E+02 -0.27376838670E+02  0.91485819609E+02  0.15769909651E+03  0.12500348161E+03 0.  0.
          2    1    1    2  501    0  0.10727122928E+02  0.36021935162E+02 -0.83494393460E+03  0.83578946207E+03  0.00000000000E+00 0. -1.
          1    1    1    2  502    0 -0.21862119136E+02 -0.86450964920E+01  0.53488893828E+03  0.53540532893E+03  0.00000000000E+00 0. -1.
         22    1    3    3    0    0  0.59564587348E+02  0.16243531309E+02  0.32395196635E+02  0.69722601359E+02  0.00000000000E+00 0.  1.
         22    1    3    3    0    0 -0.48429591140E+02 -0.43620369979E+02  0.59090622974E+02  0.87976495148E+02  0.00000000000E+00 0.  1.
</event>
<event>
 7    1  0.6888431E-006  0.1519995E+03  0.7818608E-02  0.1359071E+00
          2   -1    0    0  502    0  0.00000000000E+00  0.00000000000E+00  0.10518011716E+04  0.10518011716E+04  0.00000000000E+00 0. -1.
          1   -1    0    0  501    0 -0.00000000000E+00 -0.00000000000E+00 -0.11753648806E+03  0.11753648806E+03  0.00000000000E+00 0. -1.
         25    2    1    2    0    0 -0.28783638630E+02  0.14525116458E+03  0.62503273593E+02  0.20361291734E+03  0.12500064894E+03 0.  0.
          2    1    1    2  501    0  0.31671610676E+02  0.73587954931E+01 -0.34086103668E+02  0.47107380071E+02  0.00000000000E+00 0. -1.
          1    1    1    2  502    0 -0.28879720456E+01 -0.15260996007E+03  0.90584751367E+03  0.91861736229E+03  0.00000000000E+00 0. -1.
         22    1    3    3    0    0 -0.42936954773E+02  0.15328463720E+03  0.81304787056E+02  0.17874627405E+03  0.00000000000E+00 0. -1.
         22    1    3    3    0    0  0.14153316143E+02 -0.80334726266E+01 -0.18801513463E+02  0.24866643296E+02  0.00000000000E+00 0. -1.
</event>
<event>
 7    1  0.6888431E-006  0.2977982E+02  0.7818608E-02  0.1625917E+00
          2   -1    0    0  502    0  0.00000000000E+00  0.00000000000E+00  0.12307933735E+03  0.12307933735E+03  0.00000000000E+00 0. -1.
          1   -1    0    0  501    0 -0.00000000000E+00 -0.00000000000E+00 -0.17838889829E+04  0.17838889829E+04  0.00000000000E+00 0. -1.
         25    2    1    2    0    0  0.10043129020E+02 -0.39578905477E+02 -0.70238269260E+03  0.71458631119E+03  0.12499918030E+03 0.  0.
          2    1    1    2  501    0  0.13723303369E+02  0.21644063529E+02 -0.10733544465E+04  0.10736603571E+04  0.00000000000E+00 0. -1.
          1    1    1    2  502    0 -0.23766432388E+02  0.17934841948E+02  0.11492749357E+03  0.11872165196E+03  0.00000000000E+00 0. -1.
         22    1    3    3    0    0 -0.45009315236E+02 -0.50476877861E+02 -0.50049380723E+03  0.50504237914E+03  0.00000000000E+00 0.  1.
         22    1    3    3    0    0  0.55052444256E+02  0.10897972384E+02 -0.20188888537E+03  0.20954393205E+03  0.00000000000E+00 0.  1.
</event>
<event>
 7    1  0.6888431E-006  0.6452779E+02  0.7818608E-02  0.1388837E+00
          2   -1    0    0  502    0  0.00000000000E+00  0.00000000000E+00  0.36897540015E+03  0.36897540015E+03  0.00000000000E+00 0. -1.
          1   -1    0    0  501    0 -0.00000000000E+00 -0.00000000000E+00 -0.13019503645E+04  0.13019503645E+04  0.00000000000E+00 0. -1.
         25    2    1    2    0    0  0.59193399453E+02  0.69809189653E+02  0.13228946148E+02  0.15549042775E+03  0.12500034643E+03 0.  0.
          2    1    1    2  501    0  0.42347506744E+01 -0.59800313240E+02 -0.12264562989E+04  0.12279206260E+04  0.00000000000E+00 0. -1.
          1    1    1    2  502    0 -0.63428150127E+02 -0.10008876413E+02  0.28025238837E+03  0.28751471096E+03  0.00000000000E+00 0. -1.
         22    1    3    3    0    0 -0.44317872379E+01  0.87282426621E+02 -0.33481405799E+01  0.87458977700E+02  0.00000000000E+00 0.  1.
         22    1    3    3    0    0  0.63625186690E+02 -0.17473236968E+02  0.16577086728E+02  0.68031450050E+02  0.00000000000E+00 0.  1.
</event>
<event>
 7    1  0.6888431E-006  0.7301126E+02  0.7818608E-02  0.1393275E+00
          2   -1    0    0  502    0  0.00000000000E+00  0.00000000000E+00  0.16323908176E+04  0.16323908176E+04  0.00000000000E+00 0. -1.
          1   -1    0    0  501    0 -0.00000000000E+00 -0.00000000000E+00 -0.15777728551E+03  0.15777728551E+03  0.00000000000E+00 0. -1.
         25    2    1    2    0    0  0.12142388622E+03  0.78758659335E+01  0.89832794034E+02  0.19622351912E+03  0.12501179609E+03 0.  0.
          2    1    1    2  501    0 -0.49395495617E+02 -0.13208767949E+02 -0.97399962861E+02  0.11000517853E+03  0.00000000000E+00 0. -1.
          1    1    1    2  502    0 -0.72028390602E+02  0.53329020151E+01  0.14821807009E+04  0.14839394054E+04  0.00000000000E+00 0. -1.
         22    1    3    3    0    0  0.13756488669E+03  0.10705566349E+02  0.10539191054E+03  0.17362650146E+03  0.00000000000E+00 0. -1.
         22    1    3    3    0    0 -0.16141000475E+02 -0.28297004153E+01 -0.15559116503E+02  0.22597017660E+02  0.00000000000E+00 0. -1.
</event>
<event>
 7    1  0.6888431E-006  0.2167084E+03  0.7818608E-02  0.1281750E+00
          2   -1    0    0  502    0  0.00000000000E+00  0.00000000000E+00  0.63285019959E+03  0.63285019959E+03  0.00000000000E+00 0. -1.
          1   -1    0    0  501    0 -0.00000000000E+00 -0.00000000000E+00 -0.12385235961E+03  0.12385235961E+03  0.00000000000E+00 0. -1.
         25    2    1    2    0    0 -0.16575552511E+03  0.14469903648E+03  0.28717277223E+03  0.38276114360E+03  0.12500074671E+03 0.  0.
          2    1    1    2  501    0 -0.22855252979E+02 -0.39357187154E+02 -0.19965037977E+02  0.49698626851E+02  0.00000000000E+00 0. -1.
          1    1    1    2  502    0  0.18861077809E+03 -0.10534184932E+03  0.24179010573E+03  0.32424278875E+03  0.00000000000E+00 0. -1.
         22    1    3    3    0    0 -0.14242918810E+03  0.62886583691E+02  0.12513605392E+03  0.19974941307E+03  0.00000000000E+00 0.  1.
         22    1    3    3    0    0 -0.23326337004E+02  0.81812452787E+02  0.16203671832E+03  0.18301173053E+03  0.00000000000E+00 0.  1.
</event>
<event>
 7    1  0.1069769E-005  0.1463794E+03  0.7818608E-02  0.1283934E+00
          2   -1    0    0  502    0  0.00000000000E+00  0.00000000000E+00  0.11423639021E+04  0.11423639021E+04  0.00000000000E+00 0. -1.
          1   -1    0    0  501    0 -0.00000000000E+00 -0.00000000000E+00 -0.14744897986E+04  0.14744897986E+04  0.00000000000E+00 0. -1.
         25    2    1    2    0    0 -0.86818043535E+02 -0.15001469066E+01 -0.17887956633E+03  0.23487893528E+03  0.12502236545E+03 0.  0.
          2    1    1    2  501    0 -0.56790833726E+02 -0.33624972467E+02 -0.12618408145E+04  0.12635656210E+04  0.00000000000E+00 0. -1.
          1    1    1    2  502    0  0.14360887726E+03  0.35125119374E+02  0.11085944843E+04  0.11184091444E+04  0.00000000000E+00 0. -1.
         22    1    3    3    0    0 -0.20292043128E+02 -0.32938216619E+02 -0.15151307836E+03  0.15637424993E+03  0.00000000000E+00 0.  1.
         22    1    3    3    0    0 -0.66526000407E+02  0.31438069712E+02 -0.27366487979E+02  0.78504685349E+02  0.00000000000E+00 0.  1.
</event>
<event>
 7    1  0.6888431E-006  0.7108462E+02  0.7818608E-02  0.1430316E+00
          2   -1    0    0  502    0  0.00000000000E+00  0.00000000000E+00  0.28392442259E+04  0.28392442259E+04  0.00000000000E+00 0. -1.
          1   -1    0    0  501    0 -0.00000000000E+00 -0.00000000000E+00 -0.28220917522E+03  0.28220917522E+03  0.00000000000E+00 0. -1.
         25    2    1    2    0    0  0.33372553765E+02  0.19327497467E+02  0.10884830325E+02  0.13125851421E+03  0.12499215382E+03 0.  0.
          2    1    1    2  501    0  0.85412993444E+01  0.38424298301E+02 -0.21981392301E+03  0.22331041454E+03  0.00000000000E+00 0. -1.
          1    1    1    2  502    0 -0.41913853109E+02 -0.57751795768E+02  0.27659641433E+04  0.27668844723E+04  0.00000000000E+00 0. -1.
         22    1    3    3    0    0 -0.26729344689E+02  0.77928902724E+01  0.50985283246E+02  0.58092048629E+02  0.00000000000E+00 0. -1.
         22    1    3    3    0    0  0.60101898453E+02  0.11534607194E+02 -0.40100452920E+02  0.73166465578E+02  0.00000000000E+00 0. -1.
</event>
<event>
 7    1  0.6888431E-006  0.1109493E+03  0.7818608E-02  0.1397227E+00
          2   -1    0    0  502    0  0.00000000000E+00  0.00000000000E+00  0.12329660312E+04  0.12329660312E+04  0.00000000000E+00 0. -1.
          1   -1    0    0  501    0 -0.00000000000E+00 -0.00000000000E+00 -0.26701622070E+03  0.26701622070E+03  0.00000000000E+00 0. -1.
         25    2    1    2    0    0 -0.90147737067E+02 -0.75546535591E+02  0.11924530132E+03  0.20899413184E+03  0.12500084688E+03 0.  0.
          2    1    1    2  501    0 -0.11141785993E+02  0.30640753005E+02 -0.21805521702E+03  0.22047918906E+03  0.00000000000E+00 0. -1.
          1    1    1    2  502    0  0.10128952306E+03  0.44905782586E+02  0.10647597262E+04  0.10705089310E+04  0.00000000000E+00 0. -1.
         22    1    3    3    0    0 -0.82808444169E+02  0.12382302042E+01  0.99337542553E+02  0.12933181743E+03  0.00000000000E+00 0. -1.
         22    1    3    3    0    0 -0.73392928978E+01 -0.76784765795E+02  0.19907758763E+02  0.79662314411E+02  0.00000000000E+00 0. -1.
</event>
<event>
 7    1  0.6888431E-006  0.1231305E+03  0.7818608E-02  0.1311131E+00
          2   -1    0    0  502    0  0.00000000000E+00  0.00000000000E+00  0.90808385542E+03  0.90808385542E+03  0.00000000000E+00 0. -1.
          1   -1    0    0  501    0 -0.00000000000E+00 -0.00000000000E+00 -0.55842879400E+03  0.55842879400E+03  0.00000000000E+00 0. -1.
         25    2    1    2    0    0  0.14103613187E+03 -0.11308298544E+03  0.16687877190E+03  0.27595810157E+03  0.12500158888E+03 0.  0.
          2    1    1    2  501    0 -0.10104189590E+03  0.67022324251E+02 -0.49520589335E+03  0.50983363314E+03  0.00000000000E+00 0. -1.
          1    1    1    2  502    0 -0.39994235978E+02  0.46060661192E+02  0.67798218287E+03  0.68072091470E+03  0.00000000000E+00 0. -1.
         22    1    3    3    0    0  0.16366872924E+03 -0.10891347755E+03  0.14591922709E+03  0.24483059318E+03  0.00000000000E+00 0. -1.
         22    1    3    3    0    0 -0.22632597371E+02 -0.41695078951E+01  0.20959544813E+02  0.31127508391E+02  0.00000000000E+00 0. -1.
</event>
<event>
 7    1  0.6888431E-006  0.5049739E+02  0.7818608E-02  0.1474397E+00
          2   -1    0    0  502    0  0.00000000000E+00  0.00000000000E+00  0.55565832295E+02  0.55565832295E+02  0.00000000000E+00 0. -1.
          1   -1    0    0  501    0 -0.00000000000E+00 -0.00000000000E+00 -0.91702729342E+03  0.91702729342E+03  0.00000000000E+00 0. -1.
         25    2    1    2    0    0 -0.57560075797E+02 -0.22159621754E+02 -0.49108067248E+03  0.51047906276E+03  0.12499774184E+03 0.  0.
          2    1    1    2  501    0  0.33342661886E+02 -0.22250690518E+02 -0.40099077344E+03  0.40298936303E+03  0.00000000000E+00 0. -1.
          1    1    1    2  502    0  0.24217413911E+02  0.44410312272E+02  0.30609984798E+02  0.59124699931E+02  0.00000000000E+00 0. -1.
         22    1    3    3    0    0 -0.40864761195E+02 -0.31840880538E+02 -0.61272012637E+02  0.80237334911E+02  0.00000000000E+00 0.  1.
         22    1    3    3    0    0 -0.16695314602E+02  0.96812587841E+01 -0.42980865984E+03  0.43024172784E+03  0.00000000000E+00 0.  1.
</event>
<event>
 7    1  0.6888431E-006  0.5982889E+02  0.7818608E-02  0.1446174E+00
          2   -1    0    0  502    0  0.00000000000E+00  0.00000000000E+00  0.31372879724E+03  0.31372879724E+03  0.00000000000E+00 0. -1.
          1   -1    0    0  501    0 -0.00000000000E+00 -0.00000000000E+00 -0.21769929408E+04  0.21769929408E+04  0.00000000000E+00 0. -1.
         25    2    1    2    0    0  0.11835779025E+02  0.91293851272E+02 -0.32856495677E+03  0.36339411135E+03  0.12500278557E+03 0.  0.
          2    1    1    2  501    0 -0.24992318601E+02 -0.33166491929E+02 -0.18277784369E+04  0.18282501597E+04  0.00000000000E+00 0. -1.
          1    1    1    2  502    0  0.13156539576E+02 -0.58127359343E+02  0.29307925008E+03  0.29907746700E+03  0.00000000000E+00 0. -1.
         22    1    3    3    0    0 -0.38322585836E+02  0.48756515401E+02 -0.57861140749E+02  0.84815859296E+02  0.00000000000E+00 0. -1.
         22    1    3    3    0    0  0.50158364861E+02  0.42537335871E+02 -0.27070381602E+03  0.27857825206E+03  0.00000000000E+00 0. -1.
</event>
<event>
 7    1  0.6888431E-006  0.1400050E+03  0.7818608E-02  0.1239379E+00
          2   -1    0    0  502    0  0.00000000000E+00  0.00000000000E+00  0.42064352071E+03  0.42064352071E+03  0.00000000000E+00 0. -1.
          1   -1    0    0  501    0 -0.00000000000E+00 -0.00000000000E+00 -0.54158964403E+03  0.54158964403E+03  0.00000000000E+00 0. -1.
         25    2    1    2    0    0  0.54865107892E+01  0.19945986457E+03  0.19762185507E+03  0.30739624109E+03  0.12499484812E+03 0.  0.
          2    1    1    2  501    0  0.52169341523E+02 -0.93193818047E+02 -0.45800058914E+03  0.47028849398E+03  0.00000000000E+00 0. -1.
          1    1    1    2  502    0 -0.57655852313E+02 -0.10626604653E+03  0.13943261076E+03  0.18454842967E+03  0.00000000000E+00 0. -1.
         22    1    3    3    0    0 -0.43529657215E+02  0.12803225443E+03  0.67667884851E+02  0.15121518400E+03  0.00000000000E+00 0.  1.
         22    1    3    3    0    0  0.49016168004E+02  0.71427610145E+02  0.12995397022E+03  0.15618105709E+03  0.00000000000E+00 0.  1.
</event>
<event>
 7    1  0.6888431E-006  0.8807945E+02  0.7818608E-02  0.1341267E+00
          2   -1    0    0  502    0  0.00000000000E+00  0.00000000000E+00  0.10410575092E+04  0.10410575092E+04  0.00000000000E+00 0. -1.
          1   -1    0    0  501    0 -0.00000000000E+00 -0.00000000000E+00 -0.24372499308E+04  0.24372499308E+04  0.00000000000E+00 0. -1.
         25    2    1    2    0    0 -0.25894567109E+02  0.81541802790E+02  0.97235194666E+02  0.18000020941E+03  0.12500319235E+03 0.  0.
          2    1    1    2  501    0 -0.52611690432E+02 -0.38703171356E+02 -0.23932050173E+04  0.23940961092E+04  0.00000000000E+00 0. -1.
          1    1    1    2  502    0  0.78506257541E+02 -0.42838631433E+02  0.89977740097E+03  0.90421112142E+03  0.00000000000E+00 0. -1.
         22    1    3    3    0    0 -0.15699106673E+02  0.74628469773E+02  0.12680292682E+03  0.14796909373E+03  0.00000000000E+00 0. -1.
         22    1    3    3    0    0 -0.10195460436E+02  0.69133330172E+01 -0.29567732151E+02  0.32031115676E+02  0.00000000000E+00 0. -1.
</event>
<event>
 7    1  0.6888431E-006  0.4473837E+02  0.7818608E-02  0.1543487E+00
          2   -1    0    0  502    0  0.00000000000E+00  0.00000000000E+00  0.16421766311E+04  0.16421766311E+04  0.00000000000E+00 0. -1.
          1   -1    0    0  501    0 -0.00000000000E+00 -0.00000000000E+00 -0.25712324733E+03  0.25712324733E+03  0.00000000000E+00 0. -1.
         25    2    1    2    0    0  0.19748080365E+02  0.19531753349E+01  0.29690648076E+03  0.32275447446E+03  0.12499276337E+03 0.  0.
          2    1    1    2  501    0  0.23766030053E+02 -0.15365451094E+02 -0.24298871051E+03  0.24463122186E+03  0.00000000000E+00 0. -1.
          1    1    1    2  502    0 -0.43514110418E+02  0.13412275759E+02  0.13311356135E+04  0.13319141821E+04  0.00000000000E+00 0. -1.
         22    1    3    3    0    0 -0.49950529397E+01  0.82361667086E+01 -0.10523523013E+02  0.14266377695E+02  0.00000000000E+00 0.  1.
         22    1    3    3    0    0  0.24743133305E+02 -0.62829913737E+01  0.30743000377E+03  0.30848809676E+03  0.00000000000E+00 0.  1.
</event>
<event>
 7    1  0.6888431E-006  0.1217211E+03  0.7818608E-02  0.1431828E+00
          2   -1    0    0  502    0  0.00000000000E+00  0.00000000000E+00  0.69019193202E+03  0.69019193202E+03  0.00000000000E+00 0. -1.
          1   -1    0    0  501    0 -0.00000000000E+00 -0.00000000000E+00 -0.62096270544E+02  0.62096270544E+02  0.00000000000E+00 0. -1.
         25    2    1    2    0    0 -0.96456298036E+02 -0.75530877675E+02  0.38258320683E+03  0.42071786093E+03  0.12499950979E+03 0.  0.
          2    1    1    2  501    0  0.10825242008E+03  0.56106177259E+02  0.45298797411E+02  0.13007102147E+03  0.00000000000E+00 0. -1.
          1    1    1    2  502    0 -0.11796122041E+02  0.19424700417E+02  0.20021365724E+03  0.20149932017E+03  0.00000000000E+00 0. -1.
         22    1    3    3    0    0 -0.65431537478E+02 -0.54218796490E+02  0.83020368262E+02  0.11879960242E+03  0.00000000000E+00 0.  1.
         22    1    3    3    0    0 -0.31024760559E+02 -0.21312081185E+02  0.29956283857E+03  0.30191825851E+03  0.00000000000E+00 0.  1.
</event>
<event>
 7    1  0.6888431E-006  0.8512756E+02  0.7818608E-02  0.1469571E+00
          2   -1    0    0  502    0  0.00000000000E+00  0.00000000000E+00  0.15646400188E+04  0.15646400188E+04  0.00000000000E+00 0. -1.
          1   -1    0    0  501    0 -0.00000000000E+00 -0.00000000000E+00 -0.12043998523E+04  0.12043998523E+04  0.00000000000E+00 0. -1.
         25    2    1    2    0    0  0.82842407707E+02 -0.19884526816E+02 -0.36646094822E+03  0.39645393018E+03  0.12499533296E+03 0.  0.
          2    1    1    2  501    0 -0.74059774057E+02  0.42876586589E+02 -0.82061956496E+03  0.82506952568E+03  0.00000000000E+00 0. -1.
          1    1    1    2  502    0 -0.87826336492E+01 -0.22992059773E+02  0.15473206797E+04  0.15475164152E+04  0.00000000000E+00 0. -1.
         22    1    3    3    0    0 -0.14065630205E+02  0.33771914175E+02 -0.56652549040E+02  0.67438086070E+02  0.00000000000E+00 0. -1.
         22    1    3    3    0    0  0.96908037912E+02 -0.53656440991E+02 -0.30980839918E+03  0.32901584411E+03  0.00000000000E+00 0. -1.
</event>
<event>
 7    1  0.6888431E-006  0.8641854E+02  0.7818608E-02  0.1401395E+00
          2   -1    0    0  502    0  0.00000000000E+00  0.00000000000E+00  0.19920439945E+03  0.19920439945E+03  0.00000000000E+00 0. -1.
          1   -1    0    0  501    0 -0.00000000000E+00 -0.00000000000E+00 -0.18115205624E+04  0.18115205624E+04  0.00000000000E+00 0. -1.
         25    2    1    2    0    0 -0.56497566082E+02  0.24622218665E+02  0.11029508245E+02  0.13980280198E+03  0.12499977905E+03 0.  0.
          2    1    1    2  501    0 -0.13510603926E+02  0.38178161315E+02 -0.17289992885E+04  0.17294735175E+04  0.00000000000E+00 0. -1.
          1    1    1    2  502    0  0.70008170008E+02 -0.62800379980E+02  0.10565361723E+03  0.14144864236E+03  0.00000000000E+00 0. -1.
         22    1    3    3    0    0 -0.67338062173E+02 -0.27210738215E+02  0.36223925977E+02  0.81160407248E+02  0.00000000000E+00 0.  1.
         22    1    3    3    0    0  0.10840496091E+02  0.51832956880E+02 -0.25194417733E+02  0.58642394727E+02  0.00000000000E+00 0.  1.
</event>
<event>
 7    1  0.6888431E-006  0.7014035E+02  0.7818608E-02  0.1367275E+00
          2   -1    0    0  502    0  0.00000000000E+00  0.00000000000E+00  0.27022723964E+03  0.27022723964E+03  0.00000000000E+00 0. -1.
          1   -1    0    0  501    0 -0.00000000000E+00 -0.00000000000E+00 -0.16597864237E+03  0.16597864237E+03  0.00000000000E+00 0. -1.
         25    2    1    2    0    0  0.17201107514E+02 -0.96897738639E+01 -0.66565390095E+00  0.12655128431E+03  0.12500005860E+03 0.  0.
          2    1    1    2  501    0 -0.79600401947E+02  0.30538603095E+02 -0.77822977817E+02  0.11543502998E+03  0.00000000000E+00 0. -1.
          1    1    1    2  502    0  0.62399294433E+02 -0.20848829231E+02  0.18273722899E+03  0.19421956772E+03  0.00000000000E+00 0. -1.
         22    1    3    3    0    0  0.12174558353E+02 -0.66924637044E+02  0.78271433936E+01  0.68471826968E+02  0.00000000000E+00 0.  1.
         22    1    3    3    0    0  0.50265491604E+01  0.57234863180E+02 -0.84927972946E+01  0.58079457346E+02  0.00000000000E+00 0.  1.
</event>
<event>
 7    1  0.6888431E-006  0.2382149E+03  0.7818608E-02  0.1240272E+00
          2   -1    0    0  502    0  0.00000000000E+00  0.00000000000E+00  0.39236560619E+03  0.39236560619E+03  0.00000000000E+00 0. -1.
          1   -1    0    0  501    0 -0.00000000000E+00 -0.00000000000E+00 -0.15168203280E+04  0.15168203280E+04  0.00000000000E+00 0. -1.
         25    2    1    2    0    0  0.20748602764E+02  0.27927129928E+03 -0.11388466306E+03  0.32713675832E+03  0.12500311613E+03 0.  0.
          2    1    1    2  501    0  0.21284993323E+02 -0.23341829912E+03 -0.12821698047E+04  0.13034172630E+04  0.00000000000E+00 0. -1.
          1    1    1    2  502    0 -0.42033596087E+02 -0.45853000159E+02  0.27159974601E+03  0.27863191285E+03  0.00000000000E+00 0. -1.
         22    1    3    3    0    0 -0.49945538627E+02  0.76236698092E+02 -0.42888885221E+02  0.10072759026E+03  0.00000000000E+00 0. -1.
         22    1    3    3    0    0  0.70694141391E+02  0.20303460119E+03 -0.70995777838E+02  0.22640916805E+03  0.00000000000E+00 0. -1.
</event>
<event>
 7    1  0.6888431E-006  0.1024342E+03  0.7818608E-02  0.1305529E+00
          2   -1    0    0  502    0  0.00000000000E+00  0.00000000000E+00  0.50001971224E+03  0.50001971224E+03  0.00000000000E+00 0. -1.
          1   -1    0    0  501    0 -0.00000000000E+00 -0.00000000000E+00 -0.49979285284E+03  0.49979285284E+03  0.00000000000E+00 0. -1.
         25    2    1    2    0    0 -0.19610246302E+02 -0.14857477339E+03  0.36068100266E+03  0.41009129968E+03  0.12500025341E+03 0.  0.
          2    1    1    2  501    0  0.29125445782E+02  0.71452342150E+02 -0.45831262409E+03  0.46476250945E+03  0.00000000000E+00 0. -1.
          1    1    1    2  502    0 -0.95151994798E+01  0.77122431235E+02  0.97858480825E+02  0.12495875596E+03  0.00000000000E+00 0. -1.
         22    1    3    3    0    0  0.11691663514E+02 -0.25417861001E+02  0.21485008310E+03  0.21666407377E+03  0.00000000000E+00 0. -1.
         22    1    3    3    0    0 -0.31301909816E+02 -0.12315691238E+03  0.14583091955E+03  0.19342722591E+03  0.00000000000E+00 0. -1.
</event>
<event>
 7    1  0.6888431E-006  0.7054704E+02  0.7818608E-02  0.1361177E+00
          2   -1    0    0  502    0  0.00000000000E+00  0.00000000000E+00  0.18852654255E+04  0.18852654255E+04  0.00000000000E+00 0. -1.
          1   -1    0    0  501    0 -0.00000000000E+00 -0.00000000000E+00 -0.32434807235E+03  0.32434807235E+03  0.00000000000E+00 0. -1.
         25    2    1    2    0    0 -0.56194442879E+02  0.44648266233E+02 -0.75374126064E+01  0.14433556140E+03  0.12499863443E+03 0.  0.
          2    1    1    2  501    0  0.69140717542E+02  0.22951342578E+02 -0.24240257332E+03  0.25311303898E+03  0.00000000000E+00 0. -1.
          1    1    1    2  502    0 -0.12946274663E+02 -0.67599608811E+02  0.18108573391E+04  0.18121648975E+04  0.00000000000E+00 0. -1.
         22    1    3    3    0    0  0.19035079670E+02 -0.12902160356E+02  0.33888923485E+02  0.40954354284E+02  0.00000000000E+00 0. -1.
         22    1    3    3    0    0 -0.75229522549E+02  0.57550426589E+02 -0.41426336091E+02  0.10338120712E+03  0.00000000000E+00 0. -1.
</event>
<event>
 7    1  0.6888431E-006  0.5790858E+02  0.7818608E-02  0.1444688E+00
          2   -1    0    0  502    0  0.00000000000E+00  0.00000000000E+00  0.92675286334E+03  0.92675286334E+03  0.00000000000E+00 0. -1.
          1   -1    0    0  501    0 -0.00000000000E+00 -0.00000000000E+00 -0.41858771871E+02  0.41858771871E+02  0.00000000000E+00 0. -1.
         25    2    1    2    0    0  0.77965546062E+02 -0.26279462116E+02  0.34943400492E+03  0.38012937370E+03  0.12499992181E+03 0.  0.
          2    1    1    2  501    0 -0.40370204187E+02 -0.15880832694E+02 -0.62548563796E+01  0.43830097667E+02  0.00000000000E+00 0. -1.
          1    1    1    2  502    0 -0.37595341875E+02  0.42160294811E+02  0.54171494292E+03  0.54465216384E+03  0.00000000000E+00 0. -1.
         22    1    3    3    0    0  0.21210532746E+02 -0.63872404514E+02  0.92903688269E+02  0.11471994618E+03  0.00000000000E+00 0. -1.
         22    1    3    3    0    0  0.56755013315E+02  0.37592942397E+02  0.25653031665E+03  0.26540942752E+03  0.00000000000E+00 0. -1.
</event>
<event>
 7    1  0.6888431E-006  0.3539916E+02  0.7818608E-02  0.1601841E+00
          2   -1    0    0  502    0  0.00000000000E+00  0.00000000000E+00  0.74277835805E+02  0.74277835805E+02  0.00000000000E+00 0. -1.
          1   -1    0    0  501    0 -0.00000000000E+00 -0.00000000000E+00 -0.39853475641E+03  0.39853475641E+03  0.00000000000E+00 0. -1.
         25    2    1    2    0    0 -0.38488715484E+01 -0.38089322111E+02 -0.12675771899E+03  0.18209617507E+03  0.12500354947E+03 0.  0.
          2    1    1    2  501    0 -0.21290220925E+02  0.12829129780E+02 -0.23654775458E+03  0.23785016349E+03  0.00000000000E+00 0. -1.
          1    1    1    2  502    0  0.25139092474E+02  0.25260192331E+02  0.39048552962E+02  0.52866253654E+02  0.00000000000E+00 0. -1.
         22    1    3    3    0    0  0.30551701396E+02  0.11760035664E+02  0.85639998380E+01  0.33838542968E+02  0.00000000000E+00 0.  1.
         22    1    3    3    0    0 -0.34400572944E+02 -0.49849357774E+02 -0.13532171883E+03  0.14825763210E+03  0.00000000000E+00 0.  1.
</event>
<event>
 7    1  0.6888431E-006  0.8368451E+02  0.7818608E-02  0.1501560E+00
          2   -1    0    0  502    0  0.00000000000E+00  0.00000000000E+00  0.59500481209E+02  0.59500481209E+02  0.00000000000E+00 0. -1.
          1   -1    0    0  501    0 -0.00000000000E+00 -0.00000000000E+00 -0.57146152906E+03  0.57146152906E+03  0.00000000000E+00 0. -1.
         25    2    1    2    0    0 -0.50478221923E+02  0.76021180054E+02 -0.17845679332E+03  0.23621754904E+03  0.12499853074E+03 0.  0.
          2    1    1    2  501    0  0.20006815369E+02  0.16513120127E+00 -0.30824063964E+03  0.30888928738E+03  0.00000000000E+00 0. -1.
          1    1    1    2  502    0  0.30471406553E+02 -0.76186311256E+02 -0.25263614889E+02  0.85855173853E+02  0.00000000000E+00 0. -1.
         22    1    3    3    0    0  0.26890175214E+02 -0.89197119731E+01 -0.59468104262E+01  0.28948356412E+02  0.00000000000E+00 0.  1.
         22    1    3    3    0    0 -0.77368397137E+02  0.84940892028E+02 -0.17250998289E+03  0.20726919262E+03  0.00000000000E+00 0.  1.
</event>
<event>
 7    1  0.6888431E-006  0.2624386E+02  0.7818608E-02  0.1674685E+00
          2   -1    0    0  502    0  0.00000000000E+00  0.00000000000E+00  0.18524293980E+03  0.18524293980E+03  0.00000000000E+00 0. -1.
          1   -1    0    0  501    0 -0.00000000000E+00 -0.00000000000E+00 -0.28585649989E+03  0.28585649989E+03  0.00000000000E+00 0. -1.
         25    2    1    2    0    0 -0.37425429942E+02 -0.26621575011E+01 -0.50498599597E+02  0.13993943919E+03  0.12500075276E+03 0.  0.
          2    1    1    2  501    0  0.17150477134E+02 -0.13909150554E+02 -0.18876841370E+03  0.19005556384E+03  0.00000000000E+00 0. -1.
          1    1    1    2  502    0  0.20274952807E+02  0.16571308055E+02  0.13865345320E+03  0.14110443666E+03  0.00000000000E+00 0. -1.
         22    1    3    3    0    0  0.42876465911E+02  0.26949627332E+01  0.33724708425E+01  0.43093244398E+02  0.00000000000E+00 0. -1.
         22    1    3    3    0    0 -0.80301895853E+02 -0.53571202342E+01 -0.53871070440E+02  0.96846194789E+02  0.00000000000E+00 0. -1.
</event>
<event>
 7    1  0.6888431E-006  0.9938437E+02  0.7818608E-02  0.1423975E+00
          2   -1    0    0  502    0  0.00000000000E+00  0.00000000000E+00  0.12331594393E+03  0.12331594393E+03  0.00000000000E+00 0. -1.
          1   -1    0    0  501    0 -0.00000000000E+00 -0.00000000000E+00 -0.60691550310E+03  0.60691550310E+03  0.00000000000E+00 0. -1.
         25    2    1    2    0    0  0.99376139862E+02  0.71591513420E+01 -0.26600471854E+03  0.31034028910E+03  0.12500285650E+03 0.  0.
          2    1    1    2  501    0 -0.63939999781E+01  0.28845991027E+02 -0.29324597851E+03  0.29473068783E+03  0.00000000000E+00 0. -1.
          1    1    1    2  502    0 -0.92982139884E+02 -0.36005142369E+02  0.75651137876E+02  0.12516047010E+03  0.00000000000E+00 0. -1.
         22    1    3    3    0    0 -0.29854837522E+02 -0.32055823376E+01 -0.44461210764E+02  0.53650595002E+02  0.00000000000E+00 0.  1.
         22    1    3    3    0    0  0.12923097738E+03  0.10364733680E+02 -0.22154350777E+03  0.25668969410E+03  0.00000000000E+00 0.  1.
</event>
<event>
 7    1  0.6888431E-006  0.2706130E+03  0.7818608E-02  0.1332558E+00
          2   -1    0    0  502    0  0.00000000000E+00  0.00000000000E+00  0.67810383119E+03  0.67810383119E+03  0.00000000000E+00 0. -1.
          1   -1    0    0  501    0 -0.00000000000E+00 -0.00000000000E+00 -0.12566840596E+04  0.12566840596E+04  0.00000000000E+00 0. -1.
         25    2    1    2    0    0  0.10208484867E+03  0.25767946644E+03 -0.95164680137E+03  0.99903928788E+03  0.12501136115E+03 0.  0.
          2    1    1    2  501    0 -0.97866284219E+02 -0.23513839164E+03 -0.22343383277E+03  0.33880754188E+03  0.00000000000E+00 0. -1.
          1    1    1    2  502    0 -0.42185644544E+01 -0.22541074803E+02  0.59650040571E+03  0.59694106104E+03  0.00000000000E+00 0. -1.
         22    1    3    3    0    0  0.12269994351E+03  0.25425621646E+03 -0.86484058268E+03  0.90975311662E+03  0.00000000000E+00 0. -1.
         22    1    3    3    0    0 -0.20615094835E+02  0.34232499830E+01 -0.86806218691E+02  0.89286171264E+02  0.00000000000E+00 0. -1.
</event>
<event>
 7    1  0.6888431E-006  0.6093276E+02  0.7818608E-02  0.1438464E+00
          2   -1    0    0  502    0  0.00000000000E+00  0.00000000000E+00  0.19595623308E+04  0.19595623308E+04  0.00000000000E+00 0. -1.
          1   -1    0    0  501    0 -0.00000000000E+00 -0.00000000000E+00 -0.97210023243E+02  0.97210023243E+02  0.00000000000E+00 0. -1.
         25    2    1    2    0    0 -0.31617790962E+02  0.11216048773E+01  0.38828158004E+03  0.40913224774E+03  0.12500267215E+03 0.  0.
          2    1    1    2  501    0 -0.19109380238E+02 -0.38728545316E+02 -0.80731128931E+02  0.91556451514E+02  0.00000000000E+00 0. -1.
          1    1    1    2  502    0  0.50727171200E+02  0.37606940439E+02  0.15548018565E+04  0.15560836548E+04  0.00000000000E+00 0. -1.
         22    1    3    3    0    0  0.27284541829E+02 -0.27397576136E+02  0.27965344620E+03  0.28231387386E+03  0.00000000000E+00 0. -1.
         22    1    3    3    0    0 -0.58902332791E+02  0.28519181014E+02  0.10862813383E+03  0.12681837388E+03  0.00000000000E+00 0. -1.
</event>
<event>
 7    1  0.6888431E-006  0.9826880E+02  0.7818608E-02  0.1325615E+00
          2   -1    0    0  502    0  0.00000000000E+00  0.00000000000E+00  0.46060760863E+03  0.46060760863E+03  0.00000000000E+00 0. -1.
          1   -1    0    0  501    0 -0.00000000000E+00 -0.00000000000E+00 -0.13723221010E+04  0.13723221010E+04  0.00000000000E+00 0. -1.
         25    2    1    2    0    0  0.40302039989E+02  0.14638837817E+03 -0.10301246775E+03  0.22202698589E+03  0.12502240704E+03 0.  0.
          2    1    1    2  501    0 -0.44916614120E+02 -0.49895156231E+02 -0.12030362575E+04  0.12049079905E+04  0.00000000000E+00 0. -1.
          1    1    1    2  502    0  0.46145741312E+01 -0.96493221943E+02  0.39433423287E+03  0.40599473320E+03  0.00000000000E+00 0. -1.
         22    1    3    3    0    0 -0.22168988400E+02  0.12152524222E+03 -0.91696673871E+02  0.15384449467E+03  0.00000000000E+00 0.  1.
         22    1    3    3    0    0  0.62471028389E+02  0.24863135956E+02 -0.11315793875E+02  0.68182491218E+02  0.00000000000E+00 0.  1.
</event>
<event>
 7    1  0.6888431E-006  0.6941889E+02  0.7818608E-02  0.1516786E+00
          2   -1    0    0  502    0  0.00000000000E+00  0.00000000000E+00  0.87950903765E+03  0.87950903765E+03  0.00000000000E+00 0. -1.
          1   -1    0    0  501    0 -0.00000000000E+00 -0.00000000000E+00 -0.22407483064E+03  0.22407483064E+03  0.00000000000E+00 0. -1.
         25    2    1    2    0    0 -0.58688481136E+02 -0.22382688516E+02  0.30605465236E+03  0.33651648947E+03  0.12501429875E+03 0.  0.
          2    1    1    2  501    0 -0.11957265985E+02  0.18170006819E+02 -0.20602600747E+03  0.20717104313E+03  0.00000000000E+00 0. -1.
          1    1    1    2  502    0  0.70645747122E+02  0.42126816966E+01  0.55540556213E+03  0.55989633569E+03  0.00000000000E+00 0. -1.
         22    1    3    3    0    0  0.19858502011E+02 -0.51543554214E+02  0.14049303939E+03  0.15096155868E+03  0.00000000000E+00 0. -1.
         22    1    3    3    0    0 -0.78546983147E+02  0.29160865699E+02  0.16556161297E+03  0.18555493078E+03  0.00000000000E+00 0. -1.
</event>
<event>
 7    1  0.6888431E-006  0.5483433E+02  0.7818608E-02  0.1458091E+00
          2   -1    0    0  502    0  0.00000000000E+00  0.00000000000E+00  0.13664825560E+04  0.13664825560E+04  0.00000000000E+00 0. -1.
          1   -1    0    0  501    0 -0.00000000000E+00 -0.00000000000E+00 -0.21602440023E+03  0.21602440023E+03  0.00000000000E+00 0. -1.
         25    2    1    2    0    0 -0.15223474333E+01  0.13357462737E+02  0.12074183346E+04  0.12139459076E+04  0.12499956998E+03 0.  0.
          2    1    1    2  501    0  0.66439316905E+01 -0.54554220217E+02 -0.20633305867E+03  0.21352666314E+03  0.00000000000E+00 0. -1.
          1    1    1    2  502    0 -0.51215842572E+01  0.41196757480E+02  0.14937287978E+03  0.15503438543E+03  0.00000000000E+00 0. -1.
         22    1    3    3    0    0  0.31770659001E+02  0.42031269359E+02  0.10233696954E+04  0.10247251026E+04  0.00000000000E+00 0. -1.
         22    1    3    3    0    0 -0.33293006434E+02 -0.28673806622E+02  0.18404863918E+03  0.18922080501E+03  0.00000000000E+00 0. -1.
</event>
<event>
 7    1  0.6888431E-006  0.3599117E+02  0.7818608E-02  0.1572283E+00
          2   -1    0    0  502    0  0.00000000000E+00  0.00000000000E+00  0.12894241194E+03  0.12894241194E+03  0.00000000000E+00 0. -1.
          1   -1    0    0  501    0 -0.00000000000E+00 -0.00000000000E+00 -0.61483299396E+03  0.61483299396E+03  0.00000000000E+00 0. -1.
         25    2    1    2    0    0 -0.42068416637E+02  0.45238116313E+02  0.32371803296E+02  0.14315606069E+03  0.12501793958E+03 0.  0.
          2    1    1    2  501    0  0.17041856575E+02 -0.23827089347E+02 -0.55240437913E+03  0.55318057914E+03  0.00000000000E+00 0. -1.
          1    1    1    2  502    0  0.25026560062E+02 -0.21411026966E+02  0.34141993813E+02  0.47438766065E+02  0.00000000000E+00 0. -1.
         22    1    3    3    0    0 -0.83282192147E+02  0.17997525638E+02  0.38265999850E+02  0.93403004248E+02  0.00000000000E+00 0. -1.
         22    1    3    3    0    0  0.41213775510E+02  0.27240590675E+02 -0.58941965548E+01  0.49753056440E+02  0.00000000000E+00 0. -1.
</event>
<event>
 7    1  0.6888431E-006  0.1996637E+03  0.7818608E-02  0.1291681E+00
          2   -1    0    0  502    0  0.00000000000E+00  0.00000000000E+00  0.49807921715E+03  0.49807921715E+03  0.00000000000E+00 0. -1.
          1   -1    0    0  501    0 -0.00000000000E+00 -0.00000000000E+00 -0.12318054097E+04  0.12318054097E+04  0.00000000000E+00 0. -1.
         25    2    1    2    0    0 -0.23929656199E+03  0.95409161754E+01 -0.35883802249E+03  0.44915881131E+03  0.12500015091E+03 0.  0.
          2    1    1    2  501    0  0.41848752667E+02 -0.16511306607E+02 -0.80560357548E+03  0.80685876222E+03  0.00000000000E+00 0. -1.
          1    1    1    2  502    0  0.19744780932E+03  0.69703904321E+01  0.43071540542E+03  0.47386705331E+03  0.00000000000E+00 0. -1.
         22    1    3    3    0    0 -0.18331454497E+03  0.60649986333E+02 -0.27643589926E+03  0.33719348991E+03  0.00000000000E+00 0. -1.
         22    1    3    3    0    0 -0.55982017014E+02 -0.51109070158E+02 -0.82402123238E+02  0.11196532140E+03  0.00000000000E+00 0. -1.
</event>
<event>
 7    1  0.6888431E-006  0.1348485E+03  0.7818608E-02  0.1231317E+00
          2   -1    0    0  502    0  0.00000000000E+00  0.00000000000E+00  0.54452595204E+03  0.54452595204E+03  0.00000000000E+00 0. -1.
          1   -1    0    0  501    0 -0.00000000000E+00 -0.00000000000E+00 -0.30219001190E+03  0.30219001190E+03  0.00000000000E+00 0. -1.
         25    2    1    2    0    0  0.30945217954E+02 -0.47542146255E+02 -0.11136993902E+02  0.13769759739E+03  0.12497493152E+03 0.  0.
          2    1    1    2  501    0  0.11789835169E+03  0.24530463138E+02 -0.19874344795E+03  0.23238055654E+03  0.00000000000E+00 0. -1.
          1    1    1    2  502    0 -0.14884356964E+03  0.23011683117E+02  0.45221638199E+03  0.47663781001E+03  0.00000000000E+00 0. -1.
         22    1    3    3    0    0 -0.48746687988E+02 -0.17836520204E+02 -0.85728012596E+01  0.52610587948E+02  0.00000000000E+00 0.  1.
         22    1    3    3    0    0  0.79691905942E+02 -0.29705626051E+02 -0.25641926427E+01  0.85087009441E+02  0.00000000000E+00 0.  1.
</event>
<event>
 7    1  0.6888431E-006  0.4956838E+02  0.7818608E-02  0.1518957E+00
          2   -1    0    0  502    0  0.00000000000E+00  0.00000000000E+00  0.42653926373E+03  0.42653926373E+03  0.00000000000E+00 0. -1.
          1   -1    0    0  501    0 -0.00000000000E+00 -0.00000000000E+00 -0.57137042986E+02  0.57137042986E+02  0.00000000000E+00 0. -1.
         25    2    1    2    0    0 -0.22563669682E+02 -0.17774958788E+02  0.19420606078E+03  0.23273849187E+03  0.12500457273E+03 0.  0.
          2    1    1    2  501    0  0.19842704158E+02  0.47673342199E+02 -0.18558027584E+02  0.54871493989E+02  0.00000000000E+00 0. -1.
          1    1    1    2  502    0  0.27209655242E+01 -0.29898383411E+02  0.19375418755E+03  0.19606632086E+03  0.00000000000E+00 0. -1.
         22    1    3    3    0    0  0.13109440622E+02 -0.51532388169E+02  0.29379459255E+02  0.60750284690E+02  0.00000000000E+00 0.  1.
         22    1    3    3    0    0 -0.35673110304E+02  0.33757429381E+02  0.16482660153E+03  0.17198820718E+03  0.00000000000E+00 0.  1.
</event>
<event>
 7    1  0.6888431E-006  0.8950823E+02  0.7818608E-02  0.1453589E+00
          2   -1    0    0  502    0  0.00000000000E+00  0.00000000000E+00  0.14789032318E+03  0.14789032318E+03  0.00000000000E+00 0. -1.
          1   -1    0    0  501    0 -0.00000000000E+00 -0.00000000000E+00 -0.70683250880E+03  0.70683250880E+03  0.00000000000E+00 0. -1.
         25    2    1    2    0    0 -0.77172244022E+02  0.34189885058E+02 -0.68495036097E+02  0.16565288140E+03  0.12499921463E+03 0.  0.
          2    1    1    2  501    0  0.89446829772E+02 -0.10949509219E+02 -0.58450408685E+03  0.59140988718E+03  0.00000000000E+00 0. -1.
          1    1    1    2  502    0 -0.12274585750E+02 -0.23240375839E+02  0.94056937331E+02  0.97660063406E+02  0.00000000000E+00 0. -1.
         22    1    3    3    0    0 -0.11186110367E+03  0.21615538354E+02 -0.51514272803E+02  0.12503542824E+03  0.00000000000E+00 0.  1.
         22    1    3    3    0    0  0.34688859650E+02  0.12574346704E+02 -0.16980763294E+02  0.40617453156E+02  0.00000000000E+00 0.  1.
</event>
<event>
 7    1  0.6888431E-006  0.3269658E+02  0.7818608E-02  0.1605870E+00
          2   -1    0    0  502    0  0.00000000000E+00  0.00000000000E+00  0.45309006141E+03  0.45309006141E+03  0.00000000000E+00 0. -1.
          1   -1    0    0  501    0 -0.00000000000E+00 -0.00000000000E+00 -0.48347728500E+02  0.48347728500E+02  0.00000000000E+00 0. -1.
         25    2    1    2    0    0 -0.47376598594E+02  0.23386026999E+02  0.91659890672E+02  0.16376578162E+03  0.12500498918E+03 0.  0.
          2    1    1    2  501    0  0.21194294396E+02 -0.21242126094E+02  0.74571977980E+01  0.30919829155E+02  0.00000000000E+00 0. -1.
          1    1    1    2  502    0  0.26182304198E+02 -0.21439009052E+01  0.30562524444E+03  0.30675217914E+03  0.00000000000E+00 0. -1.
         22    1    3    3    0    0 -0.69305058766E+02  0.31762764616E+02  0.11009785482E+03  0.13391639938E+03  0.00000000000E+00 0. -1.
         22    1    3    3    0    0  0.21928460172E+02 -0.83767376170E+01 -0.18437964144E+02  0.29849382245E+02  0.00000000000E+00 0. -1.
</event>
<event>
 7    1  0.6888431E-006  0.4114337E+02  0.7818608E-02  0.1514535E+00
          2   -1    0    0  502    0  0.00000000000E+00  0.00000000000E+00  0.15080512492E+04  0.15080512492E+04  0.00000000000E+00 0. -1.
          1   -1    0    0  501    0 -0.00000000000E+00 -0.00000000000E+00 -0.44116222986E+02  0.44116222986E+02  0.00000000000E+00 0. -1.
         25    2    1    2    0    0  0.57063832626E+02  0.12983558844E+02  0.30771972808E+03  0.33725547702E+03  0.12499988775E+03 0.  0.
          2    1    1    2  501    0 -0.31828614562E+02  0.19370918709E+02 -0.17017402590E+02  0.40961996869E+02  0.00000000000E+00 0. -1.
          1    1    1    2  502    0 -0.25235218065E+02 -0.32354477553E+02  0.11732327007E+04  0.11739499983E+04  0.00000000000E+00 0. -1.
         22    1    3    3    0    0 -0.54063933037E+01  0.21680177745E+02 -0.79620036047E+00  0.22358289976E+02  0.00000000000E+00 0. -1.
         22    1    3    3    0    0  0.62470225930E+02 -0.86966189015E+01  0.30851592844E+03  0.31489718705E+03  0.00000000000E+00 0. -1.
</event>
<event>
 7    1  0.6888431E-006  0.6701971E+02  0.7818608E-02  0.1413431E+00
          2   -1    0    0  502    0  0.00000000000E+00  0.00000000000E+00  0.13852799731E+03  0.13852799731E+03  0.00000000000E+00 0. -1.
          1   -1    0    0  501    0 -0.00000000000E+00 -0.00000000000E+00 -0.98225456113E+03  0.98225456113E+03  0.00000000000E+00 0. -1.
         25    2    1    2    0    0 -0.68329495676E+02 -0.72672840863E+02 -0.48218631399E+03  0.50801487399E+03  0.12500083606E+03 0.  0.
          2    1    1    2  501    0  0.56852633800E+02  0.26557216146E+02 -0.48054530449E+03  0.48462490379E+03  0.00000000000E+00 0. -1.
          1    1    1    2  502    0  0.11476861876E+02  0.46115624717E+02  0.11900505467E+03  0.12814278067E+03  0.00000000000E+00 0. -1.
         22    1    3    3    0    0  0.34707982648E+02 -0.37748505245E+01 -0.13201280154E+03  0.13655135784E+03  0.00000000000E+00 0.  1.
         22    1    3    3    0    0 -0.10303747832E+03 -0.68897990339E+02 -0.35017351244E+03  0.37146351615E+03  0.00000000000E+00 0.  1.
</event>
<event>
 7    1  0.6888431E-006  0.8921695E+02  0.7818608E-02  0.1311354E+00
          2   -1    0    0  502    0  0.00000000000E+00  0.00000000000E+00  0.71668944097E+03  0.71668944097E+03  0.00000000000E+00 0. -1.
          1   -1    0    0  501    0 -0.00000000000E+00 -0.00000000000E+00 -0.20763827752E+03  0.20763827752E+03  0.00000000000E+00 0. -1.
         25    2    1    2    0    0 -0.82099682790E+02 -0.72974777543E+02  0.76898290455E+02  0.18331471173E+03  0.12500104156E+03 0.  0.
          2    1    1    2  501    0  0.82245742030E+02 -0.17172834390E+02 -0.13920048389E+03  0.16259164504E+03  0.00000000000E+00 0. -1.
          1    1    1    2  502    0 -0.14605923971E+00  0.90147611933E+02  0.57135335688E+03  0.57842136172E+03  0.00000000000E+00 0. -1.
         22    1    3    3    0    0  0.19646509390E+02 -0.59871331669E+02  0.20592142478E+02  0.66291764337E+02  0.00000000000E+00 0.  1.
         22    1    3    3    0    0 -0.10174619218E+03 -0.13103445874E+02  0.56306147977E+02  0.11702294739E+03  0.00000000000E+00 0.  1.
</event>
<event>
 7    1  0.7135296E-006  0.5925132E+02  0.7818608E-02  0.1403859E+00
          2   -1    0    0  502    0  0.00000000000E+00  0.00000000000E+00  0.10322763677E+04  0.10322763677E+04  0.00000000000E+00 0. -1.
          1   -1    0    0  501    0 -0.00000000000E+00 -0.00000000000E+00 -0.82069105525E+03  0.82069105525E+03  0.00000000000E+00 0. -1.
         25    2    1    2    0    0 -0.24201866714E+02 -0.29363054117E+02 -0.35501380563E+02  0.13540456792E+03  0.12500451868E+03 0.  0.
          2    1    1    2  501    0  0.57628386584E+02 -0.17950163002E+02 -0.73314269911E+03  0.73562317565E+03  0.00000000000E+00 0. -1.
          1    1    1    2  502    0 -0.33426519870E+02  0.47313217119E+02  0.98022939210E+03  0.98193967935E+03  0.00000000000E+00 0. -1.
         22    1    3    3    0    0  0.26067578850E+02 -0.49294434914E+02  0.18725234412E+02  0.58822566965E+02  0.00000000000E+00 0. -1.
         22    1    3    3    0    0 -0.50269445565E+02  0.19931380797E+02 -0.54226614975E+02  0.76582000950E+02  0.00000000000E+00 0. -1.
</event>
<event>
 7    1  0.6888431E-006  0.1283949E+03  0.7818608E-02  0.1327286E+00
          2   -1    0    0  502    0  0.00000000000E+00  0.00000000000E+00  0.95169556564E+03  0.95169556564E+03  0.00000000000E+00 0. -1.
          1   -1    0    0  501    0 -0.00000000000E+00 -0.00000000000E+00 -0.18437625120E+03  0.18437625120E+03  0.00000000000E+00 0. -1.
         25    2    1    2    0    0  0.14464716020E+03  0.83585298320E+01 -0.10565993791E+03  0.21859110804E+03  0.12500153624E+03 0.  0.
          2    1    1    2  501    0 -0.96701329053E+02  0.79036127404E+01  0.88358434443E+02  0.13122814893E+03  0.00000000000E+00 0. -1.
          1    1    1    2  502    0 -0.47945831146E+02 -0.16262142572E+02  0.78462081790E+03  0.78625255986E+03  0.00000000000E+00 0. -1.
         22    1    3    3    0    0  0.56805510951E+02 -0.57042569188E+02 -0.57643118069E+02  0.99012372130E+02  0.00000000000E+00 0. -1.
         22    1    3    3    0    0  0.87841649248E+02  0.65401099020E+02 -0.48016819838E+02  0.11957873591E+03  0.00000000000E+00 0. -1.
</event>
<event>
 7    1  0.6888431E-006  0.1009995E+03  0.7818608E-02  0.1314838E+00
          2   -1    0    0  502    0  0.00000000000E+00  0.00000000000E+00  0.43132132168E+03  0.43132132168E+03  0.00000000000E+00 0. -1.
          1   -1    0    0  501    0 -0.00000000000E+00 -0.00000000000E+00 -0.89615576196E+03  0.89615576196E+03  0.00000000000E+00 0. -1.
         25    2    1    2    0    0  0.65087875697E+02  0.60883480364E+02  0.25343995882E+03  0.29631051566E+03  0.12499951687E+03 0.  0.
          2    1    1    2  501    0 -0.37720404241E+02  0.61232897498E+02 -0.84792550800E+03  0.85097001343E+03  0.00000000000E+00 0. -1.
          1    1    1    2  502    0 -0.27367471456E+02 -0.12211637786E+03  0.12965110890E+03  0.18019655456E+03  0.00000000000E+00 0. -1.
         22    1    3    3    0    0  0.72638659137E+02 -0.16272640239E+02  0.10316734697E+03  0.12721900449E+03  0.00000000000E+00 0.  1.
         22    1    3    3    0    0 -0.75507834399E+01  0.77156120603E+02  0.15027261185E+03  0.16909151117E+03  0.00000000000E+00 0.  1.
</event>
<event>
 7    1  0.6888431E-006  0.4334466E+02  0.7818608E-02  0.1565615E+00
          2   -1    0    0  502    0  0.00000000000E+00  0.00000000000E+00  0.19641071870E+04  0.19641071870E+04  0.00000000000E+00 0. -1.
          1   -1    0    0  501    0 -0.00000000000E+00 -0.00000000000E+00 -0.85947086645E+03  0.85947086645E+03  0.00000000000E+00 0. -1.
         25    2    1    2    0    0  0.40035548328E+01 -0.20020930246E+02  0.31115902340E+03  0.33594803462E+03  0.12499711206E+03 0.  0.
          2    1    1    2  501    0 -0.93885671232E+01 -0.23560290490E+02 -0.84659256975E+03  0.84697237950E+03  0.00000000000E+00 0. -1.
          1    1    1    2  502    0  0.53850122904E+01  0.43581220736E+02  0.16400698669E+04  0.16406576393E+04  0.00000000000E+00 0. -1.
         22    1    3    3    0    0 -0.15841464291E+02 -0.16488629505E+01 -0.64545376495E+01  0.17185220283E+02  0.00000000000E+00 0. -1.
         22    1    3    3    0    0  0.19845019124E+02 -0.18372067295E+02  0.31761356105E+03  0.31876281434E+03  0.00000000000E+00 0. -1.
</event>
<event>
 7    1  0.6888431E-006  0.4069648E+02  0.7818608E-02  0.1606511E+00
          2   -1    0    0  502    0  0.00000000000E+00  0.00000000000E+00  0.49996940582E+03  0.49996940582E+03  0.00000000000E+00 0. -1.
          1   -1    0    0  501    0 -0.00000000000E+00 -0.00000000000E+00 -0.12332963232E+04  0.12332963232E+04  0.00000000000E+00 0. -1.
         25    2    1    2    0    0 -0.18943703571E+01 -0.20896917699E+02 -0.52249675699E+03  0.53765008604E+03  0.12499793653E+03 0.  0.
          2    1    1    2  501    0 -0.11614188748E+02 -0.17526466577E+02 -0.70222305364E+03  0.70253774523E+03  0.00000000000E+00 0. -1.
          1    1    1    2  502    0  0.13508559105E+02  0.38423384276E+02  0.49139289330E+03  0.49307789771E+03  0.00000000000E+00 0. -1.
         22    1    3    3    0    0  0.40380915658E+02 -0.40607944290E+02 -0.12581626188E+03  0.13823659155E+03  0.00000000000E+00 0. -1.
         22    1    3    3    0    0 -0.42275286015E+02  0.19711026591E+02 -0.39668049511E+03  0.39941349449E+03  0.00000000000E+00 0. -1.
</event>
<event>
 7    1  0.6888431E-006  0.7481933E+02  0.7818608E-02  0.1468875E+00
          2   -1    0    0  502    0  0.00000000000E+00  0.00000000000E+00  0.17951204671E+03  0.17951204671E+03  0.00000000000E+00 0. -1.
          1   -1    0    0  501    0 -0.00000000000E+00 -0.00000000000E+00 -0.18743188075E+04  0.18743188075E+04  0.00000000000E+00 0. -1.
         25    2    1    2    0    0 -0.51201181393E+02 -0.11924907233E+02 -0.47693090977E+03  0.49583424813E+03  0.12499897815E+03 0.  0.
          2    1    1    2  501    0 -0.23977888319E+02  0.14734822560E+02 -0.13794654088E+04  0.13797524663E+04  0.00000000000E+00 0. -1.
          1    1    1    2  502    0  0.75179069712E+02 -0.28099153269E+01  0.16158955784E+03  0.17824413974E+03  0.00000000000E+00 0. -1.
         22    1    3    3    0    0  0.11291855094E+02  0.47808253532E+02 -0.17798466694E+03  0.18463931533E+03  0.00000000000E+00 0. -1.
         22    1    3    3    0    0 -0.62493036487E+02 -0.59733160765E+02 -0.29894624283E+03  0.31119493281E+03  0.00000000000E+00 0. -1.
</event>
<event>
 7    1  0.6888431E-006  0.7691289E+02  0.7818608E-02  0.1392320E+00
          2   -1    0    0  502    0  0.00000000000E+00  0.00000000000E+00  0.12087233962E+04  0.12087233962E+04  0.00000000000E+00 0. -1.
          1   -1    0    0  501    0 -0.00000000000E+00 -0.00000000000E+00 -0.15795677505E+03  0.15795677505E+03  0.00000000000E+00 0. -1.
         25    2    1    2    0    0 -0.53043105694E+02 -0.14135633588E+02  0.28495095835E+03  0.31596783817E+03  0.12500095558E+03 0.  0.
          2    1    1    2  501    0  0.26930639331E+01 -0.48835500220E+02 -0.13639870634E+03  0.14490260787E+03  0.00000000000E+00 0. -1.
          1    1    1    2  502    0  0.50350041761E+02  0.62971133808E+02  0.90221436912E+03  0.90580972519E+03  0.00000000000E+00 0. -1.
         22    1    3    3    0    0 -0.60748003848E+01 -0.64171290024E+02  0.10301674739E+03  0.12152081264E+03  0.00000000000E+00 0. -1.
         22    1    3    3    0    0 -0.46968305309E+02  0.50035656436E+02  0.18193421096E+03  0.19444702553E+03  0.00000000000E+00 0. -1.
</event>
<event>
 7    1  0.6888431E-006  0.1132494E+03  0.7818608E-02  0.1281816E+00
          2   -1    0    0  502    0  0.00000000000E+00  0.00000000000E+00  0.26987369693E+04  0.26987369693E+04  0.00000000000E+00 0. -1.
          1   -1    0    0  501    0 -0.00000000000E+00 -0.00000000000E+00 -0.47373428065E+03  0.47373428065E+03  0.00000000000E+00 0. -1.
         25    2    1    2    0    0 -0.94627841148E+02 -0.69924574302E+00  0.10257501853E+04  0.10376614017E+04  0.12499129859E+03 0.  0.
          2    1    1    2  501    0  0.76085142843E+02 -0.84337568575E+02 -0.45972583670E+03  0.47355001780E+03  0.00000000000E+00 0. -1.
          1    1    1    2  502    0  0.18542698305E+02  0.85036814318E+02  0.16589783401E+04  0.16612598305E+04  0.00000000000E+00 0. -1.
         22    1    3    3    0    0 -0.49909651795E+02  0.61008702360E+02  0.44420478571E+03  0.45114401997E+03  0.00000000000E+00 0. -1.
         22    1    3    3    0    0 -0.44718189352E+02 -0.61707948103E+02  0.58154539956E+03  0.58651738173E+03  0.00000000000E+00 0. -1.
</event>
<event>
 7    1  0.6888431E-006  0.3561744E+02  0.7818608E-02  0.1575082E+00
          2   -1    0    0  502    0  0.00000000000E+00  0.00000000000E+00  0.17925442314E+04  0.17925442314E+04  0.00000000000E+00 0. -1.
          1   -1    0    0  501    0 -0.00000000000E+00 -0.00000000000E+00 -0.22646667384E+02  0.22646667384E+02  0.00000000000E+00 0. -1.
         25    2    1    2    0    0  0.29405357188E+02 -0.44205964636E+02  0.15160535563E+04  0.15221242673E+04  0.12500022909E+03 0.  0.
          2    1    1    2  501    0 -0.16583957655E+01  0.35467946752E+02 -0.20105921377E+01  0.35563576930E+02  0.00000000000E+00 0. -1.
          1    1    1    2  502    0 -0.27746961422E+02  0.87380178842E+01  0.25585459990E+03  0.25750305458E+03  0.00000000000E+00 0. -1.
         22    1    3    3    0    0  0.31308525609E+02  0.32095041546E+02  0.26679354119E+03  0.27053485744E+03  0.00000000000E+00 0.  1.
         22    1    3    3    0    0 -0.19031684209E+01 -0.76301006182E+02  0.12492600151E+04  0.12515894099E+04  0.00000000000E+00 0.  1.
</event>
<event>
 7    1  0.6888431E-006  0.1260651E+03  0.7818608E-02  0.1369618E+00
          2   -1    0    0  502    0  0.00000000000E+00  0.00000000000E+00  0.60766639876E+03  0.60766639876E+03  0.00000000000E+00 0. -1.
          1   -1    0    0  501    0 -0.00000000000E+00 -0.00000000000E+00 -0.17831008527E+04  0.17831008527E+04  0.00000000000E+00 0. -1.
         25    2    1    2    0    0 -0.16084519466E+03  0.93438499195E+01 -0.10429765237E+02  0.20418755651E+03  0.12500117620E+03 0.  0.
          2    1    1    2  501    0  0.12502646209E+03 -0.69321371223E+01 -0.16728184711E+04  0.16774985270E+04  0.00000000000E+00 0. -1.
          1    1    1    2  502    0  0.35818732570E+02 -0.24117127972E+01  0.50781378241E+03  0.50908116795E+03  0.00000000000E+00 0. -1.
         22    1    3    3    0    0  0.60194239921E+01  0.30215329350E+02  0.14732975383E+02  0.34150551336E+02  0.00000000000E+00 0. -1.
         22    1    3    3    0    0 -0.16686461866E+03 -0.20871479430E+02 -0.25162740620E+02  0.17003700517E+03  0.00000000000E+00 0. -1.
</event>
<event>
 7    1  0.6888431E-006  0.2179890E+03  0.7818608E-02  0.1192039E+00
          2   -1    0    0  502    0  0.00000000000E+00  0.00000000000E+00  0.67609261304E+03  0.67609261304E+03  0.00000000000E+00 0. -1.
          1   -1    0    0  501    0 -0.00000000000E+00 -0.00000000000E+00 -0.34618796133E+03  0.34618796133E+03  0.00000000000E+00 0. -1.
         25    2    1    2    0    0 -0.11313254523E+03  0.68438942029E+02  0.23898910554E+03  0.30037342492E+03  0.12500216101E+03 0.  0.
          2    1    1    2  501    0  0.22576355034E+03 -0.57278502961E+02 -0.26242593926E+03  0.35088086462E+03  0.00000000000E+00 0. -1.
          1    1    1    2  502    0 -0.11263100511E+03 -0.11160439067E+02  0.35334148542E+03  0.37102628483E+03  0.00000000000E+00 0. -1.
         22    1    3    3    0    0 -0.52507928455E+02 -0.33740202835E+02  0.69804057757E+02  0.93638081556E+02  0.00000000000E+00 0. -1.
         22    1    3    3    0    0 -0.60624616772E+02  0.10217914486E+03  0.16918504778E+03  0.20673534337E+03  0.00000000000E+00 0. -1.
</event>
<event>
 7    1  0.6888431E-006  0.8894887E+02  0.7818608E-02  0.1375853E+00
          2   -1    0    0  502    0  0.00000000000E+00  0.00000000000E+00  0.38687069603E+03  0.38687069603E+03  0.00000000000E+00 0. -1.
          1   -1    0    0  501    0 -0.00000000000E+00 -0.00000000000E+00 -0.10690670818E+04  0.10690670818E+04  0.00000000000E+00 0. -1.
         25    2    1    2    0    0 -0.10191584197E+03 -0.97234739768E+01 -0.30441148359E+02  0.16442096138E+03  0.12500481685E+03 0.  0.
          2    1    1    2  501    0  0.27943949179E+02 -0.39433657350E+02 -0.96485448240E+03  0.96606420586E+03  0.00000000000E+00 0. -1.
          1    1    1    2  502    0  0.73971892794E+02  0.49157131327E+02  0.31309924502E+03  0.32545261056E+03  0.00000000000E+00 0. -1.
         22    1    3    3    0    0 -0.10697368501E+03  0.76821700525E+01 -0.64991699858E+02  0.12540456958E+03  0.00000000000E+00 0. -1.
         22    1    3    3    0    0  0.50578430353E+01 -0.17405644029E+02  0.34550551499E+02  0.39016391800E+02  0.00000000000E+00 0. -1.
</event>
<event>
 7    1  0.6888431E-006  0.9514157E+02  0.7818608E-02  0.1447926E+00
          2   -1    0    0  502    0  0.00000000000E+00  0.00000000000E+00  0.20870744885E+04  0.20870744885E+04  0.00000000000E+00 0. -1.
          1   -1    0    0  501    0 -0.00000000000E+00 -0.00000000000E+00 -0.24366446588E+02  0.24366446588E+02  0.00000000000E+00 0. -1.
         25    2    1    2    0    0 -0.11004129662E+03 -0.98954524453E+01  0.71001006743E+03  0.72934638842E+03  0.12499940604E+03 0.  0.
          2    1    1    2  501    0  0.17594799807E+02  0.18840504911E+02 -0.43045504055E+00  0.25782298135E+02  0.00000000000E+00 0. -1.
          1    1    1    2  502    0  0.92446496808E+02 -0.89450524657E+01  0.13531284296E+04  0.13563122486E+04  0.00000000000E+00 0. -1.
         22    1    3    3    0    0 -0.37868149950E+02 -0.42836491596E+01  0.39308627018E+02  0.54749562453E+02  0.00000000000E+00 0. -1.
         22    1    3    3    0    0 -0.72173146666E+02 -0.56118032856E+01  0.67070144041E+03  0.67459682597E+03  0.00000000000E+00 0. -1.
</event>
<event>
 7    1  0.6888431E-006  0.6677692E+02  0.7818608E-02  0.1456454E+00
          2   -1    0    0  502    0  0.00000000000E+00  0.00000000000E+00  0.88631788542E+03  0.88631788542E+03  0.00000000000E+00 0. -1.
          1   -1    0    0  501    0 -0.00000000000E+00 -0.00000000000E+00 -0.35675110380E+02  0.35675110380E+02  0.00000000000E+00 0. -1.
         25    2    1    2    0    0 -0.63731615694E+02  0.24064582195E+02  0.17221456539E+03  0.22344226426E+03  0.12501106340E+03 0.  0.
          2    1    1    2  501    0  0.44804223831E+02 -0.52907466043E+02  0.11652999833E+03  0.13559446503E+03  0.00000000000E+00 0. -1.
          1    1    1    2  502    0  0.18927391863E+02  0.28842883848E+02  0.56189821133E+03  0.56295626651E+03  0.00000000000E+00 0. -1.
         22    1    3    3    0    0  0.14369842331E+02  0.33194136037E+02  0.23347761668E+01  0.36246299337E+02  0.00000000000E+00 0. -1.
         22    1    3    3    0    0 -0.78101458025E+02 -0.91295538424E+01  0.16987978922E+03  0.18719596493E+03  0.00000000000E+00 0. -1.
</event>
<event>
 7    1  0.6888431E-006  0.4772533E+02  0.7818608E-02  0.1480387E+00
          2   -1    0    0  502    0  0.00000000000E+00  0.00000000000E+00  0.37054565718E+04  0.37054565718E+04  0.00000000000E+00 0. -1.
          1   -1    0    0  501    0 -0.00000000000E+00 -0.00000000000E+00 -0.60662449203E+02  0.60662449203E+02  0.00000000000E+00 0. -1.
         25    2    1    2    0    0 -0.75106744513E+02  0.20043446939E+02  0.11774964561E+04  0.11866614681E+04  0.12499909138E+03 0.  0.
          2    1    1    2  501    0  0.35979089521E+02 -0.31065059481E+02 -0.45813140078E+02  0.66018002145E+02  0.00000000000E+00 0. -1.
          1    1    1    2  502    0  0.39127654992E+02  0.11021612542E+02  0.25131108066E+04  0.25134395508E+04  0.00000000000E+00 0. -1.
         22    1    3    3    0    0 -0.52056573531E+02 -0.22703658477E+01  0.15236919466E+03  0.16103233492E+03  0.00000000000E+00 0. -1.
         22    1    3    3    0    0 -0.23050170983E+02  0.22313812787E+02  0.10251272615E+04  0.10256291332E+04  0.00000000000E+00 0. -1.
</event>
<event>
 7    1  0.6888431E-006  0.7784962E+02  0.7818608E-02  0.1338901E+00
          2   -1    0    0  502    0  0.00000000000E+00  0.00000000000E+00  0.51735529650E+03  0.51735529650E+03  0.00000000000E+00 0. -1.
          1   -1    0    0  501    0 -0.00000000000E+00 -0.00000000000E+00 -0.92458658704E+03  0.92458658704E+03  0.00000000000E+00 0. -1.
         25    2    1    2    0    0 -0.14144122870E+03  0.14501640965E+02  0.72281739568E+02  0.20264402923E+03  0.12499613570E+03 0.  0.
          2    1    1    2  501    0  0.68819329092E+02 -0.34877618894E+02 -0.85390512009E+03  0.85738352123E+03  0.00000000000E+00 0. -1.
          1    1    1    2  502    0  0.72621899605E+02  0.20375977929E+02  0.37439208998E+03  0.38191433308E+03  0.00000000000E+00 0. -1.
         22    1    3    3    0    0 -0.10442204916E+03  0.33368260489E+02  0.10342989696E+03  0.15071545622E+03  0.00000000000E+00 0.  1.
         22    1    3    3    0    0 -0.37019179541E+02 -0.18866619524E+02 -0.31148157390E+02  0.51928573011E+02  0.00000000000E+00 0.  1.
</event>
<event>
 7    1  0.6888431E-006  0.8947435E+02  0.7818608E-02  0.1348481E+00
          2   -1    0    0  502    0  0.00000000000E+00  0.00000000000E+00  0.11792569278E+03  0.11792569278E+03  0.00000000000E+00 0. -1.
          1   -1    0    0  501    0 -0.00000000000E+00 -0.00000000000E+00 -0.10017564356E+04  0.10017564356E+04  0.00000000000E+00 0. -1.
         25    2    1    2    0    0  0.32841485761E+01  0.79327478863E+02 -0.20808937861E+02  0.14953859053E+03  0.12500057452E+03 0.  0.
          2    1    1    2  501    0  0.60428415391E+02 -0.17659195097E+00 -0.86637550592E+03  0.86848036353E+03  0.00000000000E+00 0. -1.
          1    1    1    2  502    0 -0.63712563967E+02 -0.79150886912E+02  0.33537009510E+01  0.10166317434E+03  0.00000000000E+00 0. -1.
         22    1    3    3    0    0 -0.36728754193E+02  0.66975599349E+02  0.31419801529E+02  0.82595013293E+02  0.00000000000E+00 0. -1.
         22    1    3    3    0    0  0.40012902769E+02  0.12351879513E+02 -0.52228739389E+02  0.66943577240E+02  0.00000000000E+00 0. -1.
</event>
<event>
 7    1  0.6888431E-006  0.1297453E+03  0.7818608E-02  0.1257233E+00
          2   -1    0    0  502    0  0.00000000000E+00  0.00000000000E+00  0.28362631705E+03  0.28362631705E+03  0.00000000000E+00 0. -1.
          1   -1    0    0  501    0 -0.00000000000E+00 -0.00000000000E+00 -0.22198830047E+04  0.22198830047E+04  0.00000000000E+00 0. -1.
         25    2    1    2    0    0  0.15865779822E+03  0.59123420681E+02 -0.19375824365E+03  0.28607293945E+03  0.12501037514E+03 0.  0.
          2    1    1    2  501    0 -0.74300107898E+02 -0.10572480852E+03 -0.19679823961E+04  0.19722203104E+04  0.00000000000E+00 0. -1.
          1    1    1    2  502    0 -0.84357690323E+02  0.46601387843E+02  0.22548395213E+03  0.24521607193E+03  0.00000000000E+00 0. -1.
         22    1    3    3    0    0  0.74163956157E+00 -0.28227863913E+02 -0.14639925437E+02  0.31807070710E+02  0.00000000000E+00 0.  1.
         22    1    3    3    0    0  0.15791615866E+03  0.87351284594E+02 -0.17911831822E+03  0.25426586874E+03  0.00000000000E+00 0.  1.
</event>
<event>
 7    1  0.6888431E-006  0.1919633E+03  0.7818608E-02  0.1257129E+00
          2   -1    0    0  502    0  0.00000000000E+00  0.00000000000E+00  0.54800904268E+03  0.54800904268E+03  0.00000000000E+00 0. -1.
          1   -1    0    0  501    0 -0.00000000000E+00 -0.00000000000E+00 -0.31766811829E+03  0.31766811829E+03  0.00000000000E+00 0. -1.
         25    2    1    2    0    0  0.45938630452E+02  0.19765247908E+03 -0.63270739993E+02  0.24658663156E+03  0.12499968030E+03 0.  0.
          2    1    1    2  501    0 -0.64847196954E+02 -0.68206126927E+01 -0.13478647710E+03  0.14973000408E+03  0.00000000000E+00 0. -1.
          1    1    1    2  502    0  0.18908566502E+02 -0.19083186638E+03  0.42839814148E+03  0.46936052533E+03  0.00000000000E+00 0. -1.
         22    1    3    3    0    0  0.44258693712E+02  0.45258978046E+02 -0.69562611498E+02  0.94054048192E+02  0.00000000000E+00 0. -1.
         22    1    3    3    0    0  0.16799367405E+01  0.15239350103E+03  0.62918715045E+01  0.15253258337E+03  0.00000000000E+00 0. -1.
</event>
<event>
 7    1  0.6888431E-006  0.6537721E+02  0.7818608E-02  0.1392742E+00
          2   -1    0    0  502    0  0.00000000000E+00  0.00000000000E+00  0.15695969163E+04  0.15695969163E+04  0.00000000000E+00 0. -1.
          1   -1    0    0  501    0 -0.00000000000E+00 -0.00000000000E+00 -0.37997987188E+03  0.37997987188E+03  0.00000000000E+00 0. -1.
         25    2    1    2    0    0 -0.57235707274E+02  0.73544993404E+01  0.70683668121E+03  0.72012018604E+03  0.12499989436E+03 0.  0.
          2    1    1    2  501    0  0.60388491615E+01 -0.57026558587E+02 -0.36963745849E+03  0.37405928247E+03  0.00000000000E+00 0. -1.
          1    1    1    2  502    0  0.51196858113E+02  0.49672059246E+02  0.85241782172E+03  0.85539731969E+03  0.00000000000E+00 0. -1.
         22    1    3    3    0    0  0.23764949406E+02  0.17629016750E+02  0.44184437302E+03  0.44283406037E+03  0.00000000000E+00 0. -1.
         22    1    3    3    0    0 -0.81000656681E+02 -0.10274517409E+02  0.26499230819E+03  0.27728612567E+03  0.00000000000E+00 0. -1.
</event>
<event>
 7    1  0.6888431E-006  0.1167220E+03  0.7818608E-02  0.1337741E+00
          2   -1    0    0  502    0  0.00000000000E+00  0.00000000000E+00  0.52764979124E+03  0.52764979124E+03  0.00000000000E+00 0. -1.
          1   -1    0    0  501    0 -0.00000000000E+00 -0.00000000000E+00 -0.28405600248E+03  0.28405600248E+03  0.00000000000E+00 0. -1.
         25    2    1    2    0    0  0.51069792887E+02  0.72980481233E+02 -0.19402780868E+02  0.15470967180E+03  0.12499736100E+03 0.  0.
          2    1    1    2  501    0 -0.35155567639E+02 -0.12124067253E+03 -0.17515704315E+03  0.21590554504E+03  0.00000000000E+00 0. -1.
          1    1    1    2  502    0 -0.15914225248E+02  0.48260191299E+02  0.43815361278E+03  0.44109057689E+03  0.00000000000E+00 0. -1.
         22    1    3    3    0    0  0.84797515090E+02  0.31381773154E+02 -0.37915975393E+02  0.98046190348E+02  0.00000000000E+00 0.  1.
         22    1    3    3    0    0 -0.33727722203E+02  0.41598708079E+02  0.18513194525E+02  0.56663481454E+02  0.00000000000E+00 0.  1.
</event>
<event>
 7    1  0.6888431E-006  0.1217305E+03  0.7818608E-02  0.1264777E+00
          2   -1    0    0  502    0  0.00000000000E+00  0.00000000000E+00  0.52517162070E+03  0.52517162070E+03  0.00000000000E+00 0. -1.
          1   -1    0    0  501    0 -0.00000000000E+00 -0.00000000000E+00 -0.17237448454E+03  0.17237448454E+03  0.00000000000E+00 0. -1.
         25    2    1    2    0    0 -0.44367119160E+02 -0.17255391255E+02  0.10107197290E+03  0.16765182389E+03  0.12500160222E+03 0.  0.
          2    1    1    2  501    0  0.13354599389E+03  0.51116456909E+02 -0.94083608007E+02  0.17116994464E+03  0.00000000000E+00 0. -1.
          1    1    1    2  502    0 -0.89178874731E+02 -0.33861065654E+02  0.34580877126E+03  0.35872433671E+03  0.00000000000E+00 0. -1.
         22    1    3    3    0    0 -0.49313215820E+02  0.19367690623E+02 -0.69956594290E+01  0.53440059370E+02  0.00000000000E+00 0. -1.
         22    1    3    3    0    0  0.49460966599E+01 -0.36623081878E+02  0.10806763233E+03  0.11421176452E+03  0.00000000000E+00 0. -1.
</event>
<event>
 7    1  0.6888431E-006  0.5243724E+02  0.7818608E-02  0.1433510E+00
          2   -1    0    0  502    0  0.00000000000E+00  0.00000000000E+00  0.14623958403E+04  0.14623958403E+04  0.00000000000E+00 0. -1.
          1   -1    0    0  501    0 -0.00000000000E+00 -0.00000000000E+00 -0.55215417965E+03  0.55215417965E+03  0.00000000000E+00 0. -1.
         25    2    1    2    0    0 -0.54355248274E+02 -0.96640175711E+01 -0.74743116278E+01  0.13684790977E+03  0.12499439517E+03 0.  0.
          2    1    1    2  501    0  0.18920547939E+02  0.48529078165E+02 -0.47808327847E+03  0.48091234099E+03  0.00000000000E+00 0. -1.
          1    1    1    2  502    0  0.35434700334E+02 -0.38865060593E+02  0.13957992508E+04  0.13967897692E+04  0.00000000000E+00 0. -1.
         22    1    3    3    0    0 -0.56674387470E+02 -0.54427694478E+02  0.23904034544E+02  0.82132593949E+02  0.00000000000E+00 0.  1.
         22    1    3    3    0    0  0.23191391963E+01  0.44763676907E+02 -0.31378346172E+02  0.54715315821E+02  0.00000000000E+00 0.  1.
</event>
<event>
 7    1  0.6888431E-006  0.1425230E+03  0.7818608E-02  0.1323831E+00
          2   -1    0    0  502    0  0.00000000000E+00  0.00000000000E+00  0.11722242767E+03  0.11722242767E+03  0.00000000000E+00 0. -1.
          1   -1    0    0  501    0 -0.00000000000E+00 -0.00000000000E+00 -0.26822302224E+04  0.26822302224E+04  0.00000000000E+00 0. -1.
         25    2    1    2    0    0  0.17365076411E+03  0.49628141788E+01 -0.11826702768E+04  0.12018785859E+04  0.12499573624E+03 0.  0.
          2    1    1    2  501    0 -0.13097349550E+03 -0.24716232077E+02 -0.14816800313E+04  0.14876628193E+04  0.00000000000E+00 0. -1.
          1    1    1    2  502    0 -0.42677268615E+02  0.19753417898E+02  0.99342513453E+02  0.10991124489E+03  0.00000000000E+00 0. -1.
         22    1    3    3    0    0  0.18930812152E+03 -0.13359598654E+02 -0.10624083492E+04  0.10792254372E+04  0.00000000000E+00 0.  1.
         22    1    3    3    0    0 -0.15657357408E+02  0.18322412833E+02 -0.12026192760E+03  0.12265314869E+03  0.00000000000E+00 0.  1.
</event>
<event>
 7    1  0.6888431E-006  0.1328049E+03  0.7818608E-02  0.1227550E+00
          2   -1    0    0  502    0  0.00000000000E+00  0.00000000000E+00  0.78727281087E+03  0.78727281087E+03  0.00000000000E+00 0. -1.
          1   -1    0    0  501    0 -0.00000000000E+00 -0.00000000000E+00 -0.88608628575E+03  0.88608628575E+03  0.00000000000E+00 0. -1.
         25    2    1    2    0    0 -0.10000335178E+03  0.38287592379E+02  0.23876526816E+03  0.29000158934E+03  0.12500183376E+03 0.  0.
          2    1    1    2  501    0 -0.23092752969E+02 -0.13078177444E+03 -0.84382601804E+03  0.85421279345E+03  0.00000000000E+00 0. -1.
          1    1    1    2  502    0  0.12309610475E+03  0.92494182062E+02  0.50624727501E+03  0.52914471383E+03  0.00000000000E+00 0. -1.
         22    1    3    3    0    0 -0.16387633684E+02  0.69533068341E+02  0.75584301665E+02  0.10400186916E+03  0.00000000000E+00 0.  1.
         22    1    3    3    0    0 -0.83615718097E+02 -0.31245475962E+02  0.16318096650E+03  0.18599972018E+03  0.00000000000E+00 0.  1.
</event>
<event>
 7    1  0.6888431E-006  0.6736329E+02  0.7818608E-02  0.1480354E+00
          2   -1    0    0  502    0  0.00000000000E+00  0.00000000000E+00  0.51454714768E+02  0.51454714768E+02  0.00000000000E+00 0. -1.
          1   -1    0    0  501    0 -0.00000000000E+00 -0.00000000000E+00 -0.15280500026E+04  0.15280500026E+04  0.00000000000E+00 0. -1.
         25    2    1    2    0    0 -0.69311982696E+02  0.41507024727E+00 -0.36688369892E+03  0.39374316038E+03  0.12500281830E+03 0.  0.
          2    1    1    2  501    0  0.61509409001E+02 -0.28144620248E+02 -0.11411317824E+04  0.11431348441E+04  0.00000000000E+00 0. -1.
          1    1    1    2  502    0  0.78025736954E+01  0.27729550001E+02  0.31420193431E+02  0.42626712925E+02  0.00000000000E+00 0. -1.
         22    1    3    3    0    0 -0.43954545090E+02 -0.61695976248E+02 -0.20166429632E+03  0.21542257062E+03  0.00000000000E+00 0.  1.
         22    1    3    3    0    0 -0.25357437606E+02  0.62111046495E+02 -0.16521940259E+03  0.17832058976E+03  0.00000000000E+00 0.  1.
</event>
<event>
 7    1  0.6888431E-006  0.3387011E+02  0.7818608E-02  0.1645536E+00
          2   -1    0    0  502    0  0.00000000000E+00  0.00000000000E+00  0.39337203244E+03  0.39337203244E+03  0.00000000000E+00 0. -1.
          1   -1    0    0  501    0 -0.00000000000E+00 -0.00000000000E+00 -0.42940057583E+03  0.42940057583E+03  0.00000000000E+00 0. -1.
         25    2    1    2    0    0 -0.49707596166E+01 -0.13989603782E+02 -0.97771651189E+02  0.15938857444E+03  0.12500001768E+03 0.  0.
          2    1    1    2  501    0 -0.14754426987E+02 -0.13693365540E+02 -0.29968537006E+03  0.30036065389E+03  0.00000000000E+00 0. -1.
          1    1    1    2  502    0  0.19725186604E+02  0.27682969323E+02  0.36142847786E+03  0.36302337995E+03  0.00000000000E+00 0. -1.
         22    1    3    3    0    0  0.98813392885E+01 -0.55009350074E+02 -0.10122177666E+03  0.11562662986E+03  0.00000000000E+00 0. -1.
         22    1    3    3    0    0 -0.14852098905E+02  0.41019746292E+02  0.34501254694E+01  0.43761944581E+02  0.00000000000E+00 0. -1.
</event>
<event>
 7    1  0.6888431E-006  0.1123160E+03  0.7818608E-02  0.1459742E+00
          2   -1    0    0  502    0  0.00000000000E+00  0.00000000000E+00  0.83040975680E+02  0.83040975680E+02  0.00000000000E+00 0. -1.
          1   -1    0    0  501    0 -0.00000000000E+00 -0.00000000000E+00 -0.12013449329E+04  0.12013449329E+04  0.00000000000E+00 0. -1.
         25    2    1    2    0    0  0.30698878639E+02 -0.10463215457E+03 -0.22373959847E+03  0.27852642383E+03  0.12500900738E+03 0.  0.
          2    1    1    2  501    0 -0.12177393022E+02  0.11224668249E+03 -0.94493382215E+03  0.95165515544E+03  0.00000000000E+00 0. -1.
          1    1    1    2  502    0 -0.18521485617E+02 -0.76145279240E+01  0.50369463440E+02  0.54204329276E+02  0.00000000000E+00 0. -1.
         22    1    3    3    0    0  0.49526336996E+01  0.16207671699E+02 -0.10770314743E+03  0.10902836864E+03  0.00000000000E+00 0.  1.
         22    1    3    3    0    0  0.25746244940E+02 -0.12083982627E+03 -0.11603645104E+03  0.16949805518E+03  0.00000000000E+00 0.  1.
</event>
<event>
 7    1  0.6888431E-006  0.2794683E+03  0.7818608E-02  0.1209662E+00
          2   -1    0    0  502    0  0.00000000000E+00  0.00000000000E+00  0.80899922844E+03  0.80899922844E+03  0.00000000000E+00 0. -1.
          1   -1    0    0  501    0 -0.00000000000E+00 -0.00000000000E+00 -0.10249789537E+04  0.10249789537E+04  0.00000000000E+00 0. -1.
         25    2    1    2    0    0  0.26199880072E+03  0.16762124228E+03  0.71325136044E+01  0.33528508173E+03  0.12499984334E+03 0.  0.
          2    1    1    2  501    0 -0.19476346872E+03 -0.19586351122E+03 -0.83653148473E+03  0.88095416947E+03  0.00000000000E+00 0. -1.
          1    1    1    2  502    0 -0.67235332007E+02  0.28242268940E+02  0.61341924585E+03  0.61773893095E+03  0.00000000000E+00 0. -1.
         22    1    3    3    0    0  0.25805474050E+03  0.18491719420E+03  0.66764036978E+01  0.31753927659E+03  0.00000000000E+00 0.  1.
         22    1    3    3    0    0  0.39440602209E+01 -0.17295951924E+02  0.45610990665E+00  0.17745805144E+02  0.00000000000E+00 0.  1.
</event>
<event>
 7    1  0.6888431E-006  0.6736883E+02  0.7818608E-02  0.1445838E+00
          2   -1    0    0  502    0  0.00000000000E+00  0.00000000000E+00  0.27933441333E+03  0.27933441333E+03  0.00000000000E+00 0. -1.
          1   -1    0    0  501    0 -0.00000000000E+00 -0.00000000000E+00 -0.15004343922E+04  0.15004343922E+04  0.00000000000E+00 0. -1.
         25    2    1    2    0    0 -0.94233299609E+02  0.28872922642E+02 -0.31882564171E+03  0.35635525836E+03  0.12500287969E+03 0.  0.
          2    1    1    2  501    0  0.36592308971E+02  0.52915366281E+01 -0.11582364986E+04  0.11588264685E+04  0.00000000000E+00 0. -1.
          1    1    1    2  502    0  0.57640990638E+02 -0.34164459270E+02  0.25596216147E+03  0.26458707864E+03  0.00000000000E+00 0. -1.
         22    1    3    3    0    0 -0.32378385729E+02 -0.47580241218E+02 -0.15423932427E+03  0.16462687620E+03  0.00000000000E+00 0. -1.
         22    1    3    3    0    0 -0.61854913881E+02  0.76453163860E+02 -0.16458631744E+03  0.19172838215E+03  0.00000000000E+00 0. -1.
</event>
<event>
 7    1  0.6888431E-006  0.1875277E+03  0.7818608E-02  0.1284099E+00
          2   -1    0    0  502    0  0.00000000000E+00  0.00000000000E+00  0.23444272507E+04  0.23444272507E+04  0.00000000000E+00 0. -1.
          1   -1    0    0  501    0 -0.00000000000E+00 -0.00000000000E+00 -0.40380327564E+02  0.40380327564E+02  0.00000000000E+00 0. -1.
         25    2    1    2    0    0 -0.19191741161E+03 -0.10274421079E+02  0.10152378166E+04  0.10408079475E+04  0.12504200435E+03 0.  0.
          2    1    1    2  501    0  0.17795504351E+03  0.59780111787E+02  0.30027453032E+03  0.35412773519E+03  0.00000000000E+00 0. -1.
          1    1    1    2  502    0  0.13962368102E+02 -0.49505690708E+02  0.98853457624E+03  0.98987189553E+03  0.00000000000E+00 0. -1.
         22    1    3    3    0    0  0.17077255626E+02 -0.24977750935E+01  0.13326663560E+03  0.13437956579E+03  0.00000000000E+00 0. -1.
         22    1    3    3    0    0 -0.20899466723E+03 -0.77766459859E+01  0.88197118099E+03  0.90642838176E+03  0.00000000000E+00 0. -1.
</event>
<event>
 7    1  0.6888431E-006  0.1198867E+03  0.7818608E-02  0.1304390E+00
          2   -1    0    0  502    0  0.00000000000E+00  0.00000000000E+00  0.89713938707E+03  0.89713938707E+03  0.00000000000E+00 0. -1.
          1   -1    0    0  501    0 -0.00000000000E+00 -0.00000000000E+00 -0.91302972925E+03  0.91302972925E+03  0.00000000000E+00 0. -1.
         25    2    1    2    0    0 -0.15914637938E+03  0.47789808789E+02  0.36110887034E+03  0.41669922623E+03  0.12500877172E+03 0.  0.
          2    1    1    2  501    0  0.65595469067E+02  0.11626954828E+02 -0.87791599825E+03  0.88043991937E+03  0.00000000000E+00 0. -1.
          1    1    1    2  502    0  0.93550910317E+02 -0.59416763618E+02  0.50091678573E+03  0.51302997071E+03  0.00000000000E+00 0. -1.
         22    1    3    3    0    0 -0.37981832536E+02 -0.30554735468E+02  0.17234449059E+03  0.17910565289E+03  0.00000000000E+00 0.  1.
         22    1    3    3    0    0 -0.12116454685E+03  0.78344544258E+02  0.18876437976E+03  0.23759357334E+03  0.00000000000E+00 0.  1.
</event>
<event>
 7    1  0.6888431E-006  0.1405169E+03  0.7818608E-02  0.1288906E+00
          2   -1    0    0  502    0  0.00000000000E+00  0.00000000000E+00  0.23060661736E+04  0.23060661736E+04  0.00000000000E+00 0. -1.
          1   -1    0    0  501    0 -0.00000000000E+00 -0.00000000000E+00 -0.94058999023E+03  0.94058999023E+03  0.00000000000E+00 0. -1.
         25    2    1    2    0    0 -0.17417772022E+03 -0.10042905465E+03  0.32258749219E+03  0.40013876063E+03  0.12499785759E+03 0.  0.
          2    1    1    2  501    0  0.50605135519E+02  0.41754419793E+02 -0.89821082119E+03  0.90060368122E+03  0.00000000000E+00 0. -1.
          1    1    1    2  502    0  0.12357258470E+03  0.58674634859E+02  0.19410995123E+04  0.19459137219E+04  0.00000000000E+00 0. -1.
         22    1    3    3    0    0 -0.18670288947E+03 -0.83272714385E+02  0.31856681467E+03  0.37851965511E+03  0.00000000000E+00 0. -1.
         22    1    3    3    0    0  0.12525169244E+02 -0.17156340266E+02  0.40206775250E+01  0.21619105525E+02  0.00000000000E+00 0. -1.
</event>
<event>
 7    1  0.6888431E-006  0.4284898E+02  0.7818608E-02  0.1511010E+00
          2   -1    0    0  502    0  0.00000000000E+00  0.00000000000E+00  0.96729683964E+03  0.96729683964E+03  0.00000000000E+00 0. -1.
          1   -1    0    0  501    0 -0.00000000000E+00 -0.00000000000E+00 -0.36503404056E+03  0.36503404056E+03  0.00000000000E+00 0. -1.
         25    2    1    2    0    0 -0.94806137783E+01  0.76384110518E+02  0.36826787173E+03  0.39644518509E+03  0.12499258000E+03 0.  0.
          2    1    1    2  501    0 -0.10374150367E+01 -0.36623667795E+02 -0.34926302187E+03  0.35117948078E+03  0.00000000000E+00 0. -1.
          1    1    1    2  502    0  0.10518028815E+02 -0.39760442724E+02  0.58325794923E+03  0.58470621433E+03  0.00000000000E+00 0. -1.
         22    1    3    3    0    0 -0.54292564468E+02  0.13295102958E+00  0.97482992995E+02  0.11158240971E+03  0.00000000000E+00 0. -1.
         22    1    3    3    0    0  0.44811950690E+02  0.76251159489E+02  0.27078487873E+03  0.28486277538E+03  0.00000000000E+00 0. -1.
</event>
<event>
 7    1  0.6888431E-006  0.6540432E+02  0.7818608E-02  0.1384363E+00
          2   -1    0    0  502    0  0.00000000000E+00  0.00000000000E+00  0.14680683756E+04  0.14680683756E+04  0.00000000000E+00 0. -1.
          1   -1    0    0  501    0 -0.00000000000E+00 -0.00000000000E+00 -0.12356579049E+04  0.12356579049E+04  0.00000000000E+00 0. -1.
         25    2    1    2    0    0 -0.80928811897E+02 -0.56953024063E+02  0.24549768160E+03  0.29272438898E+03  0.12500134674E+03 0.  0.
          2    1    1    2  501    0  0.19837274046E+02  0.62276946498E+02 -0.12103781378E+04  0.12121415644E+04  0.00000000000E+00 0. -1.
          1    1    1    2  502    0  0.61091537851E+02 -0.53239224354E+01  0.11972909270E+04  0.11988603272E+04  0.00000000000E+00 0. -1.
         22    1    3    3    0    0 -0.10287155548E+03 -0.76896061355E+02  0.21305406429E+03  0.24877217587E+03  0.00000000000E+00 0. -1.
         22    1    3    3    0    0  0.21942743585E+02  0.19943037292E+02  0.32443617313E+02  0.43952213105E+02  0.00000000000E+00 0. -1.
</event>
<event>
 7    1  0.6888431E-006  0.7443977E+02  0.7818608E-02  0.1378814E+00
          2   -1    0    0  502    0  0.00000000000E+00  0.00000000000E+00  0.15330539154E+03  0.15330539154E+03  0.00000000000E+00 0. -1.
          1   -1    0    0  501    0 -0.00000000000E+00 -0.00000000000E+00 -0.23152401485E+04  0.23152401485E+04  0.00000000000E+00 0. -1.
         25    2    1    2    0    0  0.10421197838E+03  0.70722566655E+02 -0.17690645603E+04  0.17779416223E+04  0.12500070239E+03 0.  0.
          2    1    1    2  501    0 -0.54021934729E+02 -0.16091554406E+02 -0.53090905207E+03  0.53389299408E+03  0.00000000000E+00 0. -1.
          1    1    1    2  502    0 -0.50190043652E+02 -0.54631012249E+02  0.13803885548E+03  0.15671092369E+03  0.00000000000E+00 0. -1.
         22    1    3    3    0    0  0.38257642447E+02  0.20480142400E+01 -0.12256235963E+04  0.12262222643E+04  0.00000000000E+00 0. -1.
         22    1    3    3    0    0  0.65954335934E+02  0.68674552415E+02 -0.54344096402E+03  0.55171935796E+03  0.00000000000E+00 0. -1.
</event>
<event>
 7    1  0.6888431E-006  0.1192031E+03  0.7818608E-02  0.1278968E+00
          2   -1    0    0  502    0  0.00000000000E+00  0.00000000000E+00  0.82605717984E+03  0.82605717984E+03  0.00000000000E+00 0. -1.
          1   -1    0    0  501    0 -0.00000000000E+00 -0.00000000000E+00 -0.25253409944E+04  0.25253409944E+04  0.00000000000E+00 0. -1.
         25    2    1    2    0    0 -0.33102473751E+02  0.15218130537E+03 -0.26314484587E+03  0.33034118345E+03  0.12500065642E+03 0.  0.
          2    1    1    2  501    0 -0.50988091571E+02 -0.67955888530E+02 -0.22233133626E+04  0.22249359759E+04  0.00000000000E+00 0. -1.
          1    1    1    2  502    0  0.84090565323E+02 -0.84225416844E+02  0.78717439390E+03  0.79612101494E+03  0.00000000000E+00 0. -1.
         22    1    3    3    0    0  0.83573136435E+01 -0.14954014943E+02 -0.16104238319E+01  0.17206415058E+02  0.00000000000E+00 0. -1.
         22    1    3    3    0    0 -0.41459787395E+02  0.16713532032E+03 -0.26153442203E+03  0.31313476839E+03  0.00000000000E+00 0. -1.
</event>
<event>
 7    1  0.6888431E-006  0.1005059E+03  0.7818608E-02  0.1386646E+00
          2   -1    0    0  502    0  0.00000000000E+00  0.00000000000E+00  0.58729827956E+03  0.58729827956E+03  0.00000000000E+00 0. -1.
          1   -1    0    0  501    0 -0.00000000000E+00 -0.00000000000E+00 -0.22977931809E+03  0.22977931809E+03  0.00000000000E+00 0. -1.
         25    2    1    2    0    0  0.51807905099E+01  0.12136708199E+03  0.43866346825E+02  0.17973852096E+03  0.12499948140E+03 0.  0.
          2    1    1    2  501    0 -0.29959120601E+02 -0.25242731067E+02 -0.15418602502E+03  0.15908511775E+03  0.00000000000E+00 0. -1.
          1    1    1    2  502    0  0.24778330091E+02 -0.96124350924E+02  0.46783863966E+03  0.47825395894E+03  0.00000000000E+00 0. -1.
         22    1    3    3    0    0 -0.28867861114E+02  0.19249937747E+02 -0.32671040647E+02  0.47658266917E+02  0.00000000000E+00 0. -1.
         22    1    3    3    0    0  0.34048651624E+02  0.10211714424E+03  0.76537387472E+02  0.13208025404E+03  0.00000000000E+00 0. -1.
</event>
<event>
 7    1  0.6888431E-006  0.7996952E+02  0.7818608E-02  0.1380856E+00
          2   -1    0    0  502    0  0.00000000000E+00  0.00000000000E+00  0.15018614562E+04  0.15018614562E+04  0.00000000000E+00 0. -1.
          1   -1    0    0  501    0 -0.00000000000E+00 -0.00000000000E+00 -0.83669038449E+02  0.83669038449E+02  0.00000000000E+00 0. -1.
         25    2    1    2    0    0 -0.58001523669E+02  0.51994872425E+02  0.17836259601E+03  0.23131292584E+03  0.12499924201E+03 0.  0.
          2    1    1    2  501    0 -0.22628848158E+02 -0.46377264426E+02 -0.44018635555E+02  0.67827396388E+02  0.00000000000E+00 0. -1.
          1    1    1    2  502    0  0.80630371826E+02 -0.56176079987E+01  0.12838484573E+04  0.12863901725E+04  0.00000000000E+00 0. -1.
         22    1    3    3    0    0  0.92175114132E+01  0.74298913747E+02  0.74650275482E+02  0.10572584703E+03  0.00000000000E+00 0. -1.
         22    1    3    3    0    0 -0.67219035082E+02 -0.22304041322E+02  0.10371232052E+03  0.12558707881E+03  0.00000000000E+00 0. -1.
</event>
<event>
 7    1  0.6888431E-006  0.1159085E+03  0.7818608E-02  0.1296165E+00
          2   -1    0    0  502    0  0.00000000000E+00  0.00000000000E+00  0.12769505989E+04  0.12769505989E+04  0.00000000000E+00 0. -1.
          1   -1    0    0  501    0 -0.00000000000E+00 -0.00000000000E+00 -0.68749500761E+02  0.68749500761E+02  0.00000000000E+00 0. -1.
         25    2    1    2    0    0  0.14851456268E+03 -0.79401491735E+02  0.37112034637E+03  0.42628293332E+03  0.12500262209E+03 0.  0.
          2    1    1    2  501    0 -0.10586920896E+03  0.18523137011E+02  0.33745512169E+02  0.11265059078E+03  0.00000000000E+00 0. -1.
          1    1    1    2  502    0 -0.42645353718E+02  0.60878354724E+02  0.80333523956E+03  0.80676657552E+03  0.00000000000E+00 0. -1.
         22    1    3    3    0    0  0.46717352824E+02 -0.25657543675E+02  0.26303040031E+03  0.26837625098E+03  0.00000000000E+00 0. -1.
         22    1    3    3    0    0  0.10179720986E+03 -0.53743948059E+02  0.10808994606E+03  0.15790668234E+03  0.00000000000E+00 0. -1.
</event>
<event>
 7    1  0.6888431E-006  0.1626973E+03  0.7818608E-02  0.1275567E+00
          2   -1    0    0  502    0  0.00000000000E+00  0.00000000000E+00  0.13492373749E+04  0.13492373749E+04  0.00000000000E+00 0. -1.
          1   -1    0    0  501    0 -0.00000000000E+00 -0.00000000000E+00 -0.72669567390E+02  0.72669567390E+02  0.00000000000E+00 0. -1.
         25    2    1    2    0    0  0.20471317700E+03  0.31160361995E+02  0.42046886670E+03  0.48507461594E+03  0.12499944866E+03 0.  0.
          2    1    1    2  501    0 -0.14927400116E+03  0.14172385897E+01  0.10387417440E+03  0.18186418035E+03  0.00000000000E+00 0. -1.
          1    1    1    2  502    0 -0.55439175841E+02 -0.32577600585E+02  0.75222476638E+03  0.75496814597E+03  0.00000000000E+00 0. -1.
         22    1    3    3    0    0  0.12974407585E+03 -0.36981707756E+02  0.18713426458E+03  0.23069548090E+03  0.00000000000E+00 0. -1.
         22    1    3    3    0    0  0.74969101153E+02  0.68142069751E+02  0.23333460212E+03  0.25437913504E+03  0.00000000000E+00 0. -1.
</event>
<event>
 7    1  0.6888431E-006  0.5712242E+02  0.7818608E-02  0.1445994E+00
          2   -1    0    0  502    0  0.00000000000E+00  0.00000000000E+00  0.18039473917E+04  0.18039473917E+04  0.00000000000E+00 0. -1.
          1   -1    0    0  501    0 -0.00000000000E+00 -0.00000000000E+00 -0.83739151720E+03  0.83739151720E+03  0.00000000000E+00 0. -1.
         25    2    1    2    0    0  0.54443990863E+02  0.42534863271E+01  0.14339721125E+03  0.19791546035E+03  0.12500211583E+03 0.  0.
          2    1    1    2  501    0 -0.11189703786E+02 -0.42092599652E+02 -0.80904091532E+03  0.81021244071E+03  0.00000000000E+00 0. -1.
          1    1    1    2  502    0 -0.43254287077E+02  0.37839113325E+02  0.16321995785E+04  0.16332110078E+04  0.00000000000E+00 0. -1.
         22    1    3    3    0    0  0.59009490574E+02 -0.51553956657E+02  0.10017160883E+03  0.12717814923E+03  0.00000000000E+00 0. -1.
         22    1    3    3    0    0 -0.45654997106E+01  0.55807442984E+02  0.43225602424E+02  0.70737311123E+02  0.00000000000E+00 0. -1.
</event>
<event>
 7    1  0.6888431E-006  0.1637932E+03  0.7818608E-02  0.1351174E+00
          2   -1    0    0  502    0  0.00000000000E+00  0.00000000000E+00  0.10718237424E+04  0.10718237424E+04  0.00000000000E+00 0. -1.
          1   -1    0    0  501    0 -0.00000000000E+00 -0.00000000000E+00 -0.36057265101E+03  0.36057265101E+03  0.00000000000E+00 0. -1.
         25    2    1    2    0    0  0.13398687376E+03  0.10743953239E+03  0.25706683735E+03  0.33347165878E+03  0.12499701150E+03 0.  0.
          2    1    1    2  501    0 -0.10635458037E+03 -0.12408811896E+03 -0.30129075550E+03  0.34276125420E+03  0.00000000000E+00 0. -1.
          1    1    1    2  502    0 -0.27632293392E+02  0.16648586569E+02  0.75547500957E+03  0.75616348044E+03  0.00000000000E+00 0. -1.
         22    1    3    3    0    0  0.15519221823E+03  0.71933609042E+02  0.20605157485E+03  0.26779902951E+03  0.00000000000E+00 0.  1.
         22    1    3    3    0    0 -0.21205344473E+02  0.35505923351E+02  0.51015262502E+02  0.65672629271E+02  0.00000000000E+00 0.  1.
</event>
<event>
 7    1  0.6888431E-006  0.3652728E+02  0.7818608E-02  0.1591739E+00
          2   -1    0    0  502    0  0.00000000000E+00  0.00000000000E+00  0.13920147749E+04  0.13920147749E+04  0.00000000000E+00 0. -1.
          1   -1    0    0  501    0 -0.00000000000E+00 -0.00000000000E+00 -0.24142920908E+03  0.24142920908E+03  0.00000000000E+00 0. -1.
         25    2    1    2    0    0  0.11860010149E+02  0.18423882437E+02  0.64306708557E+03  0.65546805598E+03  0.12499198608E+03 0.  0.
          2    1    1    2  501    0  0.24545751109E+02 -0.72888111656E+01 -0.23404218408E+03  0.23543866419E+03  0.00000000000E+00 0. -1.
          1    1    1    2  502    0 -0.36405761258E+02 -0.11135071271E+02  0.74156066436E+03  0.74253726384E+03  0.00000000000E+00 0. -1.
         22    1    3    3    0    0  0.70017722690E+01  0.69059111249E+02  0.26274570867E+03  0.27175999169E+03  0.00000000000E+00 0. -1.
         22    1    3    3    0    0  0.48582378800E+01 -0.50635228813E+02  0.38032137690E+03  0.38370806429E+03  0.00000000000E+00 0. -1.
</event>
<event>
 7    1  0.6888431E-006  0.1539018E+03  0.7818608E-02  0.1204337E+00
          2   -1    0    0  502    0  0.00000000000E+00  0.00000000000E+00  0.18849901339E+03  0.18849901339E+03  0.00000000000E+00 0. -1.
          1   -1    0    0  501    0 -0.00000000000E+00 -0.00000000000E+00 -0.84915558833E+03  0.84915558833E+03  0.00000000000E+00 0. -1.
         25    2    1    2    0    0 -0.62128634972E+02 -0.14684520953E+03 -0.28629494530E+03  0.35073445956E+03  0.12500553016E+03 0.  0.
          2    1    1    2  501    0  0.14007360273E+03  0.62583957184E+01 -0.47634355625E+03  0.49655107017E+03  0.00000000000E+00 0. -1.
          1    1    1    2  502    0 -0.77944967755E+02  0.14058681381E+03  0.10198192662E+03  0.19036907200E+03  0.00000000000E+00 0. -1.
         22    1    3    3    0    0  0.20631431835E+02  0.11720172958E+02 -0.34966086729E+02  0.42256900678E+02  0.00000000000E+00 0. -1.
         22    1    3    3    0    0 -0.82760066808E+02 -0.15856538249E+03 -0.25132885857E+03  0.30847755888E+03  0.00000000000E+00 0. -1.
</event>
<event>
 7    1  0.6888431E-006  0.9393864E+02  0.7818608E-02  0.1310631E+00
          2   -1    0    0  502    0  0.00000000000E+00  0.00000000000E+00  0.10231511644E+04  0.10231511644E+04  0.00000000000E+00 0. -1.
          1   -1    0    0  501    0 -0.00000000000E+00 -0.00000000000E+00 -0.14675026480E+03  0.14675026480E+03  0.00000000000E+00 0. -1.
         25    2    1    2    0    0 -0.13300340487E+03  0.76362595774E+02  0.35660442783E+03  0.40781518721E+03  0.12500142892E+03 0.  0.
          2    1    1    2  501    0  0.52691638734E+02 -0.75175464742E+02 -0.10078517859E+03  0.13632832249E+03  0.00000000000E+00 0. -1.
          1    1    1    2  502    0  0.80311766139E+02 -0.11871310321E+01  0.62058165037E+03  0.62575791952E+03  0.00000000000E+00 0. -1.
         22    1    3    3    0    0  0.35597066057E+01  0.24814465405E+02  0.16526105312E+03  0.16715156261E+03  0.00000000000E+00 0. -1.
         22    1    3    3    0    0 -0.13656311148E+03  0.51548130369E+02  0.19134337471E+03  0.24066362460E+03  0.00000000000E+00 0. -1.
</event>
<event>
 7    1  0.6888431E-006  0.1442618E+03  0.7818608E-02  0.1296787E+00
          2   -1    0    0  502    0  0.00000000000E+00  0.00000000000E+00  0.11719237813E+04  0.11719237813E+04  0.00000000000E+00 0. -1.
          1   -1    0    0  501    0 -0.00000000000E+00 -0.00000000000E+00 -0.15762745184E+04  0.15762745184E+04  0.00000000000E+00 0. -1.
         25    2    1    2    0    0  0.68156836397E+02  0.11627768626E+03  0.23589546764E+03  0.29906032289E+03  0.12499820161E+03 0.  0.
          2    1    1    2  501    0 -0.50857874776E+02  0.30645266121E+02 -0.15380659517E+04  0.15392116578E+04  0.00000000000E+00 0. -1.
          1    1    1    2  502    0 -0.17298961621E+02 -0.14692295238E+03  0.89781974691E+03  0.90992631896E+03  0.00000000000E+00 0. -1.
         22    1    3    3    0    0  0.61968295735E+02  0.90464712020E+02  0.24703129204E+03  0.27027466223E+03  0.00000000000E+00 0.  1.
         22    1    3    3    0    0  0.61885406618E+01  0.25812974240E+02 -0.11135824400E+02  0.28785660661E+02  0.00000000000E+00 0.  1.
</event>
<event>
 7    1  0.6888431E-006  0.1312900E+03  0.7818608E-02  0.1371030E+00
          2   -1    0    0  502    0  0.00000000000E+00  0.00000000000E+00  0.10809605037E+04  0.10809605037E+04  0.00000000000E+00 0. -1.
          1   -1    0    0  501    0 -0.00000000000E+00 -0.00000000000E+00 -0.11441050703E+04  0.11441050703E+04  0.00000000000E+00 0. -1.
         25    2    1    2    0    0  0.15263504306E+03 -0.45809976229E+02 -0.29144887641E+03  0.35491359751E+03  0.12500081537E+03 0.  0.
          2    1    1    2  501    0 -0.33163761458E+02 -0.78088552967E+01 -0.81648122433E+03  0.81719177858E+03  0.00000000000E+00 0. -1.
          1    1    1    2  502    0 -0.11947128160E+03  0.53618831526E+02  0.10447855341E+04  0.10529601980E+04  0.00000000000E+00 0. -1.
         22    1    3    3    0    0  0.32715157424E+02 -0.57058629745E+02 -0.42361009187E+02  0.78233137819E+02  0.00000000000E+00 0.  1.
         22    1    3    3    0    0  0.11991988563E+03  0.11248653516E+02 -0.24908786722E+03  0.27668045969E+03  0.00000000000E+00 0.  1.
</event>
<event>
 7    1  0.6888431E-006  0.4419212E+02  0.7818608E-02  0.1526824E+00
          2   -1    0    0  502    0  0.00000000000E+00  0.00000000000E+00  0.18061203538E+03  0.18061203538E+03  0.00000000000E+00 0. -1.
          1   -1    0    0  501    0 -0.00000000000E+00 -0.00000000000E+00 -0.13330019048E+04  0.13330019048E+04  0.00000000000E+00 0. -1.
         25    2    1    2    0    0  0.26761086484E+02 -0.67409227035E+02 -0.10853108556E+03  0.18073558917E+03  0.12500478799E+03 0.  0.
          2    1    1    2  501    0 -0.25869683685E+02  0.35466398948E+02 -0.11861910182E+04  0.11870030487E+04  0.00000000000E+00 0. -1.
          1    1    1    2  502    0 -0.89140279977E+00  0.31942828086E+02  0.14233223438E+03  0.14587530226E+03  0.00000000000E+00 0. -1.
         22    1    3    3    0    0  0.76182784853E+02 -0.53299839099E+02 -0.73778370580E+02  0.11869261781E+03  0.00000000000E+00 0. -1.
         22    1    3    3    0    0 -0.49421698369E+02 -0.14109387936E+02 -0.34752714978E+02  0.62042971366E+02  0.00000000000E+00 0. -1.
</event>
<event>
 7    1  0.6888431E-006  0.1226184E+03  0.7818608E-02  0.1335860E+00
          2   -1    0    0  502    0  0.00000000000E+00  0.00000000000E+00  0.12297540587E+04  0.12297540587E+04  0.00000000000E+00 0. -1.
          1   -1    0    0  501    0 -0.00000000000E+00 -0.00000000000E+00 -0.19095712555E+03  0.19095712555E+03  0.00000000000E+00 0. -1.
         25    2    1    2    0    0 -0.14395293425E+03  0.23617070305E+02 -0.14217641525E+02  0.19263384864E+03  0.12500178007E+03 0.  0.
          2    1    1    2  501    0  0.11353115758E+03  0.15013504055E+02 -0.49290062397E+02  0.12467653868E+03  0.00000000000E+00 0. -1.
          1    1    1    2  502    0  0.30421776668E+02 -0.38630574360E+02  0.11023046371E+04  0.11034007969E+04  0.00000000000E+00 0. -1.
         22    1    3    3    0    0 -0.33459904622E+02  0.54760954386E+02  0.28403431703E+02  0.70178930421E+02  0.00000000000E+00 0.  1.
         22    1    3    3    0    0 -0.11049302963E+03 -0.31143884081E+02 -0.42621073229E+02  0.12245491821E+03  0.00000000000E+00 0.  1.
</event>
<event>
 7    1  0.6888431E-006  0.8181099E+02  0.7818608E-02  0.1334282E+00
          2   -1    0    0  502    0  0.00000000000E+00  0.00000000000E+00  0.10517497359E+04  0.10517497359E+04  0.00000000000E+00 0. -1.
          1   -1    0    0  501    0 -0.00000000000E+00 -0.00000000000E+00 -0.70214598559E+02  0.70214598559E+02  0.00000000000E+00 0. -1.
         25    2    1    2    0    0  0.62254641519E+02  0.17232750822E+02  0.12444675208E+03  0.18783402734E+03  0.12498807797E+03 0.  0.
          2    1    1    2  501    0 -0.38236802991E+02  0.64195462187E+02  0.19062351043E+01  0.74744526225E+02  0.00000000000E+00 0. -1.
          1    1    1    2  502    0 -0.24017838528E+02 -0.81428213009E+02  0.85518215013E+03  0.85938578086E+03  0.00000000000E+00 0. -1.
         22    1    3    3    0    0  0.60732506187E+02 -0.42784214887E+02  0.40450926763E+02  0.84588437905E+02  0.00000000000E+00 0. -1.
         22    1    3    3    0    0  0.15221353312E+01  0.60016965709E+02  0.83995825312E+02  0.10324558944E+03  0.00000000000E+00 0. -1.
</event>
<event>
 7    1  0.6888431E-006  0.5547480E+02  0.7818608E-02  0.1506000E+00
          2   -1    0    0  502    0  0.00000000000E+00  0.00000000000E+00  0.79317135279E+03  0.79317135279E+03  0.00000000000E+00 0. -1.
          1   -1    0    0  501    0 -0.00000000000E+00 -0.00000000000E+00 -0.68022020496E+02  0.68022020496E+02  0.00000000000E+00 0. -1.
         25    2    1    2    0    0  0.23292273993E+01 -0.58034528478E+02  0.84670155977E+02  0.16176524874E+03  0.12500211434E+03 0.  0.
          2    1    1    2  501    0 -0.29750281523E+02  0.47770179034E+02 -0.19708841674E+01  0.56311221262E+02  0.00000000000E+00 0. -1.
          1    1    1    2  502    0  0.27421054123E+02  0.10264349445E+02  0.64245006048E+03  0.64311690329E+03  0.00000000000E+00 0. -1.
         22    1    3    3    0    0 -0.47017920539E+02 -0.71739069871E+02  0.61555839850E+02  0.10557604093E+03  0.00000000000E+00 0. -1.
         22    1    3    3    0    0  0.49347147938E+02  0.13704541393E+02  0.23114316127E+02  0.56189207811E+02  0.00000000000E+00 0. -1.
</event>
<event>
 7    1  0.6888431E-006  0.2115728E+03  0.7818608E-02  0.1214419E+00
          2   -1    0    0  502    0  0.00000000000E+00  0.00000000000E+00  0.54324978317E+03  0.54324978317E+03  0.00000000000E+00 0. -1.
          1   -1    0    0  501    0 -0.00000000000E+00 -0.00000000000E+00 -0.10391859081E+04  0.10391859081E+04  0.00000000000E+00 0. -1.
         25    2    1    2    0    0  0.37178760156E+02  0.25457187606E+03 -0.16924498551E+03  0.33235307359E+03  0.12500240043E+03 0.  0.
          2    1    1    2  501    0  0.38060328734E+02 -0.20237046894E+03 -0.77018282081E+03  0.79723520544E+03  0.00000000000E+00 0. -1.
          1    1    1    2  502    0 -0.75239088890E+02 -0.52201407118E+02  0.44349168134E+03  0.45284741230E+03  0.00000000000E+00 0. -1.
         22    1    3    3    0    0  0.50521727863E+02  0.16877976229E+03 -0.46870840520E+02  0.18230723747E+03  0.00000000000E+00 0.  1.
         22    1    3    3    0    0 -0.13342967707E+02  0.85792113776E+02 -0.12237414499E+03  0.15004583612E+03  0.00000000000E+00 0.  1.
</event>
<event>
 7    1  0.6888431E-006  0.7976074E+02  0.7818608E-02  0.1356891E+00
          2   -1    0    0  502    0  0.00000000000E+00  0.00000000000E+00  0.25483313602E+03  0.25483313602E+03  0.00000000000E+00 0. -1.
          1   -1    0    0  501    0 -0.00000000000E+00 -0.00000000000E+00 -0.19890127060E+03  0.19890127060E+03  0.00000000000E+00 0. -1.
         25    2    1    2    0    0  0.49502948586E+02  0.48203099770E+02  0.18735854017E+03  0.23558953287E+03  0.12500049872E+03 0.  0.
          2    1    1    2  501    0  0.41241881653E+01 -0.81480227797E+02 -0.13182748018E+03  0.15503070980E+03  0.00000000000E+00 0. -1.
          1    1    1    2  502    0 -0.53627136751E+02  0.33277128027E+02  0.40080542231E+00  0.63114163948E+02  0.00000000000E+00 0. -1.
         22    1    3    3    0    0  0.49457231235E+02  0.43894149458E+02  0.20605360824E+03  0.21640425954E+03  0.00000000000E+00 0. -1.
         22    1    3    3    0    0  0.45717351244E-01  0.43089503121E+01 -0.18695068070E+02  0.19185273337E+02  0.00000000000E+00 0. -1.
</event>
<event>
 7    1  0.6888431E-006  0.3345205E+03  0.7818608E-02  0.1156868E+00
          2   -1    0    0  502    0  0.00000000000E+00  0.00000000000E+00  0.39703488976E+04  0.39703488976E+04  0.00000000000E+00 0. -1.
          1   -1    0    0  501    0 -0.00000000000E+00 -0.00000000000E+00 -0.26748137217E+04  0.26748137217E+04  0.00000000000E+00 0. -1.
         25    2    1    2    0    0 -0.95609103830E+01  0.37806313001E+03  0.12112451925E+04  0.12750540251E+04  0.12499883715E+03 0.  0.
          2    1    1    2  501    0  0.89669795457E+02 -0.63616888029E+02 -0.26321054347E+04  0.26344006529E+04  0.00000000000E+00 0. -1.
          1    1    1    2  502    0 -0.80108885074E+02 -0.31444624198E+03  0.27163954181E+04  0.27357079413E+04  0.00000000000E+00 0. -1.
         22    1    3    3    0    0 -0.24839506565E+02  0.27903567820E+03  0.69797688589E+03  0.75209683155E+03  0.00000000000E+00 0. -1.
         22    1    3    3    0    0  0.15278596182E+02  0.99027451811E+02  0.51326830659E+03  0.52295719353E+03  0.00000000000E+00 0. -1.
</event>
<event>
 7    1  0.6888431E-006  0.7710973E+02  0.7818608E-02  0.1474456E+00
          2   -1    0    0  502    0  0.00000000000E+00  0.00000000000E+00  0.65924808989E+03  0.65924808989E+03  0.00000000000E+00 0. -1.
          1   -1    0    0  501    0 -0.00000000000E+00 -0.00000000000E+00 -0.60026130579E+02  0.60026130579E+02  0.00000000000E+00 0. -1.
         25    2    1    2    0    0 -0.53373332938E+02 -0.38233024159E+01  0.77622319544E+02  0.15656825039E+03  0.12500024891E+03 0.  0.
          2    1    1    2  501    0 -0.25463147677E+02  0.63369915362E+01 -0.78689845026E+01  0.27394347382E+02  0.00000000000E+00 0. -1.
          1    1    1    2  502    0  0.78836480615E+02 -0.25136891203E+01  0.52946862427E+03  0.53531162270E+03  0.00000000000E+00 0. -1.
         22    1    3    3    0    0 -0.58657864019E+02 -0.54982697806E+02  0.28091533653E+02  0.85164407661E+02  0.00000000000E+00 0. -1.
         22    1    3    3    0    0  0.52845310810E+01  0.51159395390E+02  0.49530785891E+02  0.71403842728E+02  0.00000000000E+00 0. -1.
</event>
<event>
 7    1  0.6888431E-006  0.9934424E+02  0.7818608E-02  0.1388608E+00
          2   -1    0    0  502    0  0.00000000000E+00  0.00000000000E+00  0.28198805161E+04  0.28198805161E+04  0.00000000000E+00 0. -1.
          1   -1    0    0  501    0 -0.00000000000E+00 -0.00000000000E+00 -0.11047278706E+04  0.11047278706E+04  0.00000000000E+00 0. -1.
         25    2    1    2    0    0  0.93329508159E+02 -0.39501734750E+02  0.45888760465E+02  0.16733766776E+03  0.12500133029E+03 0.  0.
          2    1    1    2  501    0  0.60928724002E+01  0.38532936322E+02 -0.10427276640E+04  0.10434571825E+04  0.00000000000E+00 0. -1.
          1    1    1    2  502    0 -0.99422380559E+02  0.96879842873E+00  0.27119915491E+04  0.27138135365E+04  0.00000000000E+00 0. -1.
         22    1    3    3    0    0  0.12390450252E+03 -0.24267516756E+02  0.41460630418E+02  0.13289176795E+03  0.00000000000E+00 0.  1.
         22    1    3    3    0    0 -0.30574994361E+02 -0.15234217995E+02  0.44281300468E+01  0.34445899811E+02  0.00000000000E+00 0.  1.
</event>
<event>
 7    1  0.6888431E-006  0.1244759E+03  0.7818608E-02  0.1251698E+00
          2   -1    0    0  502    0  0.00000000000E+00  0.00000000000E+00  0.26740636009E+03  0.26740636009E+03  0.00000000000E+00 0. -1.
          1   -1    0    0  501    0 -0.00000000000E+00 -0.00000000000E+00 -0.59286581346E+03  0.59286581346E+03  0.00000000000E+00 0. -1.
         25    2    1    2    0    0  0.48835492168E+02 -0.22162845290E+02 -0.33965851136E+01  0.13608012284E+03  0.12502066243E+03 0.  0.
          2    1    1    2  501    0 -0.55321690255E+02 -0.11150679648E+03 -0.49221882677E+03  0.50771412084E+03  0.00000000000E+00 0. -1.
          1    1    1    2  502    0  0.64861980872E+01  0.13366964177E+03  0.17015595852E+03  0.21647792986E+03  0.00000000000E+00 0. -1.
         22    1    3    3    0    0 -0.40859343064E+01 -0.54974925170E+02  0.32710429044E+02  0.64100775540E+02  0.00000000000E+00 0. -1.
         22    1    3    3    0    0  0.52921426475E+02  0.32812079880E+02 -0.36107014158E+02  0.71979347299E+02  0.00000000000E+00 0. -1.
</event>
<event>
 7    1  0.6888431E-006  0.1050156E+03  0.7818608E-02  0.1294517E+00
          2   -1    0    0  502    0  0.00000000000E+00  0.00000000000E+00  0.78921121577E+03  0.78921121577E+03  0.00000000000E+00 0. -1.
          1   -1    0    0  501    0 -0.00000000000E+00 -0.00000000000E+00 -0.51450569129E+02  0.51450569129E+02  0.00000000000E+00 0. -1.
         25    2    1    2    0    0  0.19088280151E+02 -0.49034209832E+02  0.37522958019E+03  0.39898660389E+03  0.12499742422E+03 0.  0.
          2    1    1    2  501    0  0.98587892222E+02 -0.36175933860E+02  0.12527878396E+03  0.16347184588E+03  0.00000000000E+00 0. -1.
          1    1    1    2  502    0 -0.11767617237E+03  0.85210143692E+02  0.23725228249E+03  0.27820333513E+03  0.00000000000E+00 0. -1.
         22    1    3    3    0    0 -0.51971251650E+02 -0.77396527702E+01  0.16913873354E+03  0.17711246260E+03  0.00000000000E+00 0.  1.
         22    1    3    3    0    0  0.71059531801E+02 -0.41294557062E+02  0.20609084665E+03  0.22187414129E+03  0.00000000000E+00 0.  1.
</event>
<event>
 7    1  0.6888431E-006  0.7154235E+02  0.7818608E-02  0.1378089E+00
          2   -1    0    0  502    0  0.00000000000E+00  0.00000000000E+00  0.19579429614E+03  0.19579429614E+03  0.00000000000E+00 0. -1.
          1   -1    0    0  501    0 -0.00000000000E+00 -0.00000000000E+00 -0.50100094200E+03  0.50100094200E+03  0.00000000000E+00 0. -1.
         25    2    1    2    0    0 -0.64167628443E+02  0.41191849609E+02 -0.17785486740E+02  0.14749757074E+03  0.12499982729E+03 0.  0.
          2    1    1    2  501    0  0.13366159298E+02 -0.71193471986E+02 -0.40836008485E+03  0.41473500403E+03  0.00000000000E+00 0. -1.
          1    1    1    2  502    0  0.50801469144E+02  0.30001622377E+02  0.12093892574E+03  0.13456266336E+03  0.00000000000E+00 0. -1.
         22    1    3    3    0    0 -0.12916960525E+02 -0.44204600390E+02  0.13861254283E+01  0.46074026398E+02  0.00000000000E+00 0.  1.
         22    1    3    3    0    0 -0.51250667917E+02  0.85396449999E+02 -0.19171612169E+02  0.10142354435E+03  0.00000000000E+00 0.  1.
</event>
<event>
 7    1  0.6888431E-006  0.8983995E+02  0.7818608E-02  0.1341036E+00
          2   -1    0    0  502    0  0.00000000000E+00  0.00000000000E+00  0.60764508286E+03  0.60764508286E+03  0.00000000000E+00 0. -1.
          1   -1    0    0  501    0 -0.00000000000E+00 -0.00000000000E+00 -0.12784289291E+04  0.12784289291E+04  0.00000000000E+00 0. -1.
         25    2    1    2    0    0 -0.35715341781E+02 -0.64779251001E+01  0.61012307985E+02  0.14375798762E+03  0.12500523240E+03 0.  0.
          2    1    1    2  501    0  0.64715652296E+02  0.63712463397E+02 -0.12333428637E+04  0.12366818560E+04  0.00000000000E+00 0. -1.
          1    1    1    2  502    0 -0.29000310515E+02 -0.57234538297E+02  0.50154670946E+03  0.50563416830E+03  0.00000000000E+00 0. -1.
         22    1    3    3    0    0  0.33752656868E+02  0.29425072559E+02  0.45880453758E+02  0.64110005286E+02  0.00000000000E+00 0. -1.
         22    1    3    3    0    0 -0.69467998649E+02 -0.35902997659E+02  0.15131854227E+02  0.79647982332E+02  0.00000000000E+00 0. -1.
</event>
<event>
 7    1  0.6888431E-006  0.8656518E+02  0.7818608E-02  0.1432012E+00
          2   -1    0    0  502    0  0.00000000000E+00  0.00000000000E+00  0.32686630691E+03  0.32686630691E+03  0.00000000000E+00 0. -1.
          1   -1    0    0  501    0 -0.00000000000E+00 -0.00000000000E+00 -0.55051964203E+03  0.55051964203E+03  0.00000000000E+00 0. -1.
         25    2    1    2    0    0 -0.15673608658E+01  0.10290757546E+03 -0.70084565602E+02  0.17643383489E+03  0.12499850420E+03 0.  0.
          2    1    1    2  501    0 -0.24080208228E+02 -0.20939014593E+02 -0.41990200968E+03  0.42111280732E+03  0.00000000000E+00 0. -1.
          1    1    1    2  502    0  0.25647569093E+02 -0.81968560865E+02  0.26633324017E+03  0.27983930672E+03  0.00000000000E+00 0. -1.
         22    1    3    3    0    0 -0.11466420818E+02  0.32367142366E+02 -0.94964615748E+02  0.10098212196E+03  0.00000000000E+00 0. -1.
         22    1    3    3    0    0  0.98990599526E+01  0.70540433093E+02  0.24880050147E+02  0.75451712930E+02  0.00000000000E+00 0. -1.
</event>
<event>
 7    1  0.6888431E-006  0.6122039E+02  0.7818608E-02  0.1444177E+00
          2   -1    0    0  502    0  0.00000000000E+00  0.00000000000E+00  0.27202215669E+03  0.27202215669E+03  0.00000000000E+00 0. -1.
          1   -1    0    0  501    0 -0.00000000000E+00 -0.00000000000E+00 -0.97234977530E+02  0.97234977530E+02  0.00000000000E+00 0. -1.
         25    2    1    2    0    0  0.63773717106E+02 -0.52673792169E+02  0.28302343727E+02  0.15255154614E+03  0.12501734357E+03 0.  0.
          2    1    1    2  501    0 -0.22584112027E+02  0.52412420919E+02 -0.72670042517E+01  0.57531846254E+02  0.00000000000E+00 0. -1.
          1    1    1    2  502    0 -0.41189605079E+02  0.26137125073E+00  0.15375183969E+03  0.15917374183E+03  0.00000000000E+00 0. -1.
         22    1    3    3    0    0  0.83510372024E+02  0.96300864789E+01  0.98343910183E+01  0.84637084353E+02  0.00000000000E+00 0.  1.
         22    1    3    3    0    0 -0.19736654918E+02 -0.62303878648E+02  0.18467952709E+02  0.67914461782E+02  0.00000000000E+00 0.  1.
</event>
<event>
 7    1  0.6888431E-006  0.6770140E+02  0.7818608E-02  0.1531528E+00
          2   -1    0    0  502    0  0.00000000000E+00  0.00000000000E+00  0.15509220237E+04  0.15509220237E+04  0.00000000000E+00 0. -1.
          1   -1    0    0  501    0 -0.00000000000E+00 -0.00000000000E+00 -0.15582337275E+02  0.15582337275E+02  0.00000000000E+00 0. -1.
         25    2    1    2    0    0 -0.46405153438E+02 -0.65631984330E+02  0.51099091186E+03  0.53216279917E+03  0.12499814871E+03 0.  0.
          2    1    1    2  501    0  0.19664265810E+02  0.47112855763E+01  0.22362808711E+02  0.30149208531E+02  0.00000000000E+00 0. -1.
          1    1    1    2  502    0  0.26740887628E+02  0.60920698754E+02  0.10019859658E+04  0.10041923532E+04  0.00000000000E+00 0. -1.
         22    1    3    3    0    0  0.29533032356E+02 -0.65713567880E+02  0.27327417421E+03  0.28261147764E+03  0.00000000000E+00 0.  1.
         22    1    3    3    0    0 -0.75938185794E+02  0.81583549612E-01  0.23771673765E+03  0.24955132153E+03  0.00000000000E+00 0.  1.
</event>
<event>
 7    1  0.6888431E-006  0.9239124E+02  0.7818608E-02  0.1447657E+00
          2   -1    0    0  502    0  0.00000000000E+00  0.00000000000E+00  0.56447452878E+02  0.56447452878E+02  0.00000000000E+00 0. -1.
          1   -1    0    0  501    0 -0.00000000000E+00 -0.00000000000E+00 -0.14709538997E+04  0.14709538997E+04  0.00000000000E+00 0. -1.
         25    2    1    2    0    0  0.31079390066E+01 -0.69387290079E+02 -0.57377477221E+03  0.59132849537E+03  0.12501057917E+03 0.  0.
          2    1    1    2  501    0 -0.10047996363E+02 -0.24628044702E+02 -0.84137915781E+03  0.84179949514E+03  0.00000000000E+00 0. -1.
          1    1    1    2  502    0  0.69400573561E+01  0.94015334781E+02  0.64748315139E+00  0.94273362115E+02  0.00000000000E+00 0. -1.
         22    1    3    3    0    0 -0.47555075825E+02  0.97714729460E+01 -0.21895653024E+03  0.22427422736E+03  0.00000000000E+00 0.  1.
         22    1    3    3    0    0  0.50663014831E+02 -0.79158763025E+02 -0.35481824196E+03  0.36705426801E+03  0.00000000000E+00 0.  1.
</event>
<event>
 7    1  0.7310111E-006  0.1609659E+03  0.7818608E-02  0.1315870E+00
          2   -1    0    0  502    0  0.00000000000E+00  0.00000000000E+00  0.15782067898E+04  0.15782067898E+04  0.00000000000E+00 0. -1.
          1   -1    0    0  501    0 -0.00000000000E+00 -0.00000000000E+00 -0.14469938641E+04  0.14469938641E+04  0.00000000000E+00 0. -1.
         25    2    1    2    0    0 -0.12798801094E+03 -0.87206115232E+02 -0.37799500269E+03  0.42718933425E+03  0.12499867103E+03 0.  0.
          2    1    1    2  501    0  0.25265900432E+02 -0.36885364880E+02 -0.10397441596E+04  0.10407049598E+04  0.00000000000E+00 0. -1.
          1    1    1    2  502    0  0.10272211051E+03  0.12409148011E+03  0.15489520881E+04  0.15573063599E+04  0.00000000000E+00 0. -1.
         22    1    3    3    0    0 -0.13280826304E+03 -0.10333308023E+03 -0.27183345646E+03  0.31970171762E+03  0.00000000000E+00 0. -1.
         22    1    3    3    0    0  0.48202520946E+01  0.16126964997E+02 -0.10616154623E+03  0.10748761663E+03  0.00000000000E+00 0. -1.
</event>
<event>
 7    1  0.6888431E-006  0.2190144E+03  0.7818608E-02  0.1215576E+00
          2   -1    0    0  502    0  0.00000000000E+00  0.00000000000E+00  0.45401984999E+03  0.45401984999E+03  0.00000000000E+00 0. -1.
          1   -1    0    0  501    0 -0.00000000000E+00 -0.00000000000E+00 -0.11224383996E+04  0.11224383996E+04  0.00000000000E+00 0. -1.
         25    2    1    2    0    0 -0.24421049366E+02 -0.28372333927E+03  0.82224987976E+02  0.32168819015E+03  0.12500808828E+03 0.  0.
          2    1    1    2  501    0  0.24332888682E+01  0.87352296161E+02 -0.96169353749E+03  0.96565563457E+03  0.00000000000E+00 0. -1.
          1    1    1    2  502    0  0.21987760498E+02  0.19637104311E+03  0.21104999993E+03  0.28911442484E+03  0.00000000000E+00 0. -1.
         22    1    3    3    0    0 -0.64053468467E+02 -0.80449799318E+02  0.14839585541E+02  0.10390009784E+03  0.00000000000E+00 0. -1.
         22    1    3    3    0    0  0.39632419102E+02 -0.20327353995E+03  0.67385402436E+02  0.21778809230E+03  0.00000000000E+00 0. -1.
</event>
<event>
 7    1  0.6888431E-006  0.8855929E+02  0.7818608E-02  0.1314375E+00
          2   -1    0    0  502    0  0.00000000000E+00  0.00000000000E+00  0.65890124841E+02  0.65890124841E+02  0.00000000000E+00 0. -1.
          1   -1    0    0  501    0 -0.00000000000E+00 -0.00000000000E+00 -0.11377029805E+04  0.11377029805E+04  0.00000000000E+00 0. -1.
         25    2    1    2    0    0  0.26301480397E+01 -0.31591488922E+01 -0.36258747759E+03  0.38355085334E+03  0.12499872116E+03 0.  0.
          2    1    1    2  501    0 -0.28994880028E+02 -0.83678219013E+02 -0.72286671728E+03  0.72827126702E+03  0.00000000000E+00 0. -1.
          1    1    1    2  502    0  0.26364731989E+02  0.86837367905E+02  0.13641339177E+02  0.91770985023E+02  0.00000000000E+00 0. -1.
         22    1    3    3    0    0  0.36109739963E+02  0.14678802739E+02 -0.33344102801E+03  0.33571163180E+03  0.00000000000E+00 0. -1.
         22    1    3    3    0    0 -0.33479591924E+02 -0.17837951631E+02 -0.29146449581E+02  0.47839221534E+02  0.00000000000E+00 0. -1.
</event>
<event>
 7    1  0.6888431E-006  0.1916625E+03  0.7818608E-02  0.1168845E+00
          2   -1    0    0  502    0  0.00000000000E+00  0.00000000000E+00  0.17542425298E+04  0.17542425298E+04  0.00000000000E+00 0. -1.
          1   -1    0    0  501    0 -0.00000000000E+00 -0.00000000000E+00 -0.78310248011E+03  0.78310248011E+03  0.00000000000E+00 0. -1.
         25    2    1    2    0    0 -0.66786335455E+02 -0.80196649417E+02  0.23715255102E+03  0.28768299529E+03  0.12501302388E+03 0.  0.
          2    1    1    2  501    0  0.16729986329E+03 -0.93516158201E+02 -0.73880347896E+03  0.76325952115E+03  0.00000000000E+00 0. -1.
          1    1    1    2  502    0 -0.10051352783E+03  0.17371280762E+03  0.14727909776E+04  0.14864024935E+04  0.00000000000E+00 0. -1.
         22    1    3    3    0    0 -0.21766352640E+02 -0.70358169449E+02  0.22942617571E+03  0.24095729127E+03  0.00000000000E+00 0.  1.
         22    1    3    3    0    0 -0.45019982815E+02 -0.98384799680E+01  0.77263753150E+01  0.46725704021E+02  0.00000000000E+00 0.  1.
</event>
<event>
 7    1  0.6888431E-006  0.1962881E+03  0.7818608E-02  0.1330210E+00
          2   -1    0    0  502    0  0.00000000000E+00  0.00000000000E+00  0.75326698198E+03  0.75326698198E+03  0.00000000000E+00 0. -1.
          1   -1    0    0  501    0 -0.00000000000E+00 -0.00000000000E+00 -0.16719770559E+04  0.16719770559E+04  0.00000000000E+00 0. -1.
         25    2    1    2    0    0  0.46033661812E+02 -0.21026969423E+03 -0.13114252814E+03  0.28135000422E+03  0.12500807916E+03 0.  0.
          2    1    1    2  501    0 -0.64490369159E+02  0.18379375181E+03 -0.14588703597E+04  0.14718158436E+04  0.00000000000E+00 0. -1.
          1    1    1    2  502    0  0.18456707346E+02  0.26475942424E+02  0.67130281394E+03  0.67207819008E+03  0.00000000000E+00 0. -1.
         22    1    3    3    0    0  0.37842610880E+02 -0.54262860688E+02  0.14547968247E+02  0.67735992119E+02  0.00000000000E+00 0. -1.
         22    1    3    3    0    0  0.81910509327E+01 -0.15600683354E+03 -0.14569049638E+03  0.21361401210E+03  0.00000000000E+00 0. -1.
</event>
<event>
 7    1  0.6888431E-006  0.7067965E+02  0.7818608E-02  0.1446435E+00
          2   -1    0    0  502    0  0.00000000000E+00  0.00000000000E+00  0.14439993738E+04  0.14439993738E+04  0.00000000000E+00 0. -1.
          1   -1    0    0  501    0 -0.00000000000E+00 -0.00000000000E+00 -0.74242997806E+02  0.74242997806E+02  0.00000000000E+00 0. -1.
         25    2    1    2    0    0  0.41085182663E+02  0.14879893938E+02  0.36484140509E+03  0.38812891018E+03  0.12500158628E+03 0.  0.
          2    1    1    2  501    0 -0.54862715191E+02 -0.47146971152E+02 -0.41308711755E+02  0.83301645084E+02  0.00000000000E+00 0. -1.
          1    1    1    2  502    0  0.13777532527E+02  0.32267077213E+02  0.10462236826E+04  0.10468118163E+04  0.00000000000E+00 0. -1.
         22    1    3    3    0    0  0.92270739581E+01 -0.54489510577E+02  0.17484568881E+03  0.18337191866E+03  0.00000000000E+00 0.  1.
         22    1    3    3    0    0  0.31858108705E+02  0.69369404516E+02  0.18999571628E+03  0.20475699152E+03  0.00000000000E+00 0.  1.
</event>
<event>
 7    1  0.6888431E-006  0.7923137E+02  0.7818608E-02  0.1404826E+00
          2   -1    0    0  502    0  0.00000000000E+00  0.00000000000E+00  0.79941441694E+03  0.79941441694E+03  0.00000000000E+00 0. -1.
          1   -1    0    0  501    0 -0.00000000000E+00 -0.00000000000E+00 -0.33262146972E+02  0.33262146972E+02  0.00000000000E+00 0. -1.
         25    2    1    2    0    0 -0.27907382273E+02  0.33735938712E+02  0.13847380611E+03  0.19161719482E+03  0.12500087530E+03 0.  0.
          2    1    1    2  501    0 -0.16690470855E+02  0.39621548341E+02  0.25681523063E+03  0.26038913493E+03  0.00000000000E+00 0. -1.
          1    1    1    2  502    0  0.44597853128E+02 -0.73357487053E+02  0.37086323323E+03  0.38067023416E+03  0.00000000000E+00 0. -1.
         22    1    3    3    0    0  0.45782922676E+02  0.20896416573E+02  0.88019227967E+02  0.10139093020E+03  0.00000000000E+00 0.  1.
         22    1    3    3    0    0 -0.73690304949E+02  0.12839522138E+02  0.50454578144E+02  0.90226264623E+02  0.00000000000E+00 0.  1.
</event>
<event>
 7    1  0.6888431E-006  0.1578961E+03  0.7818608E-02  0.1296078E+00
          2   -1    0    0  502    0  0.00000000000E+00  0.00000000000E+00  0.12009677767E+04  0.12009677767E+04  0.00000000000E+00 0. -1.
          1   -1    0    0  501    0 -0.00000000000E+00 -0.00000000000E+00 -0.25600156766E+03  0.25600156766E+03  0.00000000000E+00 0. -1.
         25    2    1    2    0    0  0.12003730274E+03 -0.71343504969E+02  0.25303914590E+03  0.31488552523E+03  0.12500093957E+03 0.  0.
          2    1    1    2  501    0 -0.13497281142E+02 -0.52913387987E+02 -0.21432349290E+03  0.22117089057E+03  0.00000000000E+00 0. -1.
          1    1    1    2  502    0 -0.10654002160E+03  0.12425689296E+03  0.90625055604E+03  0.92091292855E+03  0.00000000000E+00 0. -1.
         22    1    3    3    0    0  0.13113296608E+03 -0.25308506683E+02  0.21921170452E+03  0.25669076084E+03  0.00000000000E+00 0. -1.
         22    1    3    3    0    0 -0.11095663340E+02 -0.46034998286E+02  0.33827441376E+02  0.58194764388E+02  0.00000000000E+00 0. -1.
</event>
<event>
 7    1  0.6888431E-006  0.3835277E+02  0.7818608E-02  0.1546904E+00
          2   -1    0    0  502    0  0.00000000000E+00  0.00000000000E+00  0.16697425853E+03  0.16697425853E+03  0.00000000000E+00 0. -1.
          1   -1    0    0  501    0 -0.00000000000E+00 -0.00000000000E+00 -0.14245539103E+04  0.14245539103E+04  0.00000000000E+00 0. -1.
         25    2    1    2    0    0  0.34937371171E+02  0.24641992038E+02 -0.42277490556E+03  0.44293543492E+03  0.12500132425E+03 0.  0.
          2    1    1    2  501    0 -0.56545282125E+01 -0.38252304012E+02 -0.98965565300E+03  0.99041078546E+03  0.00000000000E+00 0. -1.
          1    1    1    2  502    0 -0.29282842959E+02  0.13610311974E+02  0.15485090678E+03  0.15818194845E+03  0.00000000000E+00 0. -1.
         22    1    3    3    0    0  0.29535062188E+02 -0.20806181702E+02 -0.37514256130E+03  0.37687817447E+03  0.00000000000E+00 0. -1.
         22    1    3    3    0    0  0.54023089832E+01  0.45448173740E+02 -0.47632344259E+02  0.66057260451E+02  0.00000000000E+00 0. -1.
</event>
<event>
 7    1  0.6888431E-006  0.1583192E+03  0.7818608E-02  0.1327211E+00
          2   -1    0    0  502    0  0.00000000000E+00  0.00000000000E+00  0.31811330500E+03  0.31811330500E+03  0.00000000000E+00 0. -1.
          1   -1    0    0  501    0 -0.00000000000E+00 -0.00000000000E+00 -0.55926576089E+03  0.55926576089E+03  0.00000000000E+00 0. -1.
         25    2    1    2    0    0  0.11308692454E+03  0.90151202305E+02 -0.19037335194E+03  0.26978293255E+03  0.12499970314E+03 0.  0.
          2    1    1    2  501    0  0.32961193218E+02 -0.24528454666E+02 -0.30467362962E+03  0.30743146542E+03  0.00000000000E+00 0. -1.
          1    1    1    2  502    0 -0.14604811776E+03 -0.65622747639E+02  0.25389452566E+03  0.30016466793E+03  0.00000000000E+00 0. -1.
         22    1    3    3    0    0  0.13518389366E+03  0.75574266096E+02 -0.18744471699E+03  0.24314949461E+03  0.00000000000E+00 0. -1.
         22    1    3    3    0    0 -0.22096969119E+02  0.14576936209E+02 -0.29286349456E+01  0.26633437933E+02  0.00000000000E+00 0. -1.
</event>
<event>
 7    1  0.6888431E-006  0.6797719E+02  0.7818608E-02  0.1468727E+00
          2   -1    0    0  502    0  0.00000000000E+00  0.00000000000E+00  0.29077882790E+03  0.29077882790E+03  0.00000000000E+00 0. -1.
          1   -1    0    0  501    0 -0.00000000000E+00 -0.00000000000E+00 -0.65880267093E+03  0.65880267093E+03  0.00000000000E+00 0. -1.
         25    2    1    2    0    0 -0.37087050939E+02 -0.71030538703E+02 -0.63500250568E+02  0.16148813492E+03  0.12500139648E+03 0.  0.
          2    1    1    2  501    0  0.30797182982E+02  0.36190615592E+01 -0.54111625913E+03  0.54200403133E+03  0.00000000000E+00 0. -1.
          1    1    1    2  502    0  0.62898679568E+01  0.67411477144E+02  0.23659266667E+03  0.24608933258E+03  0.00000000000E+00 0. -1.
         22    1    3    3    0    0 -0.75192543961E+02 -0.22052674808E+02 -0.89576568520E+01  0.78870011727E+02  0.00000000000E+00 0.  1.
         22    1    3    3    0    0  0.38105493022E+02 -0.48977863895E+02 -0.54542593716E+02  0.82618123190E+02  0.00000000000E+00 0.  1.
</event>
<event>
 7    1  0.6888431E-006  0.1135722E+03  0.7818608E-02  0.1274162E+00
          2   -1    0    0  502    0  0.00000000000E+00  0.00000000000E+00  0.52266915579E+03  0.52266915579E+03  0.00000000000E+00 0. -1.
          1   -1    0    0  501    0 -0.00000000000E+00 -0.00000000000E+00 -0.59932403897E+03  0.59932403897E+03  0.00000000000E+00 0. -1.
         25    2    1    2    0    0 -0.62686100603E+01 -0.60625484974E+02 -0.50228210923E+02  0.14786218402E+03  0.12500242954E+03 0.  0.
          2    1    1    2  501    0 -0.93226538231E+02 -0.51070167555E+01 -0.48828262525E+03  0.49712894823E+03  0.00000000000E+00 0. -1.
          1    1    1    2  502    0  0.99495148291E+02  0.65732501730E+02  0.46185595300E+03  0.47700206251E+03  0.00000000000E+00 0. -1.
         22    1    3    3    0    0 -0.54962081367E+02  0.55508472976E+01 -0.91131910964E+01  0.55988325085E+02  0.00000000000E+00 0.  1.
         22    1    3    3    0    0  0.48693471307E+02 -0.66176332272E+02 -0.41115019827E+02  0.91873858938E+02  0.00000000000E+00 0.  1.
</event>
<event>
 7    1  0.6888431E-006  0.8091108E+02  0.7818608E-02  0.1461372E+00
          2   -1    0    0  502    0  0.00000000000E+00  0.00000000000E+00  0.39463397865E+02  0.39463397865E+02  0.00000000000E+00 0. -1.
          1   -1    0    0  501    0 -0.00000000000E+00 -0.00000000000E+00 -0.77184756216E+03  0.77184756216E+03  0.00000000000E+00 0. -1.
         25    2    1    2    0    0 -0.48435069204E+02 -0.42904606968E+02 -0.51503023249E+03  0.53391740524E+03  0.12499957608E+03 0.  0.
          2    1    1    2  501    0 -0.26508096502E+02  0.72117004156E+01 -0.18700298368E+03  0.18901006245E+03  0.00000000000E+00 0. -1.
          1    1    1    2  502    0  0.74943165706E+02  0.35692906552E+02 -0.30350948132E+02  0.88383492332E+02  0.00000000000E+00 0. -1.
         22    1    3    3    0    0  0.35971492270E+02 -0.31124813098E+02 -0.27780145803E+03  0.28184455349E+03  0.00000000000E+00 0. -1.
         22    1    3    3    0    0 -0.84406561474E+02 -0.11779793870E+02 -0.23722877445E+03  0.25207285176E+03  0.00000000000E+00 0. -1.
</event>
<event>
 7    1  0.6888431E-006  0.5281496E+02  0.7818608E-02  0.1512686E+00
          2   -1    0    0  502    0  0.00000000000E+00  0.00000000000E+00  0.15766355015E+03  0.15766355015E+03  0.00000000000E+00 0. -1.
          1   -1    0    0  501    0 -0.00000000000E+00 -0.00000000000E+00 -0.47155190573E+03  0.47155190573E+03  0.00000000000E+00 0. -1.
         25    2    1    2    0    0  0.49086422429E+02  0.57914783542E+02  0.58189049347E+02  0.15739364491E+03  0.12499277969E+03 0.  0.
          2    1    1    2  501    0 -0.23277851916E+02 -0.17941854351E+02 -0.40995395677E+03  0.41100610117E+03  0.00000000000E+00 0. -1.
          1    1    1    2  502    0 -0.25808570514E+02 -0.39972929191E+02  0.37876551839E+02  0.60815709806E+02  0.00000000000E+00 0. -1.
         22    1    3    3    0    0 -0.12784651679E+02 -0.32766188032E+02  0.23363558330E+02  0.42224711421E+02  0.00000000000E+00 0. -1.
         22    1    3    3    0    0  0.61871074108E+02  0.90680971574E+02  0.34825491017E+02  0.11516893349E+03  0.00000000000E+00 0. -1.
</event>
<event>
 7    1  0.6888431E-006  0.8807607E+02  0.7818608E-02  0.1340837E+00
          2   -1    0    0  502    0  0.00000000000E+00  0.00000000000E+00  0.10795232927E+04  0.10795232927E+04  0.00000000000E+00 0. -1.
          1   -1    0    0  501    0 -0.00000000000E+00 -0.00000000000E+00 -0.46343314909E+04  0.46343314909E+04  0.00000000000E+00 0. -1.
         25    2    1    2    0    0  0.13328647358E+03 -0.13256366951E+02 -0.62668216586E+02  0.19363123895E+03  0.12499894408E+03 0.  0.
          2    1    1    2  501    0 -0.57742681318E+02 -0.31046524652E+02 -0.45040519103E+04  0.45045290225E+04  0.00000000000E+00 0. -1.
          1    1    1    2  502    0 -0.75543792267E+02  0.44302891602E+02  0.10119119287E+04  0.10156945221E+04  0.00000000000E+00 0. -1.
         22    1    3    3    0    0  0.56883957451E+02  0.47172833732E+02 -0.61612040025E+02  0.96213846891E+02  0.00000000000E+00 0. -1.
         22    1    3    3    0    0  0.76402516134E+02 -0.60429200682E+02 -0.10561765605E+01  0.97417392059E+02  0.00000000000E+00 0. -1.
</event>
<event>
 7    1  0.6888431E-006  0.9457729E+02  0.7818608E-02  0.1293282E+00
          2   -1    0    0  502    0  0.00000000000E+00  0.00000000000E+00  0.15836704192E+04  0.15836704192E+04  0.00000000000E+00 0. -1.
          1   -1    0    0  501    0 -0.00000000000E+00 -0.00000000000E+00 -0.35202459605E+03  0.35202459605E+03  0.00000000000E+00 0. -1.
         25    2    1    2    0    0  0.84651638573E+02 -0.12611901016E+03 -0.21908762387E+03  0.29444244752E+03  0.12500025335E+03 0.  0.
          2    1    1    2  501    0 -0.88010565430E+02  0.31765008458E+02 -0.70461125170E+02  0.11713089067E+03  0.00000000000E+00 0. -1.
          1    1    1    2  502    0  0.33589268563E+01  0.94354001701E+02  0.15211945722E+04  0.15241216771E+04  0.00000000000E+00 0. -1.
         22    1    3    3    0    0  0.20734165075E+02 -0.75212759872E+02 -0.21959510319E+02  0.81049891686E+02  0.00000000000E+00 0.  1.
         22    1    3    3    0    0  0.63917473499E+02 -0.50906250287E+02 -0.19712811355E+03  0.21339255584E+03  0.00000000000E+00 0.  1.
</event>
<event>
 7    1  0.6888431E-006  0.7809176E+02  0.7818608E-02  0.1428514E+00
          2   -1    0    0  502    0  0.00000000000E+00  0.00000000000E+00  0.65193907414E+03  0.65193907414E+03  0.00000000000E+00 0. -1.
          1   -1    0    0  501    0 -0.00000000000E+00 -0.00000000000E+00 -0.35394268424E+03  0.35394268424E+03  0.00000000000E+00 0. -1.
         25    2    1    2    0    0 -0.53774469028E+02 -0.26620540349E+02 -0.66382702098E+02  0.15372726635E+03  0.12500025037E+03 0.  0.
          2    1    1    2  501    0  0.81599353998E+02  0.32714305116E+01 -0.23648753430E+03  0.25019094849E+03  0.00000000000E+00 0. -1.
          1    1    1    2  502    0 -0.27824884970E+02  0.23349109837E+02  0.60086662629E+03  0.60196354353E+03  0.00000000000E+00 0. -1.
         22    1    3    3    0    0  0.28860862105E+02 -0.43829825353E+02 -0.13736108040E+02  0.54246507869E+02  0.00000000000E+00 0.  1.
         22    1    3    3    0    0 -0.82635331133E+02  0.17209285004E+02 -0.52646594058E+02  0.99480758480E+02  0.00000000000E+00 0.  1.
</event>
<event>
 7    1  0.6888431E-006  0.1332653E+03  0.7818608E-02  0.1389245E+00
          2   -1    0    0  502    0  0.00000000000E+00  0.00000000000E+00  0.11519092277E+04  0.11519092277E+04  0.00000000000E+00 0. -1.
          1   -1    0    0  501    0 -0.00000000000E+00 -0.00000000000E+00 -0.13990040611E+03  0.13990040611E+03  0.00000000000E+00 0. -1.
         25    2    1    2    0    0  0.47126204825E+02  0.10126563827E+03  0.15018425127E+03  0.22506852915E+03  0.12499969924E+03 0.  0.
          2    1    1    2  501    0 -0.68678673604E+02 -0.12056867145E+03 -0.55146199193E+02  0.14931399140E+03  0.00000000000E+00 0. -1.
          1    1    1    2  502    0  0.21552468780E+02  0.19303033177E+02  0.91697076952E+03  0.91742711326E+03  0.00000000000E+00 0. -1.
         22    1    3    3    0    0  0.13744102567E+02  0.12540648119E+03  0.11867581337E+03  0.17320402581E+03  0.00000000000E+00 0. -1.
         22    1    3    3    0    0  0.33382102257E+02 -0.24140842916E+02  0.31508437897E+02  0.51864503339E+02  0.00000000000E+00 0. -1.
</event>
<event>
 7    1  0.6888431E-006  0.4077474E+02  0.7818608E-02  0.1601997E+00
          2   -1    0    0  502    0  0.00000000000E+00  0.00000000000E+00  0.11275534194E+04  0.11275534194E+04  0.00000000000E+00 0. -1.
          1   -1    0    0  501    0 -0.00000000000E+00 -0.00000000000E+00 -0.15017576004E+02  0.15017576004E+02  0.00000000000E+00 0. -1.
         25    2    1    2    0    0 -0.47713058469E+02 -0.31009657582E+02  0.62675144335E+03  0.64162283021E+03  0.12499739877E+03 0.  0.
          2    1    1    2  501    0  0.37740450274E+02  0.11895163702E+02  0.46177089998E+02  0.60812499924E+02  0.00000000000E+00 0. -1.
          1    1    1    2  502    0  0.99726081952E+01  0.19114493881E+02  0.43960731007E+03  0.44013566529E+03  0.00000000000E+00 0. -1.
         22    1    3    3    0    0 -0.21195646968E+02 -0.78832893907E+02  0.41277179999E+03  0.42076649044E+03  0.00000000000E+00 0. -1.
         22    1    3    3    0    0 -0.26517411501E+02  0.47823236325E+02  0.21397964336E+03  0.22085633977E+03  0.00000000000E+00 0. -1.
</event>
<event>
 7    1  0.6888431E-006  0.7264420E+02  0.7818608E-02  0.1383412E+00
          2   -1    0    0  502    0  0.00000000000E+00  0.00000000000E+00  0.43819296139E+02  0.43819296139E+02  0.00000000000E+00 0. -1.
          1   -1    0    0  501    0 -0.00000000000E+00 -0.00000000000E+00 -0.50521355978E+03  0.50521355978E+03  0.00000000000E+00 0. -1.
         25    2    1    2    0    0  0.39058307367E+02  0.16327167845E+01 -0.33561206507E+03  0.36026134879E+03  0.12499825630E+03 0.  0.
          2    1    1    2  501    0  0.27795119295E+02 -0.48198414104E+02 -0.72638633272E+02  0.91498780442E+02  0.00000000000E+00 0. -1.
          1    1    1    2  502    0 -0.66853426662E+02  0.46565697320E+02 -0.53143565304E+02  0.97272726684E+02  0.00000000000E+00 0. -1.
         22    1    3    3    0    0  0.12771126359E+02 -0.53342158885E+02 -0.76819236363E+02  0.94391115357E+02  0.00000000000E+00 0.  1.
         22    1    3    3    0    0  0.26287181008E+02  0.54974875669E+02 -0.25879282870E+03  0.26587023344E+03  0.00000000000E+00 0.  1.
</event>
<event>
 7    1  0.6888431E-006  0.6828863E+02  0.7818608E-02  0.1378617E+00
          2   -1    0    0  502    0  0.00000000000E+00  0.00000000000E+00  0.95881000699E+02  0.95881000699E+02  0.00000000000E+00 0. -1.
          1   -1    0    0  501    0 -0.00000000000E+00 -0.00000000000E+00 -0.73766118662E+03  0.73766118662E+03  0.00000000000E+00 0. -1.
         25    2    1    2    0    0  0.39097260081E+02 -0.89279537041E+02 -0.42984710397E+03  0.45814025643E+03  0.12499812113E+03 0.  0.
          2    1    1    2  501    0  0.16346081268E+02  0.62564066500E+02 -0.27781767323E+03  0.28524395935E+03  0.00000000000E+00 0. -1.
          1    1    1    2  502    0 -0.55443341350E+02  0.26715470541E+02  0.65884591271E+02  0.90157971545E+02  0.00000000000E+00 0. -1.
         22    1    3    3    0    0 -0.24924270685E+02 -0.85528733885E+02 -0.18969044374E+03  0.20956824195E+03  0.00000000000E+00 0. -1.
         22    1    3    3    0    0  0.64021530766E+02 -0.37508031560E+01 -0.24015666023E+03  0.24857201447E+03  0.00000000000E+00 0. -1.
</event>
<event>
 7    1  0.6888431E-006  0.1393699E+03  0.7818608E-02  0.1258903E+00
          2   -1    0    0  502    0  0.00000000000E+00  0.00000000000E+00  0.22547327893E+03  0.22547327893E+03  0.00000000000E+00 0. -1.
          1   -1    0    0  501    0 -0.00000000000E+00 -0.00000000000E+00 -0.61753101013E+03  0.61753101013E+03  0.00000000000E+00 0. -1.
         25    2    1    2    0    0  0.16504280424E+03  0.84963942762E+02 -0.44077797952E+02  0.22809115632E+03  0.12499889807E+03 0.  0.
          2    1    1    2  501    0 -0.33683836543E+02 -0.81572667757E+02 -0.44366894618E+03  0.45236139841E+03  0.00000000000E+00 0. -1.
          1    1    1    2  502    0 -0.13135896769E+03 -0.33912750047E+01  0.95689012929E+02  0.16255173433E+03  0.00000000000E+00 0. -1.
         22    1    3    3    0    0  0.21693266337E+02 -0.31767342148E+02 -0.13169633059E+02  0.40659575335E+02  0.00000000000E+00 0. -1.
         22    1    3    3    0    0  0.14334953790E+03  0.11673128491E+03 -0.30908164893E+02  0.18743158098E+03  0.00000000000E+00 0. -1.
</event>
<event>
 7    1  0.6940161E-006  0.6604432E+02  0.7818608E-02  0.1454857E+00
          2   -1    0    0  502    0  0.00000000000E+00  0.00000000000E+00  0.17316167390E+04  0.17316167390E+04  0.00000000000E+00 0. -1.
          1   -1    0    0  501    0 -0.00000000000E+00 -0.00000000000E+00 -0.52718498246E+03  0.52718498246E+03  0.00000000000E+00 0. -1.
         25    2    1    2    0    0 -0.11301298739E+02  0.83826450257E+02 -0.15996055428E+03  0.21992562815E+03  0.12500123950E+03 0.  0.
          2    1    1    2  501    0  0.28925380459E+02 -0.20218173034E+02 -0.33567645899E+03  0.33752649863E+03  0.00000000000E+00 0. -1.
          1    1    1    2  502    0 -0.17624081721E+02 -0.63608277223E+02  0.17000687698E+04  0.17013495947E+04  0.00000000000E+00 0. -1.
         22    1    3    3    0    0  0.65753775438E+01  0.10980058120E+03 -0.86335999664E+02  0.13983314364E+03  0.00000000000E+00 0.  1.
         22    1    3    3    0    0 -0.17876676282E+02 -0.25974130941E+02 -0.73624554621E+02  0.80092484517E+02  0.00000000000E+00 0.  1.
</event>
<event>
 7    1  0.6888431E-006  0.1228027E+03  0.7818608E-02  0.1408274E+00
          2   -1    0    0  502    0  0.00000000000E+00  0.00000000000E+00  0.10541299604E+04  0.10541299604E+04  0.00000000000E+00 0. -1.
          1   -1    0    0  501    0 -0.00000000000E+00 -0.00000000000E+00 -0.24507757691E+04  0.24507757691E+04  0.00000000000E+00 0. -1.
         25    2    1    2    0    0  0.99766652962E+02 -0.73058988864E+02  0.75063558268E+03  0.77095354365E+03  0.12499835032E+03 0.  0.
          2    1    1    2  501    0 -0.80912154715E+02  0.92383857292E+02 -0.24384469990E+04  0.24415374911E+04  0.00000000000E+00 0. -1.
          1    1    1    2  502    0 -0.18854498248E+02 -0.19324868428E+02  0.29116560760E+03  0.29241469472E+03  0.00000000000E+00 0. -1.
         22    1    3    3    0    0  0.95747963950E+02 -0.17702734416E+02  0.63798196276E+03  0.64536969577E+03  0.00000000000E+00 0. -1.
         22    1    3    3    0    0  0.40186890124E+01 -0.55356254448E+02  0.11265361992E+03  0.12558384788E+03  0.00000000000E+00 0. -1.
</event>
<event>
 7    1  0.6888431E-006  0.7227641E+02  0.7818608E-02  0.1497746E+00
          2   -1    0    0  502    0  0.00000000000E+00  0.00000000000E+00  0.80071730547E+03  0.80071730547E+03  0.00000000000E+00 0. -1.
          1   -1    0    0  501    0 -0.00000000000E+00 -0.00000000000E+00 -0.66602007566E+02  0.66602007566E+02  0.00000000000E+00 0. -1.
         25    2    1    2    0    0 -0.41002361103E+02  0.82483297950E+02  0.38080122873E+03  0.41124491618E+03  0.12501246827E+03 0.  0.
          2    1    1    2  501    0  0.12595902216E+02 -0.20171099435E+02 -0.45544654416E+02  0.51379427312E+02  0.00000000000E+00 0. -1.
          1    1    1    2  502    0  0.28406458887E+02 -0.62312198515E+02  0.39885872360E+03  0.40469496955E+03  0.00000000000E+00 0. -1.
         22    1    3    3    0    0 -0.49674670750E+02  0.77241940384E+02  0.38806092651E+03  0.39877960448E+03  0.00000000000E+00 0.  1.
         22    1    3    3    0    0  0.86723096470E+01  0.52413575663E+01 -0.72596977814E+01  0.12465311694E+02  0.00000000000E+00 0.  1.
</event>
<event>
 7    1  0.6888431E-006  0.1143756E+03  0.7818608E-02  0.1322291E+00
          2   -1    0    0  502    0  0.00000000000E+00  0.00000000000E+00  0.20015338971E+04  0.20015338971E+04  0.00000000000E+00 0. -1.
          1   -1    0    0  501    0 -0.00000000000E+00 -0.00000000000E+00 -0.24714737349E+03  0.24714737349E+03  0.00000000000E+00 0. -1.
         25    2    1    2    0    0 -0.38442597346E+02  0.15815267603E+03  0.63129111912E+03  0.66380979680E+03  0.12499946810E+03 0.  0.
          2    1    1    2  501    0  0.52657125122E+02 -0.10047008477E+03 -0.21625764775E+03  0.24420151713E+03  0.00000000000E+00 0. -1.
          1    1    1    2  502    0 -0.14214527776E+02 -0.57682591254E+02  0.13393530522E+04  0.13406699566E+04  0.00000000000E+00 0. -1.
         22    1    3    3    0    0 -0.83498918290E+02  0.11611515532E+03  0.41765203811E+03  0.44146123679E+03  0.00000000000E+00 0.  1.
         22    1    3    3    0    0  0.45056320944E+02  0.42037520705E+02  0.21363908100E+03  0.22234856000E+03  0.00000000000E+00 0.  1.
</event>
<event>
 7    1  0.6888431E-006  0.5894641E+02  0.7818608E-02  0.1430584E+00
          2   -1    0    0  502    0  0.00000000000E+00  0.00000000000E+00  0.31151642712E+03  0.31151642712E+03  0.00000000000E+00 0. -1.
          1   -1    0    0  501    0 -0.00000000000E+00 -0.00000000000E+00 -0.15227914143E+04  0.15227914143E+04  0.00000000000E+00 0. -1.
         25    2    1    2    0    0 -0.44115992841E+02  0.41221203945E+02 -0.11079440350E+03  0.17761288125E+03  0.12500210902E+03 0.  0.
          2    1    1    2  501    0 -0.15092236199E+02 -0.44903032165E+02 -0.13750117376E+04  0.13758275097E+04  0.00000000000E+00 0. -1.
          1    1    1    2  502    0  0.59208229040E+02  0.36818282194E+01  0.27453115394E+03  0.28086745046E+03  0.00000000000E+00 0. -1.
         22    1    3    3    0    0  0.12502553682E+02  0.98839086141E+01  0.23584171676E+02  0.28464340002E+02  0.00000000000E+00 0. -1.
         22    1    3    3    0    0 -0.56618546523E+02  0.31337295331E+02 -0.13437857518E+03  0.14914854125E+03  0.00000000000E+00 0. -1.
</event>
<event>
 7    1  0.6888431E-006  0.1196835E+03  0.7818608E-02  0.1344476E+00
          2   -1    0    0  502    0  0.00000000000E+00  0.00000000000E+00  0.13509126691E+04  0.13509126691E+04  0.00000000000E+00 0. -1.
          1   -1    0    0  501    0 -0.00000000000E+00 -0.00000000000E+00 -0.34330784900E+02  0.34330784900E+02  0.00000000000E+00 0. -1.
         25    2    1    2    0    0 -0.32350343813E+02  0.85160425704E+02  0.28057116799E+03  0.32038027048E+03  0.12499797821E+03 0.  0.
          2    1    1    2  501    0  0.23224951019E+02  0.40578415362E+02  0.41874698767E+02  0.62765408785E+02  0.00000000000E+00 0. -1.
          1    1    1    2  502    0  0.91253927943E+01 -0.12573884107E+03  0.99413601744E+03  0.10020977747E+04  0.00000000000E+00 0. -1.
         22    1    3    3    0    0 -0.53340963287E+02  0.36808352961E+02  0.44792551332E+02  0.78781253271E+02  0.00000000000E+00 0. -1.
         22    1    3    3    0    0  0.20990619474E+02  0.48352072743E+02  0.23577861666E+03  0.24159901721E+03  0.00000000000E+00 0. -1.
</event>
<event>
 7    1  0.6888431E-006  0.5379913E+02  0.7818608E-02  0.1496402E+00
          2   -1    0    0  502    0  0.00000000000E+00  0.00000000000E+00  0.14205524788E+04  0.14205524788E+04  0.00000000000E+00 0. -1.
          1   -1    0    0  501    0 -0.00000000000E+00 -0.00000000000E+00 -0.14509003174E+03  0.14509003174E+03  0.00000000000E+00 0. -1.
         25    2    1    2    0    0 -0.15884303463E+02 -0.41691889201E+02  0.56969021400E+03  0.58494756713E+03  0.12500476650E+03 0.  0.
          2    1    1    2  501    0  0.29775119234E+02 -0.12379157839E+02 -0.13463134560E+03  0.13843915809E+03  0.00000000000E+00 0. -1.
          1    1    1    2  502    0 -0.13890815771E+02  0.54071047039E+02  0.84040357867E+03  0.84225578534E+03  0.00000000000E+00 0. -1.
         22    1    3    3    0    0  0.43978919188E+02  0.12781191540E+02  0.12905420460E+03  0.13693973826E+03  0.00000000000E+00 0.  1.
         22    1    3    3    0    0 -0.59863222651E+02 -0.54473080740E+02  0.44063600940E+03  0.44800782887E+03  0.00000000000E+00 0.  1.
</event>
<event>
 7    1  0.6888431E-006  0.7489714E+02  0.7818608E-02  0.1435274E+00
          2   -1    0    0  502    0  0.00000000000E+00  0.00000000000E+00  0.92992670128E+03  0.92992670128E+03  0.00000000000E+00 0. -1.
          1   -1    0    0  501    0 -0.00000000000E+00 -0.00000000000E+00 -0.35535149555E+03  0.35535149555E+03  0.00000000000E+00 0. -1.
         25    2    1    2    0    0 -0.52280350038E+01 -0.10561320314E+03  0.42956689012E+03  0.45971198560E+03  0.12500366229E+03 0.  0.
          2    1    1    2  501    0  0.16267668839E+01  0.35949238962E+02 -0.33680870901E+03  0.33872570115E+03  0.00000000000E+00 0. -1.
          1    1    1    2  502    0  0.36012681199E+01  0.69663964182E+02  0.48181702463E+03  0.48684051008E+03  0.00000000000E+00 0. -1.
         22    1    3    3    0    0 -0.20420906229E+02 -0.64974101373E+02  0.40326496755E+03  0.40897589332E+03  0.00000000000E+00 0. -1.
         22    1    3    3    0    0  0.15192871225E+02 -0.40639101772E+02  0.26301922567E+02  0.50736092278E+02  0.00000000000E+00 0. -1.
</event>
<event>
 7    1  0.6888431E-006  0.1327687E+03  0.7818608E-02  0.1335976E+00
          2   -1    0    0  502    0  0.00000000000E+00  0.00000000000E+00  0.10220884831E+04  0.10220884831E+04  0.00000000000E+00 0. -1.
          1   -1    0    0  501    0 -0.00000000000E+00 -0.00000000000E+00 -0.20412918143E+04  0.20412918143E+04  0.00000000000E+00 0. -1.
         25    2    1    2    0    0  0.66370491352E+02 -0.76318370190E+02  0.31873857433E+03  0.35700056805E+03  0.12500236426E+03 0.  0.
          2    1    1    2  501    0  0.21142091081E+02 -0.40138708955E+02 -0.20141488749E+04  0.20146597217E+04  0.00000000000E+00 0. -1.
          1    1    1    2  502    0 -0.87512582432E+02  0.11645707914E+03  0.67620696939E+03  0.69172000753E+03  0.00000000000E+00 0. -1.
         22    1    3    3    0    0  0.67739869126E+02  0.10495621641E+02  0.18753181627E+03  0.19966729842E+03  0.00000000000E+00 0.  1.
         22    1    3    3    0    0 -0.13693777740E+01 -0.86813991831E+02  0.13120675806E+03  0.15733326963E+03  0.00000000000E+00 0.  1.
</event>
<event>
 7    1  0.6888431E-006  0.4777443E+02  0.7818608E-02  0.1468387E+00
          2   -1    0    0  502    0  0.00000000000E+00  0.00000000000E+00  0.19789024849E+04  0.19789024849E+04  0.00000000000E+00 0. -1.
          1   -1    0    0  501    0 -0.00000000000E+00 -0.00000000000E+00 -0.38933226380E+03  0.38933226380E+03  0.00000000000E+00 0. -1.
         25    2    1    2    0    0 -0.18042123648E+02 -0.13903613261E+02 -0.38889151377E+02  0.13287402341E+03  0.12499724523E+03 0.  0.
          2    1    1    2  501    0  0.30017657820E+02 -0.32484268320E+02 -0.30154012831E+03  0.30476669183E+03  0.00000000000E+00 0. -1.
          1    1    1    2  502    0 -0.11975534172E+02  0.46387881581E+02  0.19299995008E+04  0.19305940335E+04  0.00000000000E+00 0. -1.
         22    1    3    3    0    0  0.45705616172E+02 -0.16350508707E+01  0.15389318743E+02  0.48254615037E+02  0.00000000000E+00 0.  1.
         22    1    3    3    0    0 -0.63747739819E+02 -0.12268562391E+02 -0.54278470121E+02  0.84619408376E+02  0.00000000000E+00 0.  1.
</event>
<event>
 7    1  0.6888431E-006  0.5592089E+02  0.7818608E-02  0.1497688E+00
          2   -1    0    0  502    0  0.00000000000E+00  0.00000000000E+00  0.11341754096E+04  0.11341754096E+04  0.00000000000E+00 0. -1.
          1   -1    0    0  501    0 -0.00000000000E+00 -0.00000000000E+00 -0.64568311988E+03  0.64568311988E+03  0.00000000000E+00 0. -1.
         25    2    1    2    0    0 -0.77805621718E+02  0.21986004881E+02 -0.85028275497E+02  0.17143799750E+03  0.12499632063E+03 0.  0.
          2    1    1    2  501    0  0.55143094479E+02 -0.12043781428E+01 -0.51576260795E+03  0.51870345975E+03  0.00000000000E+00 0. -1.
          1    1    1    2  502    0  0.22662527239E+02 -0.20781626738E+02  0.10892831732E+04  0.10897170722E+04  0.00000000000E+00 0. -1.
         22    1    3    3    0    0 -0.86241001790E+02  0.25190311017E+02 -0.40261485977E+01  0.89934821017E+02  0.00000000000E+00 0.  1.
         22    1    3    3    0    0  0.84353800725E+01 -0.32043061362E+01 -0.81002126899E+02  0.81503176484E+02  0.00000000000E+00 0.  1.
</event>
<event>
 7    1  0.6888431E-006  0.1147101E+03  0.7818608E-02  0.1403594E+00
          2   -1    0    0  502    0  0.00000000000E+00  0.00000000000E+00  0.13626127343E+04  0.13626127343E+04  0.00000000000E+00 0. -1.
          1   -1    0    0  501    0 -0.00000000000E+00 -0.00000000000E+00 -0.53301244278E+02  0.53301244278E+02  0.00000000000E+00 0. -1.
         25    2    1    2    0    0 -0.10753056885E+03 -0.10078852335E+02  0.92974652557E+03  0.94430819949E+03  0.12499986919E+03 0.  0.
          2    1    1    2  501    0  0.10833615039E+03  0.40053126525E+02  0.28110638319E+02  0.11887465000E+03  0.00000000000E+00 0. -1.
          1    1    1    2  502    0 -0.80558153873E+00 -0.29974274191E+02  0.35145432609E+03  0.35273112905E+03  0.00000000000E+00 0. -1.
         22    1    3    3    0    0 -0.85456827030E+02  0.14134813131E+02  0.26587564319E+03  0.27962925432E+03  0.00000000000E+00 0. -1.
         22    1    3    3    0    0 -0.22073741824E+02 -0.24213665466E+02  0.66387088238E+03  0.66467894517E+03  0.00000000000E+00 0. -1.
</event>
<event>
 7    1  0.6888431E-006  0.6387978E+02  0.7818608E-02  0.1448810E+00
          2   -1    0    0  502    0  0.00000000000E+00  0.00000000000E+00  0.15904040066E+04  0.15904040066E+04  0.00000000000E+00 0. -1.
          1   -1    0    0  501    0 -0.00000000000E+00 -0.00000000000E+00 -0.37382428346E+03  0.37382428346E+03  0.00000000000E+00 0. -1.
         25    2    1    2    0    0 -0.14040441413E+02  0.87659917163E+02  0.25658154641E+03  0.29890920726E+03  0.12502491415E+03 0.  0.
          2    1    1    2  501    0 -0.14249781714E+02 -0.62073439415E+02 -0.34950506165E+03  0.35526040629E+03  0.00000000000E+00 0. -1.
          1    1    1    2  502    0  0.28290223127E+02 -0.25586477749E+02  0.13095032383E+04  0.13100586765E+04  0.00000000000E+00 0. -1.
         22    1    3    3    0    0  0.48234648693E+02  0.75203765469E+02  0.16156337382E+03  0.18462099403E+03  0.00000000000E+00 0. -1.
         22    1    3    3    0    0 -0.62275090106E+02  0.12456151695E+02  0.95018172583E+02  0.11428821323E+03  0.00000000000E+00 0. -1.
</event>
<event>
 7    1  0.6888431E-006  0.5160517E+02  0.7818608E-02  0.1532100E+00
          2   -1    0    0  502    0  0.00000000000E+00  0.00000000000E+00  0.33038065641E+03  0.33038065641E+03  0.00000000000E+00 0. -1.
          1   -1    0    0  501    0 -0.00000000000E+00 -0.00000000000E+00 -0.70798946215E+03  0.70798946215E+03  0.00000000000E+00 0. -1.
         25    2    1    2    0    0 -0.97648308181E+01  0.77167477298E+02  0.67577741680E+02  0.16199437976E+03  0.12500102572E+03 0.  0.
          2    1    1    2  501    0  0.55693692486E+01 -0.51074480645E+02 -0.65896755672E+03  0.66096736777E+03  0.00000000000E+00 0. -1.
          1    1    1    2  502    0  0.41954615696E+01 -0.26092996652E+02  0.21378100930E+03  0.21540837102E+03  0.00000000000E+00 0. -1.
         22    1    3    3    0    0  0.27629528975E+02  0.95720989584E+02  0.25755580643E+02  0.10290407500E+03  0.00000000000E+00 0. -1.
         22    1    3    3    0    0 -0.37394359793E+02 -0.18553512286E+02  0.41822161037E+02  0.59090304757E+02  0.00000000000E+00 0. -1.
</event>
<event>
 7    1  0.1073337E-005  0.1043909E+03  0.7818608E-02  0.1373378E+00
          2   -1    0    0  502    0  0.00000000000E+00  0.00000000000E+00  0.18509103731E+04  0.18509103731E+04  0.00000000000E+00 0. -1.
          1   -1    0    0  501    0 -0.00000000000E+00 -0.00000000000E+00 -0.87044702914E+03  0.87044702914E+03  0.00000000000E+00 0. -1.
         25    2    1    2    0    0  0.56522328011E+02 -0.29074134048E+02 -0.10340500435E+03  0.17423188777E+03  0.12499630777E+03 0.  0.
          2    1    1    2  501    0  0.40907575258E+02 -0.96391336522E+01 -0.72950972253E+03  0.73071935644E+03  0.00000000000E+00 0. -1.
          1    1    1    2  502    0 -0.97429903269E+02  0.38713267700E+02  0.18133780708E+04  0.18164061580E+04  0.00000000000E+00 0. -1.
         22    1    3    3    0    0 -0.35217622580E+02  0.98341233866E+01 -0.10626197677E+02  0.38077644360E+02  0.00000000000E+00 0. -1.
         22    1    3    3    0    0  0.91739950591E+02 -0.38908257434E+02 -0.92778806675E+02  0.13615424341E+03  0.00000000000E+00 0. -1.
</event>
<event>
 7    1  0.6888431E-006  0.1046263E+03  0.7818608E-02  0.1361500E+00
          2   -1    0    0  502    0  0.00000000000E+00  0.00000000000E+00  0.18092604395E+04  0.18092604395E+04  0.00000000000E+00 0. -1.
          1   -1    0    0  501    0 -0.00000000000E+00 -0.00000000000E+00 -0.36255667896E+03  0.36255667896E+03  0.00000000000E+00 0. -1.
         25    2    1    2    0    0 -0.62970420299E+02 -0.63854207832E+02  0.23045642866E+03  0.27708792724E+03  0.12499968087E+03 0.  0.
          2    1    1    2  501    0  0.99332798100E+02  0.35219722767E+02 -0.33070095133E+03  0.34708868155E+03  0.00000000000E+00 0. -1.
          1    1    1    2  502    0 -0.36362377801E+02  0.28634485065E+02  0.15469482832E+04  0.15476405096E+04  0.00000000000E+00 0. -1.
         22    1    3    3    0    0  0.18805656259E+02 -0.48434322471E+02  0.15942496913E+03  0.16767783719E+03  0.00000000000E+00 0.  1.
         22    1    3    3    0    0 -0.81776076559E+02 -0.15419885360E+02  0.71031459527E+02  0.10941009005E+03  0.00000000000E+00 0.  1.
</event>
<event>
 7    1  0.6888431E-006  0.2440618E+03  0.7818608E-02  0.1293299E+00
          2   -1    0    0  502    0  0.00000000000E+00  0.00000000000E+00  0.83157287985E+03  0.83157287985E+03  0.00000000000E+00 0. -1.
          1   -1    0    0  501    0 -0.00000000000E+00 -0.00000000000E+00 -0.27847827121E+04  0.27847827121E+04  0.00000000000E+00 0. -1.
         25    2    1    2    0    0 -0.80998575731E+02 -0.22249462735E+03  0.54326198333E+02  0.27320792551E+03  0.12500642491E+03 0.  0.
          2    1    1    2  501    0 -0.35758696812E+02  0.59667225486E+01 -0.26525587702E+04  0.26528064980E+04  0.00000000000E+00 0. -1.
          1    1    1    2  502    0  0.11675727254E+03  0.21652790480E+03  0.64502273963E+03  0.69034116847E+03  0.00000000000E+00 0. -1.
         22    1    3    3    0    0 -0.45414391510E+02 -0.36618262959E+01  0.31467805463E+01  0.45670320295E+02  0.00000000000E+00 0. -1.
         22    1    3    3    0    0 -0.35584184221E+02 -0.21883280105E+03  0.51179417787E+02  0.22753760522E+03  0.00000000000E+00 0. -1.
</event>
<event>
 7    1  0.6888431E-006  0.1286655E+03  0.7818608E-02  0.1379370E+00
          2   -1    0    0  502    0  0.00000000000E+00  0.00000000000E+00  0.12294097821E+04  0.12294097821E+04  0.00000000000E+00 0. -1.
          1   -1    0    0  501    0 -0.00000000000E+00 -0.00000000000E+00 -0.40226016239E+03  0.40226016239E+03  0.00000000000E+00 0. -1.
         25    2    1    2    0    0  0.10048845897E+03  0.16621671216E+02  0.19010999499E+03  0.24928015936E+03  0.12499830924E+03 0.  0.
          2    1    1    2  501    0  0.27997781236E+02  0.16432431472E+02 -0.36759865048E+03  0.36902935980E+03  0.00000000000E+00 0. -1.
          1    1    1    2  502    0 -0.12848624021E+03 -0.33054102689E+02  0.10046382752E+04  0.10133604254E+04  0.00000000000E+00 0. -1.
         22    1    3    3    0    0  0.12334087831E+03  0.32279177035E+01  0.11140063051E+03  0.16623324635E+03  0.00000000000E+00 0. -1.
         22    1    3    3    0    0 -0.22852419338E+02  0.13393753513E+02  0.78709364484E+02  0.83046913009E+02  0.00000000000E+00 0. -1.
</event>
<event>
 7    1  0.6888431E-006  0.3303506E+02  0.7818608E-02  0.1569765E+00
          2   -1    0    0  502    0  0.00000000000E+00  0.00000000000E+00  0.23044186786E+04  0.23044186786E+04  0.00000000000E+00 0. -1.
          1   -1    0    0  501    0 -0.00000000000E+00 -0.00000000000E+00 -0.16814684145E+03  0.16814684145E+03  0.00000000000E+00 0. -1.
         25    2    1    2    0    0  0.44866609871E+02  0.38805755502E+02  0.30785486244E+03  0.33751762969E+03  0.12499853870E+03 0.  0.
          2    1    1    2  501    0 -0.31602240272E+02 -0.92216019432E+01 -0.15141402865E+03  0.15495143627E+03  0.00000000000E+00 0. -1.
          1    1    1    2  502    0 -0.13264369599E+02 -0.29584153559E+02  0.19798310033E+04  0.19800964541E+04  0.00000000000E+00 0. -1.
         22    1    3    3    0    0  0.40411805034E+02  0.83070771578E+02  0.18343784097E+03  0.20538575554E+03  0.00000000000E+00 0.  1.
         22    1    3    3    0    0  0.44548048377E+01 -0.44265016076E+02  0.12441702147E+03  0.13213187415E+03  0.00000000000E+00 0.  1.
</event>
<event>
 7    1  0.6888431E-006  0.9123183E+02  0.7818608E-02  0.1371552E+00
          2   -1    0    0  502    0  0.00000000000E+00  0.00000000000E+00  0.59834675032E+03  0.59834675032E+03  0.00000000000E+00 0. -1.
          1   -1    0    0  501    0 -0.00000000000E+00 -0.00000000000E+00 -0.22215328588E+04  0.22215328588E+04  0.00000000000E+00 0. -1.
         25    2    1    2    0    0 -0.70388525755E+02 -0.71976774163E+02 -0.43602165391E+02  0.16631709016E+03  0.12500010030E+03 0.  0.
          2    1    1    2  501    0  0.87429474848E+02  0.26227845625E+02 -0.21144769667E+04  0.21164462326E+04  0.00000000000E+00 0. -1.
          1    1    1    2  502    0 -0.17040949093E+02  0.45748928538E+02  0.53489302357E+03  0.53711628636E+03  0.00000000000E+00 0. -1.
         22    1    3    3    0    0 -0.55903897488E+02 -0.63581930178E+00  0.29447027721E+02  0.63188428230E+02  0.00000000000E+00 0.  1.
         22    1    3    3    0    0 -0.14484628267E+02 -0.71340954861E+02 -0.73049193112E+02  0.10312866193E+03  0.00000000000E+00 0.  1.
</event>
<event>
 7    1  0.6888431E-006  0.4781144E+02  0.7818608E-02  0.1485491E+00
          2   -1    0    0  502    0  0.00000000000E+00  0.00000000000E+00  0.13213776453E+03  0.13213776453E+03  0.00000000000E+00 0. -1.
          1   -1    0    0  501    0 -0.00000000000E+00 -0.00000000000E+00 -0.24747768218E+04  0.24747768218E+04  0.00000000000E+00 0. -1.
         25    2    1    2    0    0  0.37288863395E+02 -0.22957996641E+02 -0.11526632153E+04  0.11602479190E+04  0.12500086719E+03 0.  0.
          2    1    1    2  501    0 -0.47806185026E+02 -0.14748609271E+02 -0.13148495026E+04  0.13158009603E+04  0.00000000000E+00 0. -1.
          1    1    1    2  502    0  0.10517321631E+02  0.37706605912E+02  0.12487366052E+03  0.13086570703E+03  0.00000000000E+00 0. -1.
         22    1    3    3    0    0  0.57413081396E+02 -0.57247632546E+02 -0.96604958221E+03  0.96944589774E+03  0.00000000000E+00 0. -1.
         22    1    3    3    0    0 -0.20124218001E+02  0.34289635905E+02 -0.18661363306E+03  0.19080202128E+03  0.00000000000E+00 0. -1.
</event>
<event>
 7    1  0.6888431E-006  0.4214573E+02  0.7818608E-02  0.1516642E+00
          2   -1    0    0  502    0  0.00000000000E+00  0.00000000000E+00  0.62854729232E+03  0.62854729232E+03  0.00000000000E+00 0. -1.
          1   -1    0    0  501    0 -0.00000000000E+00 -0.00000000000E+00 -0.10846116512E+04  0.10846116512E+04  0.00000000000E+00 0. -1.
         25    2    1    2    0    0 -0.56783926522E+02  0.43342766104E+02 -0.38993647335E+03  0.41566815531E+03  0.12500620945E+03 0.  0.
          2    1    1    2  501    0  0.22027739265E+02 -0.34506433439E+02 -0.68067161760E+03  0.68190158106E+03  0.00000000000E+00 0. -1.
          1    1    1    2  502    0  0.34756187256E+02 -0.88363326648E+01  0.61454373207E+03  0.61558920715E+03  0.00000000000E+00 0. -1.
         22    1    3    3    0    0 -0.43526957237E+02 -0.31545950336E+02 -0.25656709343E+03  0.26213816285E+03  0.00000000000E+00 0. -1.
         22    1    3    3    0    0 -0.13256969285E+02  0.74888716440E+02 -0.13336937992E+03  0.15352999246E+03  0.00000000000E+00 0. -1.
</event>
<event>
 7    1  0.6888431E-006  0.2374921E+03  0.7818608E-02  0.1164418E+00
          2   -1    0    0  502    0  0.00000000000E+00  0.00000000000E+00  0.65833184694E+02  0.65833184694E+02  0.00000000000E+00 0. -1.
          1   -1    0    0  501    0 -0.00000000000E+00 -0.00000000000E+00 -0.29626293792E+04  0.29626293792E+04  0.00000000000E+00 0. -1.
         25    2    1    2    0    0 -0.10651421284E+03  0.69769954805E+02 -0.21128721914E+03  0.27655132372E+03  0.12500088619E+03 0.  0.
          2    1    1    2  501    0  0.17416608014E+03 -0.19444632407E+03 -0.25218940167E+04  0.25353683416E+04  0.00000000000E+00 0. -1.
          1    1    1    2  502    0 -0.67651867301E+02  0.12467636927E+03 -0.16361495870E+03  0.21654289856E+03  0.00000000000E+00 0. -1.
         22    1    3    3    0    0 -0.50489368217E+02  0.71636799267E+02 -0.20138288895E+03  0.21962712782E+03  0.00000000000E+00 0. -1.
         22    1    3    3    0    0 -0.56024844621E+02 -0.18668444626E+01 -0.99043301981E+01  0.56924195908E+02  0.00000000000E+00 0. -1.
</event>
<event>
 7    1  0.6888431E-006  0.8542604E+02  0.7818608E-02  0.1415663E+00
          2   -1    0    0  502    0  0.00000000000E+00  0.00000000000E+00  0.93885696093E+03  0.93885696093E+03  0.00000000000E+00 0. -1.
          1   -1    0    0  501    0 -0.00000000000E+00 -0.00000000000E+00 -0.61751431915E+02  0.61751431915E+02  0.00000000000E+00 0. -1.
         25    2    1    2    0    0 -0.14369402356E+02  0.65297779300E+02  0.48872320764E+03  0.50886738522E+03  0.12500144936E+03 0.  0.
          2    1    1    2  501    0 -0.16067024024E+02 -0.85702846592E+02 -0.13462384474E+02  0.88229037004E+02  0.00000000000E+00 0. -1.
          1    1    1    2  502    0  0.30436426380E+02  0.20405067292E+02  0.40184470585E+03  0.40351197063E+03  0.00000000000E+00 0. -1.
         22    1    3    3    0    0  0.29330447825E+01 -0.70886458706E+01  0.36070742875E+03  0.36078899762E+03  0.00000000000E+00 0. -1.
         22    1    3    3    0    0 -0.17302447138E+02  0.72386425171E+02  0.12801577890E+03  0.14807838760E+03  0.00000000000E+00 0. -1.
</event>
<event>
 7    1  0.6888431E-006  0.1362051E+03  0.7818608E-02  0.1337315E+00
          2   -1    0    0  502    0  0.00000000000E+00  0.00000000000E+00  0.26270261438E+04  0.26270261438E+04  0.00000000000E+00 0. -1.
          1   -1    0    0  501    0 -0.00000000000E+00 -0.00000000000E+00 -0.97246612188E+03  0.97246612188E+03  0.00000000000E+00 0. -1.
         25    2    1    2    0    0 -0.35293932801E+02  0.13013874091E+03 -0.30198079453E+03  0.35355167228E+03  0.12499852450E+03 0.  0.
          2    1    1    2  501    0  0.76346360359E+02 -0.11513227512E+03 -0.63711321327E+03  0.65191828785E+03  0.00000000000E+00 0. -1.
          1    1    1    2  502    0 -0.41052427558E+02 -0.15006465788E+02  0.25936540297E+04  0.25940223055E+04  0.00000000000E+00 0. -1.
         22    1    3    3    0    0 -0.78469893328E+01  0.10290209701E+03 -0.29717775959E+03  0.31458709065E+03  0.00000000000E+00 0. -1.
         22    1    3    3    0    0 -0.27446943468E+02  0.27236643900E+02 -0.48030349397E+01  0.38964581626E+02  0.00000000000E+00 0. -1.
</event>
<event>
 7    1  0.6888431E-006  0.1462315E+03  0.7818608E-02  0.1262181E+00
          2   -1    0    0  502    0  0.00000000000E+00  0.00000000000E+00  0.13146882228E+03  0.13146882228E+03  0.00000000000E+00 0. -1.
          1   -1    0    0  501    0 -0.00000000000E+00 -0.00000000000E+00 -0.74343311996E+03  0.74343311996E+03  0.00000000000E+00 0. -1.
         25    2    1    2    0    0 -0.76838111343E+02 -0.11572942539E+03 -0.15481249263E+03  0.24267142623E+03  0.12500047191E+03 0.  0.
          2    1    1    2  501    0  0.41250212485E+01  0.15242698349E+03 -0.51187598470E+03  0.53410488184E+03  0.00000000000E+00 0. -1.
          1    1    1    2  502    0  0.72713090094E+02 -0.36697558102E+02  0.54724179660E+02  0.98125634169E+02  0.00000000000E+00 0. -1.
         22    1    3    3    0    0 -0.47270071839E+02 -0.12029068715E+03 -0.16630511636E+03  0.21062217555E+03  0.00000000000E+00 0. -1.
         22    1    3    3    0    0 -0.29568039504E+02  0.45612617652E+01  0.11492623723E+02  0.32049250678E+02  0.00000000000E+00 0. -1.
</event>
<event>
 7    1  0.6888431E-006  0.4451054E+02  0.7818608E-02  0.1586770E+00
          2   -1    0    0  502    0  0.00000000000E+00  0.00000000000E+00  0.17550194810E+04  0.17550194810E+04  0.00000000000E+00 0. -1.
          1   -1    0    0  501    0 -0.00000000000E+00 -0.00000000000E+00 -0.29930372568E+03  0.29930372568E+03  0.00000000000E+00 0. -1.
         25    2    1    2    0    0 -0.65532739564E+01 -0.65762682783E+02  0.13502984946E+04  0.13576813864E+04  0.12500018674E+03 0.  0.
          2    1    1    2  501    0  0.31523884099E+01  0.44372038615E+02 -0.29364344921E+03  0.29699375520E+03  0.00000000000E+00 0. -1.
          1    1    1    2  502    0  0.34008855465E+01  0.21390644168E+02  0.39906070999E+03  0.39964806510E+03  0.00000000000E+00 0. -1.
         22    1    3    3    0    0  0.27438935608E+02 -0.13547678572E+02  0.76977777025E+02  0.82837267807E+02  0.00000000000E+00 0.  1.
         22    1    3    3    0    0 -0.33992209564E+02 -0.52215004210E+02  0.12733207176E+04  0.12748441186E+04  0.00000000000E+00 0.  1.
</event>
<event>
 7    1  0.6888431E-006  0.2853220E+03  0.7818608E-02  0.1204876E+00
          2   -1    0    0  502    0  0.00000000000E+00  0.00000000000E+00  0.16049446112E+04  0.16049446112E+04  0.00000000000E+00 0. -1.
          1   -1    0    0  501    0 -0.00000000000E+00 -0.00000000000E+00 -0.48388341859E+03  0.48388341859E+03  0.00000000000E+00 0. -1.
         25    2    1    2    0    0 -0.22275392328E+03 -0.27378185839E+02  0.14863311060E+03  0.29679117509E+03  0.12499729857E+03 0.  0.
          2    1    1    2  501    0 -0.71675843461E+02 -0.22727852669E+02 -0.39003820133E+03  0.39722006535E+03  0.00000000000E+00 0. -1.
          1    1    1    2  502    0  0.29442976674E+03  0.50106038508E+02  0.13624662833E+04  0.13948167893E+04  0.00000000000E+00 0. -1.
         22    1    3    3    0    0 -0.46148782556E+01  0.27895410846E+02  0.34071500100E+02  0.44275480422E+02  0.00000000000E+00 0.  1.
         22    1    3    3    0    0 -0.21813904502E+03 -0.55273596685E+02  0.11456161050E+03  0.25251569467E+03  0.00000000000E+00 0.  1.
</event>
<event>
 7    1  0.6888431E-006  0.4794673E+02  0.7818608E-02  0.1548933E+00
          2   -1    0    0  502    0  0.00000000000E+00  0.00000000000E+00  0.23056083343E+03  0.23056083343E+03  0.00000000000E+00 0. -1.
          1   -1    0    0  501    0 -0.00000000000E+00 -0.00000000000E+00 -0.23867989609E+04  0.23867989609E+04  0.00000000000E+00 0. -1.
         25    2    1    2    0    0  0.65676697044E+02 -0.32509934088E+02 -0.75651889772E+02  0.16346304655E+03  0.12500653908E+03 0.  0.
          2    1    1    2  501    0 -0.42538873841E+02  0.21803914212E+02 -0.22661177051E+04  0.22666218079E+04  0.00000000000E+00 0. -1.
          1    1    1    2  502    0 -0.23137823203E+02  0.10706019876E+02  0.18553146741E+03  0.18727493993E+03  0.00000000000E+00 0. -1.
         22    1    3    3    0    0  0.92005882962E+02  0.11085838123E+02 -0.38154377304E+02  0.10021843550E+03  0.00000000000E+00 0. -1.
         22    1    3    3    0    0 -0.26329185918E+02 -0.43595772211E+02 -0.37497512468E+02  0.63244611052E+02  0.00000000000E+00 0. -1.
</event>
<event>
 7    1  0.8311640E-006  0.8558082E+02  0.7818608E-02  0.1314106E+00
          2   -1    0    0  502    0  0.00000000000E+00  0.00000000000E+00  0.10392159840E+04  0.10392159840E+04  0.00000000000E+00 0. -1.
          1   -1    0    0  501    0 -0.00000000000E+00 -0.00000000000E+00 -0.19265942402E+04  0.19265942402E+04  0.00000000000E+00 0. -1.
         25    2    1    2    0    0 -0.20166359041E+01 -0.17116318125E+02 -0.30288535337E+03  0.32811721299E+03  0.12499733199E+03 0.  0.
          2    1    1    2  501    0  0.84202359123E+02  0.40982256219E+02 -0.16079446884E+04  0.16106693340E+04  0.00000000000E+00 0. -1.
          1    1    1    2  502    0 -0.82185723219E+02 -0.23865938094E+02  0.10234517856E+04  0.10270236772E+04  0.00000000000E+00 0. -1.
         22    1    3    3    0    0  0.45939471958E+02  0.32844047030E+02 -0.15001293602E+03  0.16029050964E+03  0.00000000000E+00 0.  1.
         22    1    3    3    0    0 -0.47956107862E+02 -0.49960365155E+02 -0.15287241736E+03  0.16782670335E+03  0.00000000000E+00 0.  1.
</event>
<event>
 7    1  0.6888431E-006  0.4586864E+02  0.7818608E-02  0.1496292E+00
          2   -1    0    0  502    0  0.00000000000E+00  0.00000000000E+00  0.14077516125E+04  0.14077516125E+04  0.00000000000E+00 0. -1.
          1   -1    0    0  501    0 -0.00000000000E+00 -0.00000000000E+00 -0.47878393289E+02  0.47878393289E+02  0.00000000000E+00 0. -1.
         25    2    1    2    0    0 -0.77017276131E+02  0.22814654729E+02  0.56275137368E+03  0.58203619851E+03  0.12499943403E+03 0.  0.
          2    1    1    2  501    0  0.33467153550E+02 -0.17679133548E+02 -0.28142198155E+02  0.47165511200E+02  0.00000000000E+00 0. -1.
          1    1    1    2  502    0  0.43550122580E+02 -0.51355211817E+01  0.82526404366E+03  0.82642829605E+03  0.00000000000E+00 0. -1.
         22    1    3    3    0    0 -0.10414629567E+03  0.32051182624E+02  0.51452817580E+03  0.52594008490E+03  0.00000000000E+00 0. -1.
         22    1    3    3    0    0  0.27129019543E+02 -0.92365278947E+01  0.48223197876E+02  0.56096113612E+02  0.00000000000E+00 0. -1.
</event>
<event>
 7    1  0.6888431E-006  0.8725030E+02  0.7818608E-02  0.1336820E+00
          2   -1    0    0  502    0  0.00000000000E+00  0.00000000000E+00  0.71897168209E+02  0.71897168209E+02  0.00000000000E+00 0. -1.
          1   -1    0    0  501    0 -0.00000000000E+00 -0.00000000000E+00 -0.13901905651E+04  0.13901905651E+04  0.00000000000E+00 0. -1.
         25    2    1    2    0    0  0.89653973000E+02 -0.51965585226E+02 -0.31196885836E+03  0.35169178681E+03  0.12499714956E+03 0.  0.
          2    1    1    2  501    0 -0.86316903944E+02 -0.16481406109E+02 -0.10330939883E+04  0.10368246879E+04  0.00000000000E+00 0. -1.
          1    1    1    2  502    0 -0.33370690565E+01  0.68446991335E+02  0.26769449807E+02  0.73571258625E+02  0.00000000000E+00 0. -1.
         22    1    3    3    0    0  0.32935358089E+02 -0.82981103378E+02 -0.12310260805E+03  0.15206858137E+03  0.00000000000E+00 0.  1.
         22    1    3    3    0    0  0.56718614911E+02  0.31015518151E+02 -0.18886625031E+03  0.19962320544E+03  0.00000000000E+00 0.  1.
</event>
<event>
 7    1  0.6888431E-006  0.1483248E+03  0.7818608E-02  0.1379621E+00
          2   -1    0    0  502    0  0.00000000000E+00  0.00000000000E+00  0.58028517871E+02  0.58028517871E+02  0.00000000000E+00 0. -1.
          1   -1    0    0  501    0 -0.00000000000E+00 -0.00000000000E+00 -0.21495252128E+04  0.21495252128E+04  0.00000000000E+00 0. -1.
         25    2    1    2    0    0  0.12043203847E+02  0.13799060092E+03 -0.92549528418E+03  0.94411504266E+03  0.12500099217E+03 0.  0.
          2    1    1    2  501    0 -0.37705658683E+02 -0.14944689255E+03 -0.12053057475E+04  0.12151205847E+04  0.00000000000E+00 0. -1.
          1    1    1    2  502    0  0.25662454836E+02  0.11456291634E+02  0.39304336833E+02  0.48318103233E+02  0.00000000000E+00 0. -1.
         22    1    3    3    0    0  0.25969238596E+02  0.28562631622E+02 -0.58336903242E+03  0.58464489501E+03  0.00000000000E+00 0.  1.
         22    1    3    3    0    0 -0.13926034750E+02  0.10942796929E+03 -0.34212625176E+03  0.35947014765E+03  0.00000000000E+00 0.  1.
</event>
<event>
 7    1  0.6888431E-006  0.9251468E+02  0.7818608E-02  0.1388076E+00
          2   -1    0    0  502    0  0.00000000000E+00  0.00000000000E+00  0.37158870735E+02  0.37158870735E+02  0.00000000000E+00 0. -1.
          1   -1    0    0  501    0 -0.00000000000E+00 -0.00000000000E+00 -0.15201639659E+04  0.15201639659E+04  0.00000000000E+00 0. -1.
         25    2    1    2    0    0 -0.43545280275E+01 -0.97136012368E+02 -0.58246175753E+03  0.60360673340E+03  0.12500009125E+03 0.  0.
          2    1    1    2  501    0  0.40488823417E+02  0.11431506041E+02 -0.84362175604E+03  0.84467016724E+03  0.00000000000E+00 0. -1.
          1    1    1    2  502    0 -0.36134295390E+02  0.85704506327E+02 -0.56921581615E+02  0.10904593602E+03  0.00000000000E+00 0. -1.
         22    1    3    3    0    0  0.39966738068E+02 -0.84227382894E+02 -0.23064635950E+03  0.24877567271E+03  0.00000000000E+00 0.  1.
         22    1    3    3    0    0 -0.44321266095E+02 -0.12908629474E+02 -0.35181539802E+03  0.35483106069E+03  0.00000000000E+00 0.  1.
</event>
<event>
 7    1  0.6888431E-006  0.1223792E+03  0.7818608E-02  0.1344126E+00
          2   -1    0    0  502    0  0.00000000000E+00  0.00000000000E+00  0.33918678209E+03  0.33918678209E+03  0.00000000000E+00 0. -1.
          1   -1    0    0  501    0 -0.00000000000E+00 -0.00000000000E+00 -0.71072777067E+03  0.71072777067E+03  0.00000000000E+00 0. -1.
         25    2    1    2    0    0 -0.16520191843E+03 -0.16800248038E+02  0.45379407022E+02  0.21273898080E+03  0.12499864473E+03 0.  0.
          2    1    1    2  501    0  0.12013103096E+03  0.83142925219E+01 -0.61866924133E+03  0.63027947946E+03  0.00000000000E+00 0. -1.
          1    1    1    2  502    0  0.45070887467E+02  0.84859555161E+01  0.20174884573E+03  0.20689609250E+03  0.00000000000E+00 0. -1.
         22    1    3    3    0    0  0.77990480349E+01 -0.15415970167E+02  0.35464259275E+02  0.39448586443E+02  0.00000000000E+00 0. -1.
         22    1    3    3    0    0 -0.17300096646E+03 -0.13842778707E+01  0.99151477472E+01  0.17329039436E+03  0.00000000000E+00 0. -1.
</event>
<event>
 7    1  0.6888431E-006  0.5150746E+02  0.7818608E-02  0.1438638E+00
          2   -1    0    0  502    0  0.00000000000E+00  0.00000000000E+00  0.68487247446E+02  0.68487247446E+02  0.00000000000E+00 0. -1.
          1   -1    0    0  501    0 -0.00000000000E+00 -0.00000000000E+00 -0.49235710401E+03  0.49235710401E+03  0.00000000000E+00 0. -1.
         25    2    1    2    0    0  0.54361465769E+02  0.26402788904E+02 -0.18465653727E+03  0.23103131878E+03  0.12500062911E+03 0.  0.
          2    1    1    2  501    0 -0.45122123751E+02  0.24839725619E+02 -0.26622006665E+03  0.27115704289E+03  0.00000000000E+00 0. -1.
          1    1    1    2  502    0 -0.92393420182E+01 -0.51242514523E+02  0.27006747357E+02  0.58655989791E+02  0.00000000000E+00 0. -1.
         22    1    3    3    0    0  0.18004736128E+02 -0.33242726038E+02 -0.48280405995E+01  0.38112456409E+02  0.00000000000E+00 0.  1.
         22    1    3    3    0    0  0.36356729641E+02  0.59645514942E+02 -0.17982849667E+03  0.19291886237E+03  0.00000000000E+00 0.  1.
</event>
<event>
 7    1  0.6888431E-006  0.4674892E+02  0.7818608E-02  0.1550866E+00
          2   -1    0    0  502    0  0.00000000000E+00  0.00000000000E+00  0.31785148155E+02  0.31785148155E+02  0.00000000000E+00 0. -1.
          1   -1    0    0  501    0 -0.00000000000E+00 -0.00000000000E+00 -0.13190957722E+04  0.13190957722E+04  0.00000000000E+00 0. -1.
         25    2    1    2    0    0  0.52483538990E+02 -0.49311981292E+02 -0.10361998554E+04  0.10461936299E+04  0.12499911010E+03 0.  0.
          2    1    1    2  501    0 -0.19781478591E+02  0.16602291513E+02 -0.25679133309E+03  0.25808667483E+03  0.00000000000E+00 0. -1.
          1    1    1    2  502    0 -0.32702060399E+02  0.32709689779E+02  0.56805644910E+01  0.46600615583E+02  0.00000000000E+00 0. -1.
         22    1    3    3    0    0 -0.24010762729E+02 -0.59265891611E+02 -0.36305749640E+03  0.36864577623E+03  0.00000000000E+00 0.  1.
         22    1    3    3    0    0  0.76494301719E+02  0.99539103190E+01 -0.67314235902E+03  0.67754785369E+03  0.00000000000E+00 0.  1.
</event>
<event>
 7    1  0.6888431E-006  0.1706581E+03  0.7818608E-02  0.1225146E+00
          2   -1    0    0  502    0  0.00000000000E+00  0.00000000000E+00  0.19996780793E+04  0.19996780793E+04  0.00000000000E+00 0. -1.
          1   -1    0    0  501    0 -0.00000000000E+00 -0.00000000000E+00 -0.42003090308E+03  0.42003090308E+03  0.00000000000E+00 0. -1.
         25    2    1    2    0    0 -0.15954311822E+02  0.14024798685E+03  0.22207790252E+03  0.29131989078E+03  0.12499858437E+03 0.  0.
          2    1    1    2  501    0  0.10015268800E+03  0.16064396542E+02 -0.37411755230E+03  0.38762426225E+03  0.00000000000E+00 0. -1.
          1    1    1    2  502    0 -0.84198376182E+02 -0.15631238339E+03  0.17316868260E+04  0.17407648293E+04  0.00000000000E+00 0. -1.
         22    1    3    3    0    0  0.29120519147E+02  0.14039578005E+03  0.17263051925E+03  0.22441095309E+03  0.00000000000E+00 0.  1.
         22    1    3    3    0    0 -0.45074830969E+02 -0.14779320318E+00  0.49447383272E+02  0.66908937686E+02  0.00000000000E+00 0.  1.
</event>
<event>
 7    1  0.6888431E-006  0.6106660E+02  0.7818608E-02  0.1419148E+00
          2   -1    0    0  502    0  0.00000000000E+00  0.00000000000E+00  0.61022615269E+03  0.61022615269E+03  0.00000000000E+00 0. -1.
          1   -1    0    0  501    0 -0.00000000000E+00 -0.00000000000E+00 -0.12561220115E+04  0.12561220115E+04  0.00000000000E+00 0. -1.
         25    2    1    2    0    0  0.26093202300E+00 -0.82250757129E+02  0.23337068765E+03  0.27722160072E+03  0.12499873166E+03 0.  0.
          2    1    1    2  501    0  0.36735151699E+02  0.48764932902E+02 -0.12316828156E+04  0.12331950569E+04  0.00000000000E+00 0. -1.
          1    1    1    2  502    0 -0.36996083722E+02  0.33485824227E+02  0.35241626914E+03  0.35593150660E+03  0.00000000000E+00 0. -1.
         22    1    3    3    0    0 -0.38820801198E+02 -0.51925205109E+02  0.21482029968E+03  0.22439038011E+03  0.00000000000E+00 0.  1.
         22    1    3    3    0    0  0.39081733221E+02 -0.30325552020E+02  0.18550387963E+02  0.52831220604E+02  0.00000000000E+00 0.  1.
</event>
<event>
 7    1  0.6888431E-006  0.3790014E+02  0.7818608E-02  0.1623950E+00
          2   -1    0    0  502    0  0.00000000000E+00  0.00000000000E+00  0.12260051881E+04  0.12260051881E+04  0.00000000000E+00 0. -1.
          1   -1    0    0  501    0 -0.00000000000E+00 -0.00000000000E+00 -0.94684069506E+02  0.94684069506E+02  0.00000000000E+00 0. -1.
         25    2    1    2    0    0  0.15690830672E+02  0.18407963409E+02  0.23430022575E+03  0.26665860702E+03  0.12500064650E+03 0.  0.
          2    1    1    2  501    0 -0.35567540298E+02 -0.13955763801E+02 -0.73742907166E+02  0.83053173470E+02  0.00000000000E+00 0. -1.
          1    1    1    2  502    0  0.19876709626E+02 -0.44521996073E+01  0.97076380006E+03  0.97097747717E+03  0.00000000000E+00 0. -1.
         22    1    3    3    0    0  0.41627082800E+02 -0.43082304212E+02  0.12459694014E+03  0.13825084611E+03  0.00000000000E+00 0.  1.
         22    1    3    3    0    0 -0.25936252128E+02  0.61490267621E+02  0.10970328562E+03  0.12840776091E+03  0.00000000000E+00 0.  1.
</event>
<event>
 7    1  0.6888431E-006  0.1155581E+03  0.7818608E-02  0.1284276E+00
          2   -1    0    0  502    0  0.00000000000E+00  0.00000000000E+00  0.14917463462E+04  0.14917463462E+04  0.00000000000E+00 0. -1.
          1   -1    0    0  501    0 -0.00000000000E+00 -0.00000000000E+00 -0.55352390888E+02  0.55352390888E+02  0.00000000000E+00 0. -1.
         25    2    1    2    0    0 -0.86413108280E+02  0.17872604491E+02  0.18518416005E+03  0.24021616137E+03  0.12499590304E+03 0.  0.
          2    1    1    2  501    0 -0.16460618028E+02 -0.81690269207E+02  0.45179605803E+02  0.94791607274E+02  0.00000000000E+00 0. -1.
          1    1    1    2  502    0  0.10287372631E+03  0.63817664716E+02  0.12060301895E+04  0.12120909685E+04  0.00000000000E+00 0. -1.
         22    1    3    3    0    0  0.12661838356E+01  0.48424475507E+02  0.23668049068E+02  0.53913909117E+02  0.00000000000E+00 0. -1.
         22    1    3    3    0    0 -0.87679292116E+02 -0.30551871016E+02  0.16151611098E+03  0.18630225225E+03  0.00000000000E+00 0. -1.
</event>
<event>
 7    1  0.6888431E-006  0.6508145E+02  0.7818608E-02  0.1442879E+00
          2   -1    0    0  502    0  0.00000000000E+00  0.00000000000E+00  0.75329510376E+02  0.75329510376E+02  0.00000000000E+00 0. -1.
          1   -1    0    0  501    0 -0.00000000000E+00 -0.00000000000E+00 -0.11957567447E+04  0.11957567447E+04  0.00000000000E+00 0. -1.
         25    2    1    2    0    0  0.14905885833E+02 -0.44369603338E+02 -0.19079645738E+03  0.23283950941E+03  0.12498040591E+03 0.  0.
          2    1    1    2  501    0 -0.33131062630E+02 -0.20806758874E+02 -0.96230185289E+03  0.96309679918E+03  0.00000000000E+00 0. -1.
          1    1    1    2  502    0  0.18225176797E+02  0.65176362212E+02  0.32671075907E+02  0.75149946517E+02  0.00000000000E+00 0. -1.
         22    1    3    3    0    0 -0.33125081118E+02 -0.59465019375E+02 -0.53420137367E+02  0.86527860280E+02  0.00000000000E+00 0.  1.
         22    1    3    3    0    0  0.48030966951E+02  0.15095416037E+02 -0.13737632001E+03  0.14631164913E+03  0.00000000000E+00 0.  1.
</event>
<event>
 7    1  0.6888431E-006  0.1111228E+03  0.7818608E-02  0.1293436E+00
          2   -1    0    0  502    0  0.00000000000E+00  0.00000000000E+00  0.16686483192E+04  0.16686483192E+04  0.00000000000E+00 0. -1.
          1   -1    0    0  501    0 -0.00000000000E+00 -0.00000000000E+00 -0.25351755938E+03  0.25351755938E+03  0.00000000000E+00 0. -1.
         25    2    1    2    0    0 -0.73941955352E+02  0.13462464085E+03  0.47673002535E+03  0.51622448554E+03  0.12499998285E+03 0.  0.
          2    1    1    2  501    0 -0.18321701365E+01 -0.11050083187E+03 -0.21926792911E+03  0.24554473203E+03  0.00000000000E+00 0. -1.
          1    1    1    2  502    0  0.75774125489E+02 -0.24123808973E+02  0.11576686636E+04  0.11603966610E+04  0.00000000000E+00 0. -1.
         22    1    3    3    0    0 -0.10392552935E+03  0.65993980974E+02  0.29219917175E+03  0.31707424548E+03  0.00000000000E+00 0.  1.
         22    1    3    3    0    0  0.29983573996E+02  0.68630659872E+02  0.18453085360E+03  0.19915024006E+03  0.00000000000E+00 0.  1.
</event>
<event>
 7    1  0.6888431E-006  0.4743066E+02  0.7818608E-02  0.1533004E+00
          2   -1    0    0  502    0  0.00000000000E+00  0.00000000000E+00  0.16778392849E+04  0.16778392849E+04  0.00000000000E+00 0. -1.
          1   -1    0    0  501    0 -0.00000000000E+00 -0.00000000000E+00 -0.27916061549E+03  0.27916061549E+03  0.00000000000E+00 0. -1.
         25    2    1    2    0    0  0.40102316652E+02 -0.43889048755E+02  0.40100039658E+03  0.42421710174E+03  0.12499754777E+03 0.  0.
          2    1    1    2  501    0 -0.44735844538E+02  0.15683392111E+02 -0.26528944877E+03  0.26949166259E+03  0.00000000000E+00 0. -1.
          1    1    1    2  502    0  0.46335278859E+01  0.28205656643E+02  0.12629677216E+04  0.12632911361E+04  0.00000000000E+00 0. -1.
         22    1    3    3    0    0 -0.71941091508E+01 -0.71119927602E+02  0.13585673355E+03  0.15351498741E+03  0.00000000000E+00 0.  1.
         22    1    3    3    0    0  0.47296425803E+02  0.27230878847E+02  0.26514366303E+03  0.27070211433E+03  0.00000000000E+00 0.  1.
</event>
<event>
 7    1  0.6888431E-006  0.1396095E+03  0.7818608E-02  0.1363698E+00
          2   -1    0    0  502    0  0.00000000000E+00  0.00000000000E+00  0.12882481411E+04  0.12882481411E+04  0.00000000000E+00 0. -1.
          1   -1    0    0  501    0 -0.00000000000E+00 -0.00000000000E+00 -0.97712976748E+03  0.97712976748E+03  0.00000000000E+00 0. -1.
         25    2    1    2    0    0  0.81477868654E+02  0.97326872736E+02  0.11734930178E+02  0.17853298731E+03  0.12500062294E+03 0.  0.
          2    1    1    2  501    0 -0.62734907941E+02 -0.12575819475E+03 -0.88796029686E+03  0.89901294819E+03  0.00000000000E+00 0. -1.
          1    1    1    2  502    0 -0.18742960713E+02  0.28431322009E+02  0.11873437403E+04  0.11878319731E+04  0.00000000000E+00 0. -1.
         22    1    3    3    0    0  0.85938201859E+02  0.35161079477E+02 -0.36452082095E+02  0.99751843781E+02  0.00000000000E+00 0. -1.
         22    1    3    3    0    0 -0.44603332049E+01  0.62165793259E+02  0.48187012273E+02  0.78781143528E+02  0.00000000000E+00 0. -1.
</event>
<event>
 7    1  0.6888431E-006  0.4171955E+02  0.7818608E-02  0.1601228E+00
          2   -1    0    0  502    0  0.00000000000E+00  0.00000000000E+00  0.61858045264E+03  0.61858045264E+03  0.00000000000E+00 0. -1.
          1   -1    0    0  501    0 -0.00000000000E+00 -0.00000000000E+00 -0.17219753015E+03  0.17219753015E+03  0.00000000000E+00 0. -1.
         25    2    1    2    0    0 -0.37916590144E+02  0.71382889302E+01  0.13449788428E+03  0.18762187475E+03  0.12499465601E+03 0.  0.
          2    1    1    2  501    0  0.31690738535E+02 -0.27370938282E+02 -0.14237391018E+03  0.14840418280E+03  0.00000000000E+00 0. -1.
          1    1    1    2  502    0  0.62258516093E+01  0.20232649352E+02  0.45425894838E+03  0.45475192524E+03  0.00000000000E+00 0. -1.
         22    1    3    3    0    0 -0.36032756313E+02 -0.14391117599E+02  0.15381630100E+03  0.15863454304E+03  0.00000000000E+00 0. -1.
         22    1    3    3    0    0 -0.18838338316E+01  0.21529406529E+02 -0.19318416714E+02  0.28987331712E+02  0.00000000000E+00 0. -1.
</event>
<event>
 7    1  0.6888431E-006  0.9855325E+02  0.7818608E-02  0.1438487E+00
          2   -1    0    0  502    0  0.00000000000E+00  0.00000000000E+00  0.62772343554E+03  0.62772343554E+03  0.00000000000E+00 0. -1.
          1   -1    0    0  501    0 -0.00000000000E+00 -0.00000000000E+00 -0.14716943059E+03  0.14716943059E+03  0.00000000000E+00 0. -1.
         25    2    1    2    0    0 -0.74218355652E+02 -0.97294641886E+02  0.22685892725E+03  0.28647157429E+03  0.12500551327E+03 0.  0.
          2    1    1    2  501    0  0.53306032853E+02  0.80700037798E+02 -0.96843599193E+02  0.13686749776E+03  0.00000000000E+00 0. -1.
          1    1    1    2  502    0  0.20912322799E+02  0.16594604088E+02  0.35053867690E+03  0.35155379408E+03  0.00000000000E+00 0. -1.
         22    1    3    3    0    0 -0.68884940622E+02 -0.12714283035E+03  0.18843171961E+03  0.23752251958E+03  0.00000000000E+00 0.  1.
         22    1    3    3    0    0 -0.53334150297E+01  0.29848188459E+02  0.38427207645E+02  0.48949054716E+02  0.00000000000E+00 0.  1.
</event>
<event>
 7    1  0.6888431E-006  0.7110934E+02  0.7818608E-02  0.1439925E+00
          2   -1    0    0  502    0  0.00000000000E+00  0.00000000000E+00  0.60134196125E+03  0.60134196125E+03  0.00000000000E+00 0. -1.
          1   -1    0    0  501    0 -0.00000000000E+00 -0.00000000000E+00 -0.19381050804E+04  0.19381050804E+04  0.00000000000E+00 0. -1.
         25    2    1    2    0    0  0.94672981838E+02  0.50224188195E+02 -0.27407747539E+03  0.31973324572E+03  0.12500177330E+03 0.  0.
          2    1    1    2  501    0 -0.30449455912E+02 -0.20314079491E+02 -0.16388255520E+04  0.16392342789E+04  0.00000000000E+00 0. -1.
          1    1    1    2  502    0 -0.64223525926E+02 -0.29910108704E+02  0.57613990823E+03  0.58047951707E+03  0.00000000000E+00 0. -1.
         22    1    3    3    0    0  0.68297217630E+02  0.77262216617E+02 -0.10764541739E+03  0.14906876245E+03  0.00000000000E+00 0.  1.
         22    1    3    3    0    0  0.26375764207E+02 -0.27038028422E+02 -0.16643205800E+03  0.17066448327E+03  0.00000000000E+00 0.  1.
</event>
<event>
 7    1  0.6888431E-006  0.6460878E+02  0.7818608E-02  0.1419490E+00
          2   -1    0    0  502    0  0.00000000000E+00  0.00000000000E+00  0.19429294122E+04  0.19429294122E+04  0.00000000000E+00 0. -1.
          1   -1    0    0  501    0 -0.00000000000E+00 -0.00000000000E+00 -0.18976934810E+02  0.18976934810E+02  0.00000000000E+00 0. -1.
         25    2    1    2    0    0  0.41389345662E+02  0.22630481585E+02  0.30047860134E+03  0.32884150827E+03  0.12499652421E+03 0.  0.
          2    1    1    2  501    0  0.22065480492E+02 -0.41543946812E+02  0.13216485346E+03  0.14028661175E+03  0.00000000000E+00 0. -1.
          1    1    1    2  502    0 -0.63454826154E+02  0.18913465227E+02  0.14913090226E+04  0.14927782270E+04  0.00000000000E+00 0. -1.
         22    1    3    3    0    0 -0.16978181331E+02 -0.54131395057E+01  0.23863385861E+03  0.23929830588E+03  0.00000000000E+00 0. -1.
         22    1    3    3    0    0  0.58367526993E+02  0.28043621090E+02  0.61844742734E+02  0.89543202394E+02  0.00000000000E+00 0. -1.
</event>
<event>
 7    1  0.6888431E-006  0.3735892E+02  0.7818608E-02  0.1546635E+00
          2   -1    0    0  502    0  0.00000000000E+00  0.00000000000E+00  0.34688600814E+03  0.34688600814E+03  0.00000000000E+00 0. -1.
          1   -1    0    0  501    0 -0.00000000000E+00 -0.00000000000E+00 -0.57519194974E+03  0.57519194974E+03  0.00000000000E+00 0. -1.
         25    2    1    2    0    0  0.21947079881E+02  0.24406562000E+02 -0.10384514979E+03  0.16579498519E+03  0.12500722938E+03 0.  0.
          2    1    1    2  501    0 -0.30960285444E+02  0.12009630969E+02 -0.43862828505E+03  0.43988355614E+03  0.00000000000E+00 0. -1.
          1    1    1    2  502    0  0.90132055626E+01 -0.36416192969E+02  0.31416749324E+03  0.31639941655E+03  0.00000000000E+00 0. -1.
         22    1    3    3    0    0  0.56092241342E+01 -0.16467390643E+01  0.28925051767E+02  0.29509892658E+02  0.00000000000E+00 0. -1.
         22    1    3    3    0    0  0.16337855747E+02  0.26053301064E+02 -0.13277020155E+03  0.13628509254E+03  0.00000000000E+00 0. -1.
</event>
<event>
 7    1  0.6888431E-006  0.1255629E+03  0.7818608E-02  0.1324670E+00
          2   -1    0    0  502    0  0.00000000000E+00  0.00000000000E+00  0.20871857252E+04  0.20871857252E+04  0.00000000000E+00 0. -1.
          1   -1    0    0  501    0 -0.00000000000E+00 -0.00000000000E+00 -0.36651439412E+02  0.36651439412E+02  0.00000000000E+00 0. -1.
         25    2    1    2    0    0  0.65865916119E+02  0.49500058745E+02  0.42083464770E+03  0.44668259014E+03  0.12503983726E+03 0.  0.
          2    1    1    2  501    0  0.36908314086E+02  0.38013148379E+02  0.12639234265E+02  0.54469930614E+02  0.00000000000E+00 0. -1.
          1    1    1    2  502    0 -0.10277423021E+03 -0.87513207124E+02  0.16170604038E+04  0.16226846438E+04  0.00000000000E+00 0. -1.
         22    1    3    3    0    0 -0.29161291984E+02 -0.14303554251E+02  0.13338274999E+03  0.13728048153E+03  0.00000000000E+00 0.  1.
         22    1    3    3    0    0  0.95027208103E+02  0.63803612996E+02  0.28745189771E+03  0.30940210860E+03  0.00000000000E+00 0.  1.
</event>
<event>
 7    1  0.6888431E-006  0.1268670E+03  0.7818608E-02  0.1336895E+00
          2   -1    0    0  502    0  0.00000000000E+00  0.00000000000E+00  0.29543014319E+03  0.29543014319E+03  0.00000000000E+00 0. -1.
          1   -1    0    0  501    0 -0.00000000000E+00 -0.00000000000E+00 -0.26585160824E+03  0.26585160824E+03  0.00000000000E+00 0. -1.
         25    2    1    2    0    0  0.90922928066E+02  0.92965893234E+02  0.12965068467E+03  0.22213914390E+03  0.12500745203E+03 0.  0.
          2    1    1    2  501    0 -0.50403029669E+02 -0.11697316618E+03 -0.19515048598E+03  0.23303840710E+03  0.00000000000E+00 0. -1.
          1    1    1    2  502    0 -0.40519898397E+02  0.24007272949E+02  0.95078336268E+02  0.10610420043E+03  0.00000000000E+00 0. -1.
         22    1    3    3    0    0 -0.66532698815E+01  0.71934574926E+02  0.88324296029E+02  0.11410534755E+03  0.00000000000E+00 0.  1.
         22    1    3    3    0    0  0.97576197947E+02  0.21031318309E+02  0.41326388642E+02  0.10803379635E+03  0.00000000000E+00 0.  1.
</event>
<event>
 7    1  0.8846250E-006  0.1168022E+03  0.7818608E-02  0.1314474E+00
          2   -1    0    0  502    0  0.00000000000E+00  0.00000000000E+00  0.61516178119E+03  0.61516178119E+03  0.00000000000E+00 0. -1.
          1   -1    0    0  501    0 -0.00000000000E+00 -0.00000000000E+00 -0.13643549164E+04  0.13643549164E+04  0.00000000000E+00 0. -1.
         25    2    1    2    0    0 -0.77079468663E+02  0.53512163429E+00 -0.25923253780E+03  0.29794126596E+03  0.12500383377E+03 0.  0.
          2    1    1    2  501    0 -0.26659759386E+02 -0.56410531728E+02 -0.10790323406E+04  0.10808347158E+04  0.00000000000E+00 0. -1.
          1    1    1    2  502    0  0.10373922805E+03  0.55875410093E+02  0.58907174324E+03  0.60074071576E+03  0.00000000000E+00 0. -1.
         22    1    3    3    0    0 -0.10600012832E+03  0.79099126649E+00 -0.14204980695E+03  0.17724220864E+03  0.00000000000E+00 0.  1.
         22    1    3    3    0    0  0.28920659660E+02 -0.25586963220E+00 -0.11718273086E+03  0.12069905731E+03  0.00000000000E+00 0.  1.
</event>
<event>
 7    1  0.6888432E-006  0.1483679E+03  0.7818608E-02  0.1282103E+00
          2   -1    0    0  502    0  0.00000000000E+00  0.00000000000E+00  0.11607673970E+04  0.11607673970E+04  0.00000000000E+00 0. -1.
          1   -1    0    0  501    0 -0.00000000000E+00 -0.00000000000E+00 -0.89123455844E+03  0.89123455844E+03  0.00000000000E+00 0. -1.
         25    2    1    2    0    0  0.11766146735E+01  0.11525905067E+03 -0.30112254735E+03  0.34581405483E+03  0.12500615510E+03 0.  0.
          2    1    1    2  501    0  0.63463185071E+02  0.19023737721E+02 -0.56093092541E+03  0.56483004659E+03  0.00000000000E+00 0. -1.
          1    1    1    2  502    0 -0.64639799745E+02 -0.13428278839E+03  0.11315863113E+04  0.11413578540E+04  0.00000000000E+00 0. -1.
         22    1    3    3    0    0  0.26732427815E+02  0.13008347935E+03 -0.27870435741E+03  0.30872714998E+03  0.00000000000E+00 0. -1.
         22    1    3    3    0    0 -0.25555813141E+02 -0.14824428683E+02 -0.22418189940E+02  0.37086904849E+02  0.00000000000E+00 0. -1.
</event>
<event>
 7    1  0.6888431E-006  0.2725776E+03  0.7818608E-02  0.1293027E+00
          2   -1    0    0  502    0  0.00000000000E+00  0.00000000000E+00  0.31842143345E+04  0.31842143345E+04  0.00000000000E+00 0. -1.
          1   -1    0    0  501    0 -0.00000000000E+00 -0.00000000000E+00 -0.17709220442E+03  0.17709220442E+03  0.00000000000E+00 0. -1.
         25    2    1    2    0    0  0.89226550719E+02  0.25130312158E+03  0.10841280005E+04  0.11234201289E+04  0.12499851337E+03 0.  0.
          2    1    1    2  501    0 -0.60510106535E+02 -0.26661327812E+03 -0.38527314001E+02  0.27609503253E+03  0.00000000000E+00 0. -1.
          1    1    1    2  502    0 -0.28716444185E+02  0.15310156538E+02  0.19615214436E+04  0.19617913775E+04  0.00000000000E+00 0. -1.
         22    1    3    3    0    0  0.41474216042E+02  0.50526565646E+01  0.11493629097E+03  0.12229468883E+03  0.00000000000E+00 0.  1.
         22    1    3    3    0    0  0.47752334678E+02  0.24625046502E+03  0.96919170948E+03  0.10011254401E+04  0.00000000000E+00 0.  1.
</event>
<event>
 7    1  0.6888431E-006  0.1065917E+03  0.7818608E-02  0.1308808E+00
          2   -1    0    0  502    0  0.00000000000E+00  0.00000000000E+00  0.24662841265E+04  0.24662841265E+04  0.00000000000E+00 0. -1.
          1   -1    0    0  501    0 -0.00000000000E+00 -0.00000000000E+00 -0.73942633477E+02  0.73942633477E+02  0.00000000000E+00 0. -1.
         25    2    1    2    0    0 -0.60857842292E+02  0.67041134708E+02  0.34649148263E+03  0.37930423625E+03  0.12496865764E+03 0.  0.
          2    1    1    2  501    0  0.57897592144E+02  0.42744897768E+02 -0.33000810650E+02  0.79172665515E+02  0.00000000000E+00 0. -1.
          1    1    1    2  502    0  0.29602501483E+01 -0.10978603248E+03  0.20788508210E+04  0.20817498582E+04  0.00000000000E+00 0. -1.
         22    1    3    3    0    0 -0.68922895498E+02  0.72476281057E+02  0.13719108933E+03  0.16977800751E+03  0.00000000000E+00 0. -1.
         22    1    3    3    0    0  0.80650532061E+01 -0.54351463484E+01  0.20930039329E+03  0.20952622875E+03  0.00000000000E+00 0. -1.
</event>
<event>
 7    1  0.6888431E-006  0.5414723E+02  0.7818608E-02  0.1516042E+00
          2   -1    0    0  502    0  0.00000000000E+00  0.00000000000E+00  0.12666005651E+03  0.12666005651E+03  0.00000000000E+00 0. -1.
          1   -1    0    0  501    0 -0.00000000000E+00 -0.00000000000E+00 -0.37586102812E+03  0.37586102812E+03  0.00000000000E+00 0. -1.
         25    2    1    2    0    0  0.59127707753E+02  0.49430343677E+02 -0.23040502398E+02  0.14865512467E+03  0.12501214596E+03 0.  0.
          2    1    1    2  501    0 -0.47692305198E+02 -0.23843561363E+02 -0.28433564605E+03  0.28929194770E+03  0.00000000000E+00 0. -1.
          1    1    1    2  502    0 -0.11435402555E+02 -0.25586782313E+02  0.58175176832E+02  0.64574012267E+02  0.00000000000E+00 0. -1.
         22    1    3    3    0    0  0.66691520167E+02  0.85418372054E+02 -0.71837960704E+01  0.10860784535E+03  0.00000000000E+00 0. -1.
         22    1    3    3    0    0 -0.75638124145E+01 -0.35988028377E+02 -0.15856706328E+02  0.40047279312E+02  0.00000000000E+00 0. -1.
</event>
<event>
 7    1  0.6888431E-006  0.5249544E+02  0.7818608E-02  0.1513840E+00
          2   -1    0    0  502    0  0.00000000000E+00  0.00000000000E+00  0.10300323879E+04  0.10300323879E+04  0.00000000000E+00 0. -1.
          1   -1    0    0  501    0 -0.00000000000E+00 -0.00000000000E+00 -0.35611188619E+03  0.35611188619E+03  0.00000000000E+00 0. -1.
         25    2    1    2    0    0 -0.62073461948E+02 -0.33500159998E+02  0.74175416968E+02  0.16156085716E+03  0.12499817073E+03 0.  0.
          2    1    1    2  501    0  0.33488168048E+02  0.40110068625E+02 -0.30999623387E+03  0.31436911429E+03  0.00000000000E+00 0. -1.
          1    1    1    2  502    0  0.28585293900E+02 -0.66099086268E+01  0.90974131861E+03  0.91021430263E+03  0.00000000000E+00 0. -1.
         22    1    3    3    0    0  0.31413785015E+02 -0.79931095045E+01  0.53378586585E+02  0.62449893469E+02  0.00000000000E+00 0. -1.
         22    1    3    3    0    0 -0.93487246963E+02 -0.25507050493E+02  0.20796830383E+02  0.99110963691E+02  0.00000000000E+00 0. -1.
</event>
<event>
 7    1  0.6888431E-006  0.6810332E+02  0.7818608E-02  0.1526194E+00
          2   -1    0    0  502    0  0.00000000000E+00  0.00000000000E+00  0.79593016276E+03  0.79593016276E+03  0.00000000000E+00 0. -1.
          1   -1    0    0  501    0 -0.00000000000E+00 -0.00000000000E+00 -0.17337404719E+03  0.17337404719E+03  0.00000000000E+00 0. -1.
         25    2    1    2    0    0 -0.62660803146E+02 -0.34291633070E+01  0.17774049693E+03  0.22617406932E+03  0.12499955989E+03 0.  0.
          2    1    1    2  501    0  0.66255405249E+02 -0.17080600551E+02 -0.14111595904E+03  0.15682869487E+03  0.00000000000E+00 0. -1.
          1    1    1    2  502    0 -0.35946021024E+01  0.20509763858E+02  0.58593157768E+03  0.58630144576E+03  0.00000000000E+00 0. -1.
         22    1    3    3    0    0  0.91116178914E+01  0.49726835569E+02  0.64271362047E+02  0.81771558232E+02  0.00000000000E+00 0.  1.
         22    1    3    3    0    0 -0.71772421038E+02 -0.53155998876E+02  0.11346913489E+03  0.14440251109E+03  0.00000000000E+00 0.  1.
</event>
<event>
 7    1  0.6888431E-006  0.3599080E+02  0.7818608E-02  0.1579099E+00
          2   -1    0    0  502    0  0.00000000000E+00  0.00000000000E+00  0.27601768425E+03  0.27601768425E+03  0.00000000000E+00 0. -1.
          1   -1    0    0  501    0 -0.00000000000E+00 -0.00000000000E+00 -0.20915988542E+04  0.20915988542E+04  0.00000000000E+00 0. -1.
         25    2    1    2    0    0 -0.52990914909E+02  0.27389115417E+02 -0.69855643769E+03  0.71215367311E+03  0.12499422699E+03 0.  0.
          2    1    1    2  501    0  0.17439934165E+02 -0.22008380251E+02 -0.13849003039E+04  0.13851849594E+04  0.00000000000E+00 0. -1.
          1    1    1    2  502    0  0.35550980745E+02 -0.53807351661E+01  0.26787557164E+03  0.27027790591E+03  0.00000000000E+00 0. -1.
         22    1    3    3    0    0 -0.18655199529E+02  0.64129020697E+02 -0.57334143510E+03  0.57721828537E+03  0.00000000000E+00 0. -1.
         22    1    3    3    0    0 -0.34335715380E+02 -0.36739905280E+02 -0.12521500258E+03  0.13493538773E+03  0.00000000000E+00 0. -1.
</event>
<event>
 7    1  0.6888431E-006  0.8459393E+02  0.7818608E-02  0.1379833E+00
          2   -1    0    0  502    0  0.00000000000E+00  0.00000000000E+00  0.56610525702E+03  0.56610525702E+03  0.00000000000E+00 0. -1.
          1   -1    0    0  501    0 -0.00000000000E+00 -0.00000000000E+00 -0.79762047518E+03  0.79762047518E+03  0.00000000000E+00 0. -1.
         25    2    1    2    0    0  0.54335485686E+02 -0.55761210366E+02  0.67409332626E+02  0.16195668650E+03  0.12499717033E+03 0.  0.
          2    1    1    2  501    0  0.30267998262E+02  0.38776157628E+02 -0.74540494069E+03  0.74702628316E+03  0.00000000000E+00 0. -1.
          1    1    1    2  502    0 -0.84603483948E+02  0.16985052738E+02  0.44648038991E+03  0.45474276255E+03  0.00000000000E+00 0. -1.
         22    1    3    3    0    0 -0.32947027106E+02 -0.22459195669E+02  0.54678836445E+02  0.67673460235E+02  0.00000000000E+00 0.  1.
         22    1    3    3    0    0  0.87282512792E+02 -0.33302014697E+02  0.12730496181E+02  0.94283226267E+02  0.00000000000E+00 0.  1.
</event>
<event>
 7    1  0.6888431E-006  0.1225286E+03  0.7818608E-02  0.1299597E+00
          2   -1    0    0  502    0  0.00000000000E+00  0.00000000000E+00  0.87556751974E+03  0.87556751974E+03  0.00000000000E+00 0. -1.
          1   -1    0    0  501    0 -0.00000000000E+00 -0.00000000000E+00 -0.22271328759E+03  0.22271328759E+03  0.00000000000E+00 0. -1.
         25    2    1    2    0    0  0.78590604923E+02 -0.10476474345E+03  0.16724959055E+03  0.24647568924E+03  0.12500282075E+03 0.  0.
          2    1    1    2  501    0 -0.11420489139E+03  0.46700181389E+02 -0.16031809189E+03  0.20230065434E+03  0.00000000000E+00 0. -1.
          1    1    1    2  502    0  0.35614286464E+02  0.58064562063E+02  0.64592273350E+03  0.64950446374E+03  0.00000000000E+00 0. -1.
         22    1    3    3    0    0  0.95036658534E+02 -0.46451341819E+02  0.14987525464E+03  0.18344559296E+03  0.00000000000E+00 0. -1.
         22    1    3    3    0    0 -0.16446053610E+02 -0.58313401633E+02  0.17374335906E+02  0.63030096284E+02  0.00000000000E+00 0. -1.
</event>
<event>
 7    1  0.6888431E-006  0.8531306E+02  0.7818608E-02  0.1449181E+00
          2   -1    0    0  502    0  0.00000000000E+00  0.00000000000E+00  0.13327885236E+04  0.13327885236E+04  0.00000000000E+00 0. -1.
          1   -1    0    0  501    0 -0.00000000000E+00 -0.00000000000E+00 -0.49767053658E+02  0.49767053658E+02  0.00000000000E+00 0. -1.
         25    2    1    2    0    0 -0.81831686632E+02  0.16288784697E+02  0.39817982869E+03  0.42559698685E+03  0.12499547911E+03 0.  0.
          2    1    1    2  501    0  0.75631330668E+01  0.27460865796E+02 -0.28067850806E+02  0.39988803194E+02  0.00000000000E+00 0. -1.
          1    1    1    2  502    0  0.74268553565E+02 -0.43749650493E+02  0.91290949201E+03  0.91696978716E+03  0.00000000000E+00 0. -1.
         22    1    3    3    0    0 -0.24587412939E+02 -0.70006778731E+01  0.31451320798E+01  0.25757372178E+02  0.00000000000E+00 0.  1.
         22    1    3    3    0    0 -0.57244273693E+02  0.23289462571E+02  0.39503469661E+03  0.39983961467E+03  0.00000000000E+00 0.  1.
</event>
<event>
 7    1  0.6888431E-006  0.1486634E+03  0.7818608E-02  0.1341383E+00
          2   -1    0    0  502    0  0.00000000000E+00  0.00000000000E+00  0.49114022186E+03  0.49114022186E+03  0.00000000000E+00 0. -1.
          1   -1    0    0  501    0 -0.00000000000E+00 -0.00000000000E+00 -0.13620272902E+04  0.13620272902E+04  0.00000000000E+00 0. -1.
         25    2    1    2    0    0 -0.69972321423E+02 -0.93706891542E+02 -0.33799748485E+03  0.37886682723E+03  0.12498266168E+03 0.  0.
          2    1    1    2  501    0 -0.37040650473E+02 -0.11065842805E+02 -0.99129634822E+03  0.99204985392E+03  0.00000000000E+00 0. -1.
          1    1    1    2  502    0  0.10701297190E+03  0.10477273435E+03  0.45840676471E+03  0.48225083094E+03  0.00000000000E+00 0. -1.
         22    1    3    3    0    0 -0.75929244341E+02 -0.80570410847E+01 -0.99736224138E+02  0.12560844105E+03  0.00000000000E+00 0. -1.
         22    1    3    3    0    0  0.59569229179E+01 -0.85649850457E+02 -0.23826126071E+03  0.25325838618E+03  0.00000000000E+00 0. -1.
</event>
<event>
 7    1  0.6888431E-006  0.1087172E+03  0.7818608E-02  0.1454712E+00
          2   -1    0    0  502    0  0.00000000000E+00  0.00000000000E+00  0.20827561291E+03  0.20827561291E+03  0.00000000000E+00 0. -1.
          1   -1    0    0  501    0 -0.00000000000E+00 -0.00000000000E+00 -0.20698023853E+03  0.20698023853E+03  0.00000000000E+00 0. -1.
         25    2    1    2    0    0 -0.68508882136E+02 -0.67010474701E+02  0.38761886912E+02  0.16220778662E+03  0.12500004605E+03 0.  0.
          2    1    1    2  501    0  0.89953674281E+02  0.66163070478E+02 -0.12226045761E+03  0.16558029746E+03  0.00000000000E+00 0. -1.
          1    1    1    2  502    0 -0.21444792145E+02  0.84740422316E+00  0.84793945085E+02  0.87467767361E+02  0.00000000000E+00 0. -1.
         22    1    3    3    0    0 -0.87075869573E+02 -0.77646352082E+02 -0.14291721064E+01  0.11667564264E+03  0.00000000000E+00 0. -1.
         22    1    3    3    0    0  0.18566987437E+02  0.10635877382E+02  0.40191059018E+02  0.45532143977E+02  0.00000000000E+00 0. -1.
</event>
<event>
 7    1  0.6888431E-006  0.4953706E+02  0.7818608E-02  0.1548093E+00
          2   -1    0    0  502    0  0.00000000000E+00  0.00000000000E+00  0.89460024680E+03  0.89460024680E+03  0.00000000000E+00 0. -1.
          1   -1    0    0  501    0 -0.00000000000E+00 -0.00000000000E+00 -0.11543602745E+04  0.11543602745E+04  0.00000000000E+00 0. -1.
         25    2    1    2    0    0  0.31747652664E+02  0.55257846266E+02  0.32839710373E+03  0.35711540290E+03  0.12500164088E+03 0.  0.
          2    1    1    2  501    0 -0.23750959924E+02 -0.71707334221E+01 -0.11387892146E+04  0.11390594378E+04  0.00000000000E+00 0. -1.
          1    1    1    2  502    0 -0.79966927403E+01 -0.48087112843E+02  0.55063208325E+03  0.55278568055E+03  0.00000000000E+00 0. -1.
         22    1    3    3    0    0 -0.10290822553E+01 -0.24097194197E+02  0.20713969256E+03  0.20853917141E+03  0.00000000000E+00 0. -1.
         22    1    3    3    0    0  0.32776734919E+02  0.79355040463E+02  0.12125741117E+03  0.14857623148E+03  0.00000000000E+00 0. -1.
</event>
<event>
 7    1  0.8669815E-006  0.9916999E+02  0.7818608E-02  0.1345161E+00
          2   -1    0    0  502    0  0.00000000000E+00  0.00000000000E+00  0.89260289670E+03  0.89260289670E+03  0.00000000000E+00 0. -1.
          1   -1    0    0  501    0 -0.00000000000E+00 -0.00000000000E+00 -0.16693446407E+04  0.16693446407E+04  0.00000000000E+00 0. -1.
         25    2    1    2    0    0  0.22725163800E+02 -0.14615371473E+03 -0.10296064699E+04  0.10476607439E+04  0.12500484018E+03 0.  0.
          2    1    1    2  501    0  0.14235341173E+02  0.54258253967E+02 -0.62667843149E+03  0.62918396320E+03  0.00000000000E+00 0. -1.
          1    1    1    2  502    0 -0.36960504973E+02  0.91895460762E+02  0.87954315735E+03  0.88510283034E+03  0.00000000000E+00 0. -1.
         22    1    3    3    0    0 -0.33632110869E+02 -0.44553143157E+02 -0.14359007862E+03  0.15405911893E+03  0.00000000000E+00 0. -1.
         22    1    3    3    0    0  0.56357274669E+02 -0.10160057157E+03 -0.88601639128E+03  0.89360162498E+03  0.00000000000E+00 0. -1.
</event>
<event>
 7    1  0.6888431E-006  0.9963312E+02  0.7818608E-02  0.1460331E+00
          2   -1    0    0  502    0  0.00000000000E+00  0.00000000000E+00  0.50629982343E+02  0.50629982343E+02  0.00000000000E+00 0. -1.
          1   -1    0    0  501    0 -0.00000000000E+00 -0.00000000000E+00 -0.10450431018E+04  0.10450431018E+04  0.00000000000E+00 0. -1.
         25    2    1    2    0    0 -0.18592400333E+02 -0.10174512477E+03 -0.42645516379E+03  0.45627535654E+03  0.12500178599E+03 0.  0.
          2    1    1    2  501    0  0.38511282397E+02  0.91327708135E+02 -0.59558798874E+03  0.60377886803E+03  0.00000000000E+00 0. -1.
          1    1    1    2  502    0 -0.19918882064E+02  0.10417416636E+02  0.27630033054E+02  0.35618859592E+02  0.00000000000E+00 0. -1.
         22    1    3    3    0    0  0.79865716165E+01 -0.12432323239E+03 -0.36419873764E+03  0.38491657790E+03  0.00000000000E+00 0. -1.
         22    1    3    3    0    0 -0.26578971950E+02  0.22578107617E+02 -0.62256426147E+02  0.71358778648E+02  0.00000000000E+00 0. -1.
</event>
<event>
 7    1  0.6888431E-006  0.1391724E+03  0.7818608E-02  0.1311071E+00
          2   -1    0    0  502    0  0.00000000000E+00  0.00000000000E+00  0.40167482260E+02  0.40167482260E+02  0.00000000000E+00 0. -1.
          1   -1    0    0  501    0 -0.00000000000E+00 -0.00000000000E+00 -0.15430161455E+04  0.15430161455E+04  0.00000000000E+00 0. -1.
         25    2    1    2    0    0  0.25126273686E+02  0.14983417587E+03 -0.11850528589E+04  0.12012729329E+04  0.12499908462E+03 0.  0.
          2    1    1    2  501    0  0.21452668985E+02 -0.12251551298E+03 -0.30047651536E+03  0.32520209749E+03  0.00000000000E+00 0. -1.
          1    1    1    2  502    0 -0.46578942671E+02 -0.27318662888E+02 -0.17319289014E+02  0.56708597358E+02  0.00000000000E+00 0. -1.
         22    1    3    3    0    0  0.75699392785E+02  0.87958418749E+02 -0.64847945146E+03  0.65878120834E+03  0.00000000000E+00 0. -1.
         22    1    3    3    0    0 -0.50573119100E+02  0.61875757123E+02 -0.53657340741E+03  0.54249172457E+03  0.00000000000E+00 0. -1.
</event>
<event>
 7    1  0.6888431E-006  0.1308309E+03  0.7818608E-02  0.1344717E+00
          2   -1    0    0  502    0  0.00000000000E+00  0.00000000000E+00  0.37790170956E+03  0.37790170956E+03  0.00000000000E+00 0. -1.
          1   -1    0    0  501    0 -0.00000000000E+00 -0.00000000000E+00 -0.17363398744E+03  0.17363398744E+03  0.00000000000E+00 0. -1.
         25    2    1    2    0    0 -0.10947581606E+03  0.60517171467E+02  0.47112998872E+02  0.18300854276E+03  0.12500083887E+03 0.  0.
          2    1    1    2  501    0  0.13256590371E+03 -0.24619279807E+02 -0.59738683815E+02  0.14747385568E+03  0.00000000000E+00 0. -1.
          1    1    1    2  502    0 -0.23090087653E+02 -0.35897891660E+02  0.21689340706E+03  0.22105329855E+03  0.00000000000E+00 0. -1.
         22    1    3    3    0    0 -0.43999129574E+01  0.44750014166E+02 -0.27924387937E+02  0.52931034786E+02  0.00000000000E+00 0.  1.
         22    1    3    3    0    0 -0.10507590310E+03  0.15767157301E+02  0.75037386809E+02  0.13007750798E+03  0.00000000000E+00 0.  1.
</event>
<event>
 7    1  0.6888431E-006  0.9187093E+02  0.7818608E-02  0.1374788E+00
          2   -1    0    0  502    0  0.00000000000E+00  0.00000000000E+00  0.13912841156E+04  0.13912841156E+04  0.00000000000E+00 0. -1.
          1   -1    0    0  501    0 -0.00000000000E+00 -0.00000000000E+00 -0.84935112965E+02  0.84935112965E+02  0.00000000000E+00 0. -1.
         25    2    1    2    0    0  0.81660113060E+02  0.64829434317E+02  0.37569020966E+03  0.40944032335E+03  0.12500806027E+03 0.  0.
          2    1    1    2  501    0 -0.89859532587E+02 -0.18342277271E+02 -0.36324563305E+02  0.98644050158E+02  0.00000000000E+00 0. -1.
          1    1    1    2  502    0  0.81994195273E+01 -0.46487157046E+02  0.96698335631E+03  0.96813485509E+03  0.00000000000E+00 0. -1.
         22    1    3    3    0    0 -0.15376544481E+02 -0.15150595264E+02  0.12161138382E+02  0.24776439287E+02  0.00000000000E+00 0.  1.
         22    1    3    3    0    0  0.97036657540E+02  0.79980029581E+02  0.36352907127E+03  0.38466388406E+03  0.00000000000E+00 0.  1.
</event>
<event>
 7    1  0.6888431E-006  0.1372788E+03  0.7818608E-02  0.1264413E+00
          2   -1    0    0  502    0  0.00000000000E+00  0.00000000000E+00  0.70001521831E+03  0.70001521831E+03  0.00000000000E+00 0. -1.
          1   -1    0    0  501    0 -0.00000000000E+00 -0.00000000000E+00 -0.24941333646E+03  0.24941333646E+03  0.00000000000E+00 0. -1.
         25    2    1    2    0    0 -0.85829290904E+02 -0.86785573275E+02  0.15880253323E+03  0.23609721136E+03  0.12500098298E+03 0.  0.
          2    1    1    2  501    0  0.14019524063E+03  0.21591634794E+02 -0.18269861288E+03  0.23129999425E+03  0.00000000000E+00 0. -1.
          1    1    1    2  502    0 -0.54365949730E+02  0.65193938481E+02  0.47449796150E+03  0.48203134916E+03  0.00000000000E+00 0. -1.
         22    1    3    3    0    0 -0.11393637520E+03 -0.78251728024E+02  0.10076929536E+03  0.17105344609E+03  0.00000000000E+00 0.  1.
         22    1    3    3    0    0  0.28107084298E+02 -0.85338452511E+01  0.58033237869E+02  0.65043765267E+02  0.00000000000E+00 0.  1.
</event>
<event>
 7    1  0.6888431E-006  0.7389360E+02  0.7818608E-02  0.1385811E+00
          2   -1    0    0  502    0  0.00000000000E+00  0.00000000000E+00  0.16927658294E+04  0.16927658294E+04  0.00000000000E+00 0. -1.
          1   -1    0    0  501    0 -0.00000000000E+00 -0.00000000000E+00 -0.36089653485E+03  0.36089653485E+03  0.00000000000E+00 0. -1.
         25    2    1    2    0    0  0.98923376626E+02 -0.68014687042E+02  0.10289357065E+03  0.20155447581E+03  0.12500115095E+03 0.  0.
          2    1    1    2  501    0 -0.52383281508E+02  0.11567351478E+02 -0.30838058783E+03  0.31301181887E+03  0.00000000000E+00 0. -1.
          1    1    1    2  502    0 -0.46540095118E+02  0.56447335563E+02  0.15373563118E+04  0.15390960696E+04  0.00000000000E+00 0. -1.
         22    1    3    3    0    0  0.23209972351E+02 -0.35606504013E+02 -0.25094168854E+02  0.49358314953E+02  0.00000000000E+00 0. -1.
         22    1    3    3    0    0  0.75713404274E+02 -0.32408183029E+02  0.12798773951E+03  0.15219616085E+03  0.00000000000E+00 0. -1.
</event>
<event>
 7    1  0.6888431E-006  0.1179869E+03  0.7818608E-02  0.1349211E+00
          2   -1    0    0  502    0  0.00000000000E+00  0.00000000000E+00  0.19397385250E+04  0.19397385250E+04  0.00000000000E+00 0. -1.
          1   -1    0    0  501    0 -0.00000000000E+00 -0.00000000000E+00 -0.54873671411E+03  0.54873671411E+03  0.00000000000E+00 0. -1.
         25    2    1    2    0    0  0.23450335046E+02  0.15736312282E+03 -0.65834182120E+01  0.20244174185E+03  0.12500498715E+03 0.  0.
          2    1    1    2  501    0  0.89522307360E+01 -0.44652097443E+02 -0.44118396594E+03  0.44352817728E+03  0.00000000000E+00 0. -1.
          1    1    1    2  502    0 -0.32402565782E+02 -0.11271102538E+03  0.18387691950E+04  0.18425053199E+04  0.00000000000E+00 0. -1.
         22    1    3    3    0    0 -0.44350688243E+02  0.10463823976E+03 -0.20349542059E+02  0.11545669591E+03  0.00000000000E+00 0.  1.
         22    1    3    3    0    0  0.67801023288E+02  0.52724883061E+02  0.13766123847E+02  0.86985045947E+02  0.00000000000E+00 0.  1.
</event>
<event>
 7    1  0.6888431E-006  0.3457631E+03  0.7818608E-02  0.1240021E+00
          2   -1    0    0  502    0  0.00000000000E+00  0.00000000000E+00  0.32054048521E+04  0.32054048521E+04  0.00000000000E+00 0. -1.
          1   -1    0    0  501    0 -0.00000000000E+00 -0.00000000000E+00 -0.11622921394E+03  0.11622921394E+03  0.00000000000E+00 0. -1.
         25    2    1    2    0    0  0.10601680252E+03  0.32123533209E+03  0.57637398059E+03  0.67989920389E+03  0.12499704374E+03 0.  0.
          2    1    1    2  501    0 -0.14894872149E+03 -0.31955025489E+03  0.41943281722E+03  0.54792515474E+03  0.00000000000E+00 0. -1.
          1    1    1    2  502    0  0.42931918976E+02 -0.16850771956E+01  0.20933688403E+04  0.20938097074E+04  0.00000000000E+00 0. -1.
         22    1    3    3    0    0  0.96359315562E+02  0.29159977126E+03  0.41916189530E+03  0.51962701889E+03  0.00000000000E+00 0. -1.
         22    1    3    3    0    0  0.96574869549E+01  0.29635560831E+02  0.15721208529E+03  0.16027218499E+03  0.00000000000E+00 0. -1.
</event>
<event>
 7    1  0.6888431E-006  0.5547980E+02  0.7818608E-02  0.1418518E+00
          2   -1    0    0  502    0  0.00000000000E+00  0.00000000000E+00  0.13472058163E+04  0.13472058163E+04  0.00000000000E+00 0. -1.
          1   -1    0    0  501    0 -0.00000000000E+00 -0.00000000000E+00 -0.14313452630E+02  0.14313452630E+02  0.00000000000E+00 0. -1.
         25    2    1    2    0    0  0.64345575944E+02 -0.22023225441E+02  0.55887851574E+03  0.57671135795E+03  0.12500167772E+03 0.  0.
          2    1    1    2  501    0 -0.16342307652E+02  0.52716866874E+02  0.18534231912E+03  0.19338540361E+03  0.00000000000E+00 0. -1.
          1    1    1    2  502    0 -0.48003268292E+02 -0.30693641434E+02  0.58867152880E+03  0.59142250736E+03  0.00000000000E+00 0. -1.
         22    1    3    3    0    0  0.30595548369E+02  0.43553899884E+02  0.37229001611E+03  0.37607563849E+03  0.00000000000E+00 0.  1.
         22    1    3    3    0    0  0.33750027575E+02 -0.65577125325E+02  0.18658849963E+03  0.20063571946E+03  0.00000000000E+00 0.  1.
</event>
<event>
 7    1  0.6888431E-006  0.1645728E+03  0.7818608E-02  0.1280371E+00
          2   -1    0    0  502    0  0.00000000000E+00  0.00000000000E+00  0.26142492403E+04  0.26142492403E+04  0.00000000000E+00 0. -1.
          1   -1    0    0  501    0 -0.00000000000E+00 -0.00000000000E+00 -0.13391268690E+04  0.13391268690E+04  0.00000000000E+00 0. -1.
         25    2    1    2    0    0 -0.10852722387E+03 -0.40028310012E+02  0.12750789475E+03  0.21275308283E+03  0.12500074841E+03 0.  0.
          2    1    1    2  501    0 -0.32619616369E+02 -0.51213834920E+02 -0.12929015739E+04  0.12943266111E+04  0.00000000000E+00 0. -1.
          1    1    1    2  502    0  0.14114684024E+03  0.91242144933E+02  0.24405160505E+04  0.24462964155E+04  0.00000000000E+00 0. -1.
         22    1    3    3    0    0  0.21498061105E+02 -0.32280664408E+02  0.18828685664E+02  0.43112960113E+02  0.00000000000E+00 0. -1.
         22    1    3    3    0    0 -0.13002528498E+03 -0.77476456040E+01  0.10867920909E+03  0.16964012271E+03  0.00000000000E+00 0. -1.
</event>
<event>
 7    1  0.6888431E-006  0.5575206E+02  0.7818608E-02  0.1461751E+00
          2   -1    0    0  502    0  0.00000000000E+00  0.00000000000E+00  0.11616127188E+02  0.11616127188E+02  0.00000000000E+00 0. -1.
          1   -1    0    0  501    0 -0.00000000000E+00 -0.00000000000E+00 -0.27791599999E+04  0.27791599999E+04  0.00000000000E+00 0. -1.
         25    2    1    2    0    0 -0.14721259505E+02  0.45313125231E+02 -0.60685143818E+03  0.62142096760E+03  0.12500142462E+03 0.  0.
          2    1    1    2  501    0 -0.37856668082E+02 -0.12152096542E+02 -0.19307278751E+04  0.19311372112E+04  0.00000000000E+00 0. -1.
          1    1    1    2  502    0  0.52577927586E+02 -0.33161028689E+02 -0.22996455941E+03  0.23821794827E+03  0.00000000000E+00 0. -1.
         22    1    3    3    0    0  0.55110280867E+02  0.24285691744E+02 -0.30450492549E+03  0.31040326597E+03  0.00000000000E+00 0. -1.
         22    1    3    3    0    0 -0.69831540372E+02  0.21027433486E+02 -0.30234651269E+03  0.31101770163E+03  0.00000000000E+00 0. -1.
</event>
<event>
 7    1  0.6888431E-006  0.4059499E+02  0.7818608E-02  0.1511772E+00
          2   -1    0    0  502    0  0.00000000000E+00  0.00000000000E+00  0.77013770005E+03  0.77013770005E+03  0.00000000000E+00 0. -1.
          1   -1    0    0  501    0 -0.00000000000E+00 -0.00000000000E+00 -0.11946898209E+04  0.11946898209E+04  0.00000000000E+00 0. -1.
         25    2    1    2    0    0 -0.21468101185E+02 -0.38377954374E+02 -0.30649903404E+03  0.33391637530E+03  0.12499896428E+03 0.  0.
          2    1    1    2  501    0  0.40771051982E+02  0.50967261713E+01 -0.87350966797E+03  0.87447549728E+03  0.00000000000E+00 0. -1.
          1    1    1    2  502    0 -0.19302950797E+02  0.33281228203E+02  0.75545658118E+03  0.75643564836E+03  0.00000000000E+00 0. -1.
         22    1    3    3    0    0 -0.15205395448E+02  0.14739074509E+02 -0.26596609504E+03  0.26680781113E+03  0.00000000000E+00 0.  1.
         22    1    3    3    0    0 -0.62627057374E+01 -0.53117028883E+02 -0.40532939003E+02  0.67108564168E+02  0.00000000000E+00 0.  1.
</event>
<event>
 7    1  0.6888431E-006  0.9411436E+02  0.7818608E-02  0.1421170E+00
          2   -1    0    0  502    0  0.00000000000E+00  0.00000000000E+00  0.43305339073E+03  0.43305339073E+03  0.00000000000E+00 0. -1.
          1   -1    0    0  501    0 -0.00000000000E+00 -0.00000000000E+00 -0.16402792625E+03  0.16402792625E+03  0.00000000000E+00 0. -1.
         25    2    1    2    0    0 -0.57545068461E+02 -0.28905799187E+02  0.20665475269E+03  0.24995625776E+03  0.12499985540E+03 0.  0.
          2    1    1    2  501    0  0.86662604827E+02  0.41882664425E+02 -0.12460487738E+03  0.15745138971E+03  0.00000000000E+00 0. -1.
          1    1    1    2  502    0 -0.29117536366E+02 -0.12976865238E+02  0.18697558918E+03  0.18967366951E+03  0.00000000000E+00 0. -1.
         22    1    3    3    0    0 -0.75284139044E+02 -0.13029670318E+02  0.49563606891E+02  0.91071537970E+02  0.00000000000E+00 0. -1.
         22    1    3    3    0    0  0.17739070583E+02 -0.15876128868E+02  0.15709114580E+03  0.15888471979E+03  0.00000000000E+00 0. -1.
</event>
<event>
 7    1  0.6888431E-006  0.7512716E+02  0.7818608E-02  0.1400333E+00
          2   -1    0    0  502    0  0.00000000000E+00  0.00000000000E+00  0.68249560356E+03  0.68249560356E+03  0.00000000000E+00 0. -1.
          1   -1    0    0  501    0 -0.00000000000E+00 -0.00000000000E+00 -0.30600323536E+03  0.30600323536E+03  0.00000000000E+00 0. -1.
         25    2    1    2    0    0 -0.64974698769E+02  0.39506967395E+02  0.36022091756E+02  0.15068214807E+03  0.12500002680E+03 0.  0.
          2    1    1    2  501    0  0.75670547097E+02  0.62371045315E+01 -0.24190955121E+03  0.25354519151E+03  0.00000000000E+00 0. -1.
          1    1    1    2  502    0 -0.10695848328E+02 -0.45744071927E+02  0.58237982765E+03  0.58427149934E+03  0.00000000000E+00 0. -1.
         22    1    3    3    0    0  0.17936861131E+02 -0.95153643096E+01 -0.28321326228E+02  0.34847821517E+02  0.00000000000E+00 0. -1.
         22    1    3    3    0    0 -0.82911559900E+02  0.49022331705E+02  0.64343417984E+02  0.11583432656E+03  0.00000000000E+00 0. -1.
</event>
<event>
 7    1  0.6888431E-006  0.4129382E+02  0.7818608E-02  0.1586965E+00
          2   -1    0    0  502    0  0.00000000000E+00  0.00000000000E+00  0.78954502045E+02  0.78954502045E+02  0.00000000000E+00 0. -1.
          1   -1    0    0  501    0 -0.00000000000E+00 -0.00000000000E+00 -0.20744197295E+04  0.20744197295E+04  0.00000000000E+00 0. -1.
         25    2    1    2    0    0  0.46589908417E+02  0.43483769597E+02 -0.47337252722E+03  0.49372789493E+03  0.12499690762E+03 0.  0.
          2    1    1    2  501    0 -0.19646067239E+02 -0.12561694458E+02 -0.15846615949E+04  0.15848331567E+04  0.00000000000E+00 0. -1.
          1    1    1    2  502    0 -0.26943841178E+02 -0.30922075140E+02  0.62568894689E+02  0.74813179928E+02  0.00000000000E+00 0. -1.
         22    1    3    3    0    0  0.68166413977E+02  0.74828370886E+02 -0.36913197005E+03  0.38275887501E+03  0.00000000000E+00 0.  1.
         22    1    3    3    0    0 -0.21576505560E+02 -0.31344601289E+02 -0.10424055717E+03  0.11096901992E+03  0.00000000000E+00 0.  1.
</event>
<event>
 7    1  0.6888431E-006  0.1225372E+03  0.7818608E-02  0.1266112E+00
          2   -1    0    0  502    0  0.00000000000E+00  0.00000000000E+00  0.78847008533E+03  0.78847008533E+03  0.00000000000E+00 0. -1.
          1   -1    0    0  501    0 -0.00000000000E+00 -0.00000000000E+00 -0.15338740047E+04  0.15338740047E+04  0.00000000000E+00 0. -1.
         25    2    1    2    0    0  0.49678709163E+02 -0.23584835031E+02 -0.29381443260E+02  0.13968612429E+03  0.12499890209E+03 0.  0.
          2    1    1    2  501    0 -0.48182652030E+02  0.11711184722E+03 -0.14435740991E+04  0.14491179843E+04  0.00000000000E+00 0. -1.
          1    1    1    2  502    0 -0.14960571325E+01 -0.93527012186E+02  0.72755162303E+03  0.73353998144E+03  0.00000000000E+00 0. -1.
         22    1    3    3    0    0 -0.25617743512E+02 -0.14302404647E+01 -0.52015728863E+02  0.57999572581E+02  0.00000000000E+00 0.  1.
         22    1    3    3    0    0  0.75296452675E+02 -0.22154594567E+02  0.22634285604E+02  0.81686551712E+02  0.00000000000E+00 0.  1.
</event>
<event>
 7    1  0.6888431E-006  0.5641679E+02  0.7818608E-02  0.1488752E+00
          2   -1    0    0  502    0  0.00000000000E+00  0.00000000000E+00  0.79768051089E+03  0.79768051089E+03  0.00000000000E+00 0. -1.
          1   -1    0    0  501    0 -0.00000000000E+00 -0.00000000000E+00 -0.81597368072E+02  0.81597368072E+02  0.00000000000E+00 0. -1.
         25    2    1    2    0    0  0.31831032804E+02 -0.28905969244E+01  0.74364114721E+02  0.14892016812E+03  0.12500249883E+03 0.  0.
          2    1    1    2  501    0  0.21273534865E+02  0.24473312927E+02 -0.37013538623E+02  0.49208824134E+02  0.00000000000E+00 0. -1.
          1    1    1    2  502    0 -0.53104567669E+02 -0.21582716002E+02  0.67873256672E+03  0.68114888671E+03  0.00000000000E+00 0. -1.
         22    1    3    3    0    0  0.61113613432E+02 -0.23007956235E+02  0.89092242745E+02  0.11046115840E+03  0.00000000000E+00 0.  1.
         22    1    3    3    0    0 -0.29282580628E+02  0.20117359311E+02 -0.14728128024E+02  0.38459009724E+02  0.00000000000E+00 0.  1.
</event>
<event>
 7    1  0.6888431E-006  0.5453521E+02  0.7818608E-02  0.1484595E+00
          2   -1    0    0  502    0  0.00000000000E+00  0.00000000000E+00  0.17597037316E+04  0.17597037316E+04  0.00000000000E+00 0. -1.
          1   -1    0    0  501    0 -0.00000000000E+00 -0.00000000000E+00 -0.14793727521E+03  0.14793727521E+03  0.00000000000E+00 0. -1.
         25    2    1    2    0    0  0.16259713048E+02  0.12338535043E+02  0.10451310126E+04  0.10527777069E+04  0.12500179589E+03 0.  0.
          2    1    1    2  501    0 -0.47282605897E+02 -0.27514186722E+02 -0.13848452411E+03  0.14889808161E+03  0.00000000000E+00 0. -1.
          1    1    1    2  502    0  0.31022892849E+02  0.15175651679E+02  0.70511996791E+03  0.70596521828E+03  0.00000000000E+00 0. -1.
         22    1    3    3    0    0  0.69681754175E+02  0.58557660835E+01  0.69890458490E+03  0.70239408857E+03  0.00000000000E+00 0. -1.
         22    1    3    3    0    0 -0.53422041127E+02  0.64827689593E+01  0.34622642765E+03  0.35038361831E+03  0.00000000000E+00 0. -1.
</event>
<event>
 7    1  0.6888431E-006  0.2004874E+03  0.7818608E-02  0.1205055E+00
          2   -1    0    0  502    0  0.00000000000E+00  0.00000000000E+00  0.20441632804E+03  0.20441632804E+03  0.00000000000E+00 0. -1.
          1   -1    0    0  501    0 -0.00000000000E+00 -0.00000000000E+00 -0.27104693896E+04  0.27104693896E+04  0.00000000000E+00 0. -1.
         25    2    1    2    0    0 -0.29803124890E+02  0.24277574061E+03 -0.64634505331E+03  0.70229325217E+03  0.12500239049E+03 0.  0.
          2    1    1    2  501    0 -0.60986282838E+02 -0.18652337600E+03 -0.20147716289E+04  0.20243060572E+04  0.00000000000E+00 0. -1.
          1    1    1    2  502    0  0.90789407727E+02 -0.56252364613E+02  0.15506362068E+03  0.18828640827E+03  0.00000000000E+00 0. -1.
         22    1    3    3    0    0 -0.60545333757E+02  0.59177964623E+02 -0.15085550478E+03  0.17298887901E+03  0.00000000000E+00 0. -1.
         22    1    3    3    0    0  0.30742208867E+02  0.18359777599E+03 -0.49548954852E+03  0.52930437316E+03  0.00000000000E+00 0. -1.
</event>
<event>
 7    1  0.6888431E-006  0.1333447E+03  0.7818608E-02  0.1301561E+00
          2   -1    0    0  502    0  0.00000000000E+00  0.00000000000E+00  0.30053058143E+03  0.30053058143E+03  0.00000000000E+00 0. -1.
          1   -1    0    0  501    0 -0.00000000000E+00 -0.00000000000E+00 -0.85321112182E+03  0.85321112182E+03  0.00000000000E+00 0. -1.
         25    2    1    2    0    0 -0.75501903252E+02 -0.94633606029E+02  0.30785483033E+02  0.17671649055E+03  0.12499966113E+03 0.  0.
          2    1    1    2  501    0  0.44209171335E+02 -0.42708588482E+02 -0.75362437947E+03  0.75612709229E+03  0.00000000000E+00 0. -1.
          1    1    1    2  502    0  0.31292731918E+02  0.13734219451E+03  0.17015835606E+03  0.22089812041E+03  0.00000000000E+00 0. -1.
         22    1    3    3    0    0 -0.31609837365E+02 -0.11942310730E+03  0.19585347884E+02  0.12507856022E+03  0.00000000000E+00 0. -1.
         22    1    3    3    0    0 -0.43892065888E+02  0.24789501275E+02  0.11200135149E+02  0.51637930329E+02  0.00000000000E+00 0. -1.
</event>
<event>
 7    1  0.6888431E-006  0.9295814E+02  0.7818608E-02  0.1473543E+00
          2   -1    0    0  502    0  0.00000000000E+00  0.00000000000E+00  0.15524102816E+04  0.15524102816E+04  0.00000000000E+00 0. -1.
          1   -1    0    0  501    0 -0.00000000000E+00 -0.00000000000E+00 -0.94181840548E+03  0.94181840548E+03  0.00000000000E+00 0. -1.
         25    2    1    2    0    0  0.27676640230E+02  0.66559154481E+02  0.25665598545E+03  0.29444244034E+03  0.12501175283E+03 0.  0.
          2    1    1    2  501    0 -0.42017738017E+02 -0.83121394210E+02 -0.92048101707E+03  0.92518104135E+03  0.00000000000E+00 0. -1.
          1    1    1    2  502    0  0.14341097787E+02  0.16562239729E+02  0.12744169078E+04  0.12746052054E+04  0.00000000000E+00 0. -1.
         22    1    3    3    0    0  0.75325863101E+02  0.20887031224E+02  0.14546481112E+03  0.16513710970E+03  0.00000000000E+00 0. -1.
         22    1    3    3    0    0 -0.47649222870E+02  0.45672123257E+02  0.11119117433E+03  0.12930533064E+03  0.00000000000E+00 0. -1.
</event>
<event>
 7    1  0.6888431E-006  0.7202149E+02  0.7818608E-02  0.1375072E+00
          2   -1    0    0  502    0  0.00000000000E+00  0.00000000000E+00  0.52738716119E+02  0.52738716119E+02  0.00000000000E+00 0. -1.
          1   -1    0    0  501    0 -0.00000000000E+00 -0.00000000000E+00 -0.16857704615E+04  0.16857704615E+04  0.00000000000E+00 0. -1.
         25    2    1    2    0    0  0.10612547000E+03 -0.32207600156E+02 -0.79829991706E+03  0.81560302773E+03  0.12500238549E+03 0.  0.
          2    1    1    2  501    0 -0.56944883252E+02 -0.19136453333E+02 -0.84838474400E+03  0.85050902255E+03  0.00000000000E+00 0. -1.
          1    1    1    2  502    0 -0.49180586749E+02  0.51344053490E+02  0.13652915675E+02  0.72397127348E+02  0.00000000000E+00 0. -1.
         22    1    3    3    0    0  0.12174121732E+03 -0.43001733478E+02 -0.49018084276E+03  0.50689972547E+03  0.00000000000E+00 0. -1.
         22    1    3    3    0    0 -0.15615747314E+02  0.10794133321E+02 -0.30811907430E+03  0.30870330226E+03  0.00000000000E+00 0. -1.
</event>
<event>
 7    1  0.6888431E-006  0.4922460E+02  0.7818608E-02  0.1554372E+00
          2   -1    0    0  502    0  0.00000000000E+00  0.00000000000E+00  0.58702646946E+03  0.58702646946E+03  0.00000000000E+00 0. -1.
          1   -1    0    0  501    0 -0.00000000000E+00 -0.00000000000E+00 -0.39567269023E+03  0.39567269023E+03  0.00000000000E+00 0. -1.
         25    2    1    2    0    0 -0.15428991283E+02 -0.32021551944E+02 -0.21423183698E+03  0.25056500764E+03  0.12499643802E+03 0.  0.
          2    1    1    2  501    0  0.35785213387E+01  0.52871212779E+02 -0.15871308560E+03  0.16732607238E+03  0.00000000000E+00 0. -1.
          1    1    1    2  502    0  0.11850469944E+02 -0.20849660835E+02  0.56429870181E+03  0.56480807967E+03  0.00000000000E+00 0. -1.
         22    1    3    3    0    0 -0.37642222480E+02 -0.46508615577E+02 -0.21585636525E+03  0.22399544338E+03  0.00000000000E+00 0. -1.
         22    1    3    3    0    0  0.22213231197E+02  0.14487063633E+02  0.16245282691E+01  0.26569564261E+02  0.00000000000E+00 0. -1.
</event>
<event>
 7    1  0.6888431E-006  0.4372300E+02  0.7818608E-02  0.1522592E+00
          2   -1    0    0  502    0  0.00000000000E+00  0.00000000000E+00  0.90676474299E+03  0.90676474299E+03  0.00000000000E+00 0. -1.
          1   -1    0    0  501    0 -0.00000000000E+00 -0.00000000000E+00 -0.51622500464E+03  0.51622500464E+03  0.00000000000E+00 0. -1.
         25    2    1    2    0    0  0.28267335912E+02 -0.19702779808E+02  0.45541205622E+03  0.47351049757E+03  0.12499923419E+03 0.  0.
          2    1    1    2  501    0  0.17144333560E+02  0.28453164123E+02 -0.50542014951E+03  0.50651064969E+03  0.00000000000E+00 0. -1.
          1    1    1    2  502    0 -0.45411669472E+02 -0.87503843156E+01  0.44054783164E+03  0.44296860037E+03  0.00000000000E+00 0. -1.
         22    1    3    3    0    0  0.28309292822E+02  0.82809813752E+01  0.44108915974E+03  0.44207424439E+03  0.00000000000E+00 0.  1.
         22    1    3    3    0    0 -0.41956910296E-01 -0.27983761183E+02  0.14322896476E+02  0.31436253176E+02  0.00000000000E+00 0.  1.
</event>
<event>
 7    1  0.6888431E-006  0.2410570E+02  0.7818608E-02  0.1694956E+00
          2   -1    0    0  502    0  0.00000000000E+00  0.00000000000E+00  0.12649520253E+04  0.12649520253E+04  0.00000000000E+00 0. -1.
          1   -1    0    0  501    0 -0.00000000000E+00 -0.00000000000E+00 -0.19231112083E+02  0.19231112083E+02  0.00000000000E+00 0. -1.
         25    2    1    2    0    0 -0.65304055656E+01  0.32138369319E+01  0.66692687143E+03  0.67858159056E+03  0.12501419228E+03 0.  0.
          2    1    1    2  501    0  0.20688037473E+02  0.13024988714E+02 -0.18883847857E+01  0.24519608940E+02  0.00000000000E+00 0. -1.
          1    1    1    2  502    0 -0.14157631907E+02 -0.16238825646E+02  0.58068242656E+03  0.58108193786E+03  0.00000000000E+00 0. -1.
         22    1    3    3    0    0  0.34637283165E+02 -0.23805062638E+02  0.87546117264E+02  0.97112023150E+02  0.00000000000E+00 0. -1.
         22    1    3    3    0    0 -0.41167688731E+02  0.27018899569E+02  0.57938075417E+03  0.58146956741E+03  0.00000000000E+00 0. -1.
</event>
<event>
 7    1  0.6888431E-006  0.3858219E+02  0.7818608E-02  0.1532016E+00
          2   -1    0    0  502    0  0.00000000000E+00  0.00000000000E+00  0.12079193848E+04  0.12079193848E+04  0.00000000000E+00 0. -1.
          1   -1    0    0  501    0 -0.00000000000E+00 -0.00000000000E+00 -0.15992760565E+02  0.15992760565E+02  0.00000000000E+00 0. -1.
         25    2    1    2    0    0  0.11821637814E+01 -0.62799600354E+01  0.42480503761E+03  0.44286018121E+03  0.12499993888E+03 0.  0.
          2    1    1    2  501    0 -0.39759881231E+02  0.56925960115E+01  0.56163473673E+02  0.69047734068E+02  0.00000000000E+00 0. -1.
          1    1    1    2  502    0  0.38577717450E+02  0.58736402387E+00  0.71095811297E+03  0.71200423010E+03  0.00000000000E+00 0. -1.
         22    1    3    3    0    0  0.63561136352E+01  0.25088561644E+02  0.11477926696E+02  0.28312168888E+02  0.00000000000E+00 0. -1.
         22    1    3    3    0    0 -0.51739498538E+01 -0.31368521679E+02  0.41332711091E+03  0.41454801233E+03  0.00000000000E+00 0. -1.
</event>
<event>
 7    1  0.6888431E-006  0.5964632E+02  0.7818608E-02  0.1477379E+00
          2   -1    0    0  502    0  0.00000000000E+00  0.00000000000E+00  0.19047603421E+03  0.19047603421E+03  0.00000000000E+00 0. -1.
          1   -1    0    0  501    0 -0.00000000000E+00 -0.00000000000E+00 -0.65223791487E+03  0.65223791487E+03  0.00000000000E+00 0. -1.
         25    2    1    2    0    0 -0.28064183047E+02 -0.20732404975E+02 -0.11859817933E+03  0.17580956441E+03  0.12500417518E+03 0.  0.
          2    1    1    2  501    0  0.16313556265E+00 -0.33225037174E+02 -0.49876298479E+03  0.49986842739E+03  0.00000000000E+00 0. -1.
          1    1    1    2  502    0  0.27901047484E+02  0.53957442149E+02  0.15559928345E+03  0.16703595728E+03  0.00000000000E+00 0. -1.
         22    1    3    3    0    0 -0.23826112729E+02  0.19990693783E+02 -0.12970904508E+03  0.13338571086E+03  0.00000000000E+00 0. -1.
         22    1    3    3    0    0 -0.42380703176E+01 -0.40723098758E+02  0.11110865753E+02  0.42423853552E+02  0.00000000000E+00 0. -1.
</event>
<event>
 7    1  0.6888431E-006  0.4321670E+02  0.7818608E-02  0.1562365E+00
          2   -1    0    0  502    0  0.00000000000E+00  0.00000000000E+00  0.15230384823E+04  0.15230384823E+04  0.00000000000E+00 0. -1.
          1   -1    0    0  501    0 -0.00000000000E+00 -0.00000000000E+00 -0.22615882572E+02  0.22615882572E+02  0.00000000000E+00 0. -1.
         25    2    1    2    0    0  0.51156550186E+02  0.37676247375E+02  0.54292343165E+03  0.56073647955E+03  0.12499221823E+03 0.  0.
          2    1    1    2  501    0 -0.39603704093E+02 -0.14424444962E+02  0.19296344992E+02  0.46355872556E+02  0.00000000000E+00 0. -1.
          1    1    1    2  502    0 -0.11552846093E+02 -0.23251802413E+02  0.93820282306E+03  0.93856201274E+03  0.00000000000E+00 0. -1.
         22    1    3    3    0    0  0.46721218536E+01  0.26806745901E+02  0.15819460249E+02  0.31475159587E+02  0.00000000000E+00 0. -1.
         22    1    3    3    0    0  0.46484428332E+02  0.10869501474E+02  0.52710397140E+03  0.52926131996E+03  0.00000000000E+00 0. -1.
</event>
<event>
 7    1  0.6888431E-006  0.1315475E+03  0.7818608E-02  0.1241671E+00
          2   -1    0    0  502    0  0.00000000000E+00  0.00000000000E+00  0.20423160946E+03  0.20423160946E+03  0.00000000000E+00 0. -1.
          1   -1    0    0  501    0 -0.00000000000E+00 -0.00000000000E+00 -0.14548020757E+04  0.14548020757E+04  0.00000000000E+00 0. -1.
         25    2    1    2    0    0 -0.12230057504E+03 -0.18632666377E+03 -0.10889035529E+03  0.27776730170E+03  0.12499003215E+03 0.  0.
          2    1    1    2  501    0  0.36744442010E+02  0.10480196140E+03 -0.12292014586E+04  0.12342081797E+04  0.00000000000E+00 0. -1.
          1    1    1    2  502    0  0.85556133026E+02  0.81524702367E+02  0.87521347620E+02  0.14705820373E+03  0.00000000000E+00 0. -1.
         22    1    3    3    0    0 -0.11610988549E+02 -0.36211495001E+02  0.27310558491E+02  0.46818308709E+02  0.00000000000E+00 0.  1.
         22    1    3    3    0    0 -0.11068958649E+03 -0.15011516877E+03 -0.13620091378E+03  0.23094899299E+03  0.00000000000E+00 0.  1.
</event>
<event>
 7    1  0.6888431E-006  0.9962250E+02  0.7818608E-02  0.1391114E+00
          2   -1    0    0  502    0  0.00000000000E+00  0.00000000000E+00  0.84576484682E+03  0.84576484682E+03  0.00000000000E+00 0. -1.
          1   -1    0    0  501    0 -0.00000000000E+00 -0.00000000000E+00 -0.48692128250E+03  0.48692128250E+03  0.00000000000E+00 0. -1.
         25    2    1    2    0    0 -0.11160897283E+03  0.29640849864E+02 -0.40494681500E+03  0.43925165800E+03  0.12499981310E+03 0.  0.
          2    1    1    2  501    0  0.12266703077E+02 -0.36100049492E+02 -0.55930954826E+02  0.67690156488E+02  0.00000000000E+00 0. -1.
          1    1    1    2  502    0  0.99342269753E+02  0.64591996274E+01  0.81972133415E+03  0.82574431484E+03  0.00000000000E+00 0. -1.
         22    1    3    3    0    0 -0.10870131415E+03 -0.26351581301E+02 -0.30165658043E+03  0.32172515297E+03  0.00000000000E+00 0. -1.
         22    1    3    3    0    0 -0.29076586834E+01  0.55992431165E+02 -0.10329023457E+03  0.11752650503E+03  0.00000000000E+00 0. -1.
</event>
<event>
 7    1  0.6888431E-006  0.9316952E+02  0.7818608E-02  0.1298604E+00
          2   -1    0    0  502    0  0.00000000000E+00  0.00000000000E+00  0.35685692137E+02  0.35685692137E+02  0.00000000000E+00 0. -1.
          1   -1    0    0  501    0 -0.00000000000E+00 -0.00000000000E+00 -0.11169823679E+04  0.11169823679E+04  0.00000000000E+00 0. -1.
         25    2    1    2    0    0  0.98058645956E+01 -0.29729861149E+02 -0.48046910175E+03  0.49745091823E+03  0.12500735451E+03 0.  0.
          2    1    1    2  501    0 -0.50374498761E+02 -0.75070312189E+02 -0.48678574312E+03  0.49510958545E+03  0.00000000000E+00 0. -1.
          1    1    1    2  502    0  0.40568634166E+02  0.10480017334E+03 -0.11404183087E+03  0.16010755634E+03  0.00000000000E+00 0. -1.
         22    1    3    3    0    0  0.28015083315E+02 -0.59256704669E+02 -0.13320061373E+03  0.14845405161E+03  0.00000000000E+00 0.  1.
         22    1    3    3    0    0 -0.18209218719E+02  0.29526843520E+02 -0.34726848802E+03  0.34899686662E+03  0.00000000000E+00 0.  1.
</event>
<event>
 7    1  0.6888431E-006  0.5963386E+02  0.7818608E-02  0.1447822E+00
          2   -1    0    0  502    0  0.00000000000E+00  0.00000000000E+00  0.59479670124E+02  0.59479670124E+02  0.00000000000E+00 0. -1.
          1   -1    0    0  501    0 -0.00000000000E+00 -0.00000000000E+00 -0.12179110909E+04  0.12179110909E+04  0.00000000000E+00 0. -1.
         25    2    1    2    0    0 -0.78719770164E+01 -0.97831589337E+02 -0.28750517874E+03  0.32850752662E+03  0.12499991738E+03 0.  0.
          2    1    1    2  501    0  0.26626457206E+01  0.41073532918E+02 -0.88833441286E+03  0.88928744164E+03  0.00000000000E+00 0. -1.
          1    1    1    2  502    0  0.52093312958E+01  0.56758056419E+02  0.17408170845E+02  0.59595792747E+02  0.00000000000E+00 0. -1.
         22    1    3    3    0    0 -0.26347197440E+02 -0.26918501660E+02 -0.66494536801E+01  0.38249127818E+02  0.00000000000E+00 0.  1.
         22    1    3    3    0    0  0.18475220423E+02 -0.70913087677E+02 -0.28085572506E+03  0.29025839880E+03  0.00000000000E+00 0.  1.
</event>
<event>
 7    1  0.6888431E-006  0.8963771E+02  0.7818608E-02  0.1323353E+00
          2   -1    0    0  502    0  0.00000000000E+00  0.00000000000E+00  0.25659942376E+04  0.25659942376E+04  0.00000000000E+00 0. -1.
          1   -1    0    0  501    0 -0.00000000000E+00 -0.00000000000E+00 -0.18603082976E+03  0.18603082976E+03  0.00000000000E+00 0. -1.
         25    2    1    2    0    0  0.13317261123E+03  0.18183907146E+01  0.14600076486E+03  0.23383776527E+03  0.12500250478E+03 0.  0.
          2    1    1    2  501    0 -0.73746903172E+02 -0.47722899848E+02 -0.12788448834E+03  0.15514677971E+03  0.00000000000E+00 0. -1.
          1    1    1    2  502    0 -0.59425708060E+02  0.45904509134E+02  0.23618471313E+04  0.23630405224E+04  0.00000000000E+00 0. -1.
         22    1    3    3    0    0  0.37551875562E+02 -0.32273429240E+02  0.11885219951E+03  0.12875388507E+03  0.00000000000E+00 0.  1.
         22    1    3    3    0    0  0.95620735670E+02  0.34091819954E+02  0.27148565357E+02  0.10508388020E+03  0.00000000000E+00 0.  1.
</event>
<event>
 7    1  0.7351355E-006  0.1417381E+03  0.7818608E-02  0.1343965E+00
          2   -1    0    0  502    0  0.00000000000E+00  0.00000000000E+00  0.16455548685E+04  0.16455548685E+04  0.00000000000E+00 0. -1.
          1   -1    0    0  501    0 -0.00000000000E+00 -0.00000000000E+00 -0.80965286277E+03  0.80965286277E+03  0.00000000000E+00 0. -1.
         25    2    1    2    0    0  0.11412846111E+01 -0.14878756762E+03 -0.19506740768E+03  0.27534634085E+03  0.12500108429E+03 0.  0.
          2    1    1    2  501    0  0.37638092831E+02  0.12481871310E+02 -0.57062918175E+03  0.57200532008E+03  0.00000000000E+00 0. -1.
          1    1    1    2  502    0 -0.38779377443E+02  0.13630569631E+03  0.16015985951E+04  0.16078560703E+04  0.00000000000E+00 0. -1.
         22    1    3    3    0    0 -0.44720425925E+02 -0.64155316869E+02 -0.29019147782E+02  0.83414220103E+02  0.00000000000E+00 0.  1.
         22    1    3    3    0    0  0.45861710536E+02 -0.84632250751E+02 -0.16604825989E+03  0.19193212075E+03  0.00000000000E+00 0.  1.
</event>
<event>
 7    1  0.6888431E-006  0.1017245E+03  0.7818608E-02  0.1339946E+00
          2   -1    0    0  502    0  0.00000000000E+00  0.00000000000E+00  0.13038851738E+04  0.13038851738E+04  0.00000000000E+00 0. -1.
          1   -1    0    0  501    0 -0.00000000000E+00 -0.00000000000E+00 -0.26926018882E+03  0.26926018882E+03  0.00000000000E+00 0. -1.
         25    2    1    2    0    0 -0.51815411883E+02 -0.25335361944E+02  0.18496359524E+03  0.23057317318E+03  0.12500295658E+03 0.  0.
          2    1    1    2  501    0  0.10431232545E+03  0.26137534547E+01 -0.23462308786E+03  0.25677984014E+03  0.00000000000E+00 0. -1.
          1    1    1    2  502    0 -0.52496913562E+02  0.22721608490E+02  0.10842844776E+04  0.10857923493E+04  0.00000000000E+00 0. -1.
         22    1    3    3    0    0  0.25388043203E+02  0.31747287624E+02  0.68279146039E+02  0.79463732564E+02  0.00000000000E+00 0.  1.
         22    1    3    3    0    0 -0.77203455086E+02 -0.57082649568E+02  0.11668444920E+03  0.15110944062E+03  0.00000000000E+00 0.  1.
</event>
<event>
 7    1  0.6888431E-006  0.7586212E+02  0.7818608E-02  0.1489077E+00
          2   -1    0    0  502    0  0.00000000000E+00  0.00000000000E+00  0.92805954308E+03  0.92805954308E+03  0.00000000000E+00 0. -1.
          1   -1    0    0  501    0 -0.00000000000E+00 -0.00000000000E+00 -0.98184332714E+02  0.98184332714E+02  0.00000000000E+00 0. -1.
         25    2    1    2    0    0 -0.53459426095E+01 -0.92374705661E+02  0.95101116311E+02  0.18229494949E+03  0.12500224374E+03 0.  0.
          2    1    1    2  501    0 -0.83981985648E+01  0.72626163505E+02 -0.29833529522E+02  0.78962832069E+02  0.00000000000E+00 0. -1.
          1    1    1    2  502    0  0.13744141174E+02  0.19748542156E+02  0.76460762358E+03  0.76498609423E+03  0.00000000000E+00 0. -1.
         22    1    3    3    0    0  0.17387113490E+01  0.31448300897E+02  0.19059618472E+02  0.36814233698E+02  0.00000000000E+00 0. -1.
         22    1    3    3    0    0 -0.70846539585E+01 -0.12382300656E+03  0.76041497838E+02  0.14548071580E+03  0.00000000000E+00 0. -1.
</event>
<event>
 7    1  0.6888431E-006  0.5217068E+02  0.7818608E-02  0.1440273E+00
          2   -1    0    0  502    0  0.00000000000E+00  0.00000000000E+00  0.10187837246E+04  0.10187837246E+04  0.00000000000E+00 0. -1.
          1   -1    0    0  501    0 -0.00000000000E+00 -0.00000000000E+00 -0.41627268016E+03  0.41627268016E+03  0.00000000000E+00 0. -1.
         25    2    1    2    0    0 -0.24389626489E+02 -0.32245769240E+02 -0.71519432738E+02  0.14958326235E+03  0.12500191839E+03 0.  0.
          2    1    1    2  501    0 -0.22350348221E+02  0.49323090021E+02 -0.30268508388E+03  0.30749075641E+03  0.00000000000E+00 0. -1.
          1    1    1    2  502    0  0.46739974710E+02 -0.17077320781E+02  0.97671556102E+03  0.97798238597E+03  0.00000000000E+00 0. -1.
         22    1    3    3    0    0 -0.13443555671E+02 -0.34176928087E+02 -0.10661835342E+03  0.11276641738E+03  0.00000000000E+00 0.  1.
         22    1    3    3    0    0 -0.10946070818E+02  0.19311588464E+01  0.35098920680E+02  0.36816844973E+02  0.00000000000E+00 0.  1.
</event>
<event>
 7    1  0.6888431E-006  0.9245928E+02  0.7818608E-02  0.1417389E+00
          2   -1    0    0  502    0  0.00000000000E+00  0.00000000000E+00  0.43844163917E+03  0.43844163917E+03  0.00000000000E+00 0. -1.
          1   -1    0    0  501    0 -0.00000000000E+00 -0.00000000000E+00 -0.68007758092E+02  0.68007758092E+02  0.00000000000E+00 0. -1.
         25    2    1    2    0    0  0.28397056683E+02  0.91015413160E+02  0.29976928009E+03  0.33849313267E+03  0.12500312523E+03 0.  0.
          2    1    1    2  501    0  0.49691774356E+01 -0.92674905886E+02  0.34207961471E+01  0.92871054434E+02  0.00000000000E+00 0. -1.
          1    1    1    2  502    0 -0.33366234118E+02  0.16594927264E+01  0.67243804841E+02  0.75085210160E+02  0.00000000000E+00 0. -1.
         22    1    3    3    0    0  0.77040315979E+02  0.70243414885E+02  0.20340664306E+03  0.22856861128E+03  0.00000000000E+00 0. -1.
         22    1    3    3    0    0 -0.48643259297E+02  0.20771998275E+02  0.96362637025E+02  0.10992452139E+03  0.00000000000E+00 0. -1.
</event>
<event>
 7    1  0.6888431E-006  0.1820309E+03  0.7818608E-02  0.1173751E+00
          2   -1    0    0  502    0  0.00000000000E+00  0.00000000000E+00  0.13718489049E+04  0.13718489049E+04  0.00000000000E+00 0. -1.
          1   -1    0    0  501    0 -0.00000000000E+00 -0.00000000000E+00 -0.36564283969E+03  0.36564283969E+03  0.00000000000E+00 0. -1.
         25    2    1    2    0    0 -0.26559824365E+02 -0.44044049349E+02  0.15192643626E+03  0.20335237607E+03  0.12500097705E+03 0.  0.
          2    1    1    2  501    0  0.18624003989E+03  0.90502594016E+02 -0.30188557726E+03  0.36607509304E+03  0.00000000000E+00 0. -1.
          1    1    1    2  502    0 -0.15968021552E+03 -0.46458544667E+02  0.11561652062E+04  0.11680642755E+04  0.00000000000E+00 0. -1.
         22    1    3    3    0    0  0.40876831371E+01 -0.84361990895E+02  0.91937016858E+02  0.12484418180E+03  0.00000000000E+00 0.  1.
         22    1    3    3    0    0 -0.30647507502E+02  0.40317941546E+02  0.59989419405E+02  0.78508194267E+02  0.00000000000E+00 0.  1.
</event>
<event>
 7    1  0.6888431E-006  0.7344472E+02  0.7818608E-02  0.1445533E+00
          2   -1    0    0  502    0  0.00000000000E+00  0.00000000000E+00  0.22322101584E+04  0.22322101584E+04  0.00000000000E+00 0. -1.
          1   -1    0    0  501    0 -0.00000000000E+00 -0.00000000000E+00 -0.12214618030E+04  0.12214618030E+04  0.00000000000E+00 0. -1.
         25    2    1    2    0    0 -0.25787385504E+02  0.50872195063E+02  0.15370371937E+04  0.15431659461E+04  0.12499933181E+03 0.  0.
          2    1    1    2  501    0 -0.26176431028E+02  0.21683369014E+02 -0.12152818949E+04  0.12157571542E+04  0.00000000000E+00 0. -1.
          1    1    1    2  502    0  0.51963816532E+02 -0.72555564078E+02  0.68899305648E+03  0.69474886109E+03  0.00000000000E+00 0. -1.
         22    1    3    3    0    0 -0.73965015490E+01 -0.12092140673E+02  0.18963664011E+02  0.23675908725E+02  0.00000000000E+00 0.  1.
         22    1    3    3    0    0 -0.18390883955E+02  0.62964335736E+02  0.15180735297E+04  0.15194900374E+04  0.00000000000E+00 0.  1.
</event>
<event>
 7    1  0.6888431E-006  0.8680790E+02  0.7818608E-02  0.1313440E+00
          2   -1    0    0  502    0  0.00000000000E+00  0.00000000000E+00  0.80216860061E+03  0.80216860061E+03  0.00000000000E+00 0. -1.
          1   -1    0    0  501    0 -0.00000000000E+00 -0.00000000000E+00 -0.59643195512E+03  0.59643195512E+03  0.00000000000E+00 0. -1.
         25    2    1    2    0    0 -0.57926425644E+02  0.26132085987E+02  0.51720329976E+01  0.14031247576E+03  0.12498993648E+03 0.  0.
          2    1    1    2  501    0  0.56601755743E+02  0.63061554672E+02 -0.52270967987E+03  0.52953368907E+03  0.00000000000E+00 0. -1.
          1    1    1    2  502    0  0.13246699004E+01 -0.89193640658E+02  0.72327429236E+03  0.72875439091E+03  0.00000000000E+00 0. -1.
         22    1    3    3    0    0  0.13140642204E+02  0.58156675027E+02 -0.11191607134E+02  0.60664053590E+02  0.00000000000E+00 0. -1.
         22    1    3    3    0    0 -0.71067067847E+02 -0.32024589041E+02  0.16363640132E+02  0.79648422169E+02  0.00000000000E+00 0. -1.
</event>
<event>
 7    1  0.6888431E-006  0.9480512E+02  0.7818608E-02  0.1314890E+00
          2   -1    0    0  502    0  0.00000000000E+00  0.00000000000E+00  0.22937416114E+04  0.22937416114E+04  0.00000000000E+00 0. -1.
          1   -1    0    0  501    0 -0.00000000000E+00 -0.00000000000E+00 -0.36815279690E+02  0.36815279690E+02  0.00000000000E+00 0. -1.
         25    2    1    2    0    0  0.29816935556E+02 -0.16026503168E+02  0.17957393060E+04  0.18004026481E+04  0.12499656626E+03 0.  0.
          2    1    1    2  501    0 -0.94611279663E+02 -0.24795661563E+02  0.46216073868E+02  0.10817598881E+03  0.00000000000E+00 0. -1.
          1    1    1    2  502    0  0.64794344106E+02  0.40822164731E+02  0.41497095188E+03  0.42197825425E+03  0.00000000000E+00 0. -1.
         22    1    3    3    0    0 -0.11709191225E+01 -0.45795355486E+02  0.15665670059E+04  0.15672366668E+04  0.00000000000E+00 0. -1.
         22    1    3    3    0    0  0.30987854679E+02  0.29768852318E+02  0.22917230008E+03  0.23316598129E+03  0.00000000000E+00 0. -1.
</event>
<event>
 7    1  0.6888431E-006  0.9567125E+02  0.7818608E-02  0.1290007E+00
          2   -1    0    0  502    0  0.00000000000E+00  0.00000000000E+00  0.10739473630E+03  0.10739473630E+03  0.00000000000E+00 0. -1.
          1   -1    0    0  501    0 -0.00000000000E+00 -0.00000000000E+00 -0.60539708642E+03  0.60539708642E+03  0.00000000000E+00 0. -1.
         25    2    1    2    0    0  0.39902736255E+02  0.54879922272E+02 -0.42352001787E+02  0.14839836413E+03  0.12499739274E+03 0.  0.
          2    1    1    2  501    0 -0.10089330733E+03  0.18439173109E+02 -0.45764984263E+03  0.46900196272E+03  0.00000000000E+00 0. -1.
          1    1    1    2  502    0  0.60990571074E+02 -0.73319095382E+02  0.19994943071E+01  0.95391495874E+02  0.00000000000E+00 0. -1.
         22    1    3    3    0    0  0.70666312798E+02 -0.89460987365E+01 -0.24559804685E+02  0.75345500551E+02  0.00000000000E+00 0. -1.
         22    1    3    3    0    0 -0.30763576543E+02  0.63826021009E+02 -0.17792197102E+02  0.73052863580E+02  0.00000000000E+00 0. -1.
</event>
<event>
 7    1  0.6888431E-006  0.1339754E+03  0.7818608E-02  0.1294643E+00
          2   -1    0    0  502    0  0.00000000000E+00  0.00000000000E+00  0.31144280322E+04  0.31144280322E+04  0.00000000000E+00 0. -1.
          1   -1    0    0  501    0 -0.00000000000E+00 -0.00000000000E+00 -0.27807780921E+03  0.27807780921E+03  0.00000000000E+00 0. -1.
         25    2    1    2    0    0 -0.18714427446E+03  0.49720210409E+02  0.11030096559E+03  0.25551191819E+03  0.12499983415E+03 0.  0.
          2    1    1    2  501    0  0.65163883611E+02  0.27313703268E+01 -0.19875228986E+03  0.20917998192E+03  0.00000000000E+00 0. -1.
          1    1    1    2  502    0  0.12198039085E+03 -0.52451580735E+02  0.29248015473E+04  0.29278139413E+04  0.00000000000E+00 0. -1.
         22    1    3    3    0    0 -0.13327780555E+03  0.84462525827E+00  0.12336685839E+03  0.18161241311E+03  0.00000000000E+00 0.  1.
         22    1    3    3    0    0 -0.53866468910E+02  0.48875585150E+02 -0.13065892796E+02  0.73899505081E+02  0.00000000000E+00 0.  1.
</event>
<event>
 7    1  0.6888431E-006  0.6413000E+02  0.7818608E-02  0.1423658E+00
          2   -1    0    0  502    0  0.00000000000E+00  0.00000000000E+00  0.81459200619E+02  0.81459200619E+02  0.00000000000E+00 0. -1.
          1   -1    0    0  501    0 -0.00000000000E+00 -0.00000000000E+00 -0.65156368396E+03  0.65156368396E+03  0.00000000000E+00 0. -1.
         25    2    1    2    0    0  0.22474658238E+02  0.96070026321E+02 -0.44293089311E+03  0.47068651367E+03  0.12499383129E+03 0.  0.
          2    1    1    2  501    0 -0.21231843788E+02 -0.50187083157E+02 -0.18249243267E+03  0.19045477807E+03  0.00000000000E+00 0. -1.
          1    1    1    2  502    0 -0.12428144502E+01 -0.45882943164E+02  0.55318842436E+02  0.71881592843E+02  0.00000000000E+00 0. -1.
         22    1    3    3    0    0  0.16764118927E+01 -0.29065186008E+02 -0.12583055928E+03  0.12915465553E+03  0.00000000000E+00 0.  1.
         22    1    3    3    0    0  0.20798246345E+02  0.12513521233E+03 -0.31710033383E+03  0.34153185815E+03  0.00000000000E+00 0.  1.
</event>
<event>
 7    1  0.6888431E-006  0.9046537E+02  0.7818608E-02  0.1370780E+00
          2   -1    0    0  502    0  0.00000000000E+00  0.00000000000E+00  0.16828484727E+03  0.16828484727E+03  0.00000000000E+00 0. -1.
          1   -1    0    0  501    0 -0.00000000000E+00 -0.00000000000E+00 -0.63425189573E+03  0.63425189573E+03  0.00000000000E+00 0. -1.
         25    2    1    2    0    0 -0.26723624746E+02  0.11888504167E+03 -0.12486478976E+03  0.21461518956E+03  0.12498263327E+03 0.  0.
          2    1    1    2  501    0 -0.11517216919E+02 -0.87378179654E+02 -0.45513475800E+03  0.46358951725E+03  0.00000000000E+00 0. -1.
          1    1    1    2  502    0  0.38240841665E+02 -0.31506862014E+02  0.11403249930E+03  0.12433203619E+03  0.00000000000E+00 0. -1.
         22    1    3    3    0    0  0.38931401385E+02  0.75341020982E+02 -0.27041008647E+02  0.89012019442E+02  0.00000000000E+00 0. -1.
         22    1    3    3    0    0 -0.65655026131E+02  0.43544020686E+02 -0.97823781112E+02  0.12560317012E+03  0.00000000000E+00 0. -1.
</event>
<event>
 7    1  0.6888431E-006  0.5782204E+02  0.7818608E-02  0.1506400E+00
          2   -1    0    0  502    0  0.00000000000E+00  0.00000000000E+00  0.11212436593E+03  0.11212436593E+03  0.00000000000E+00 0. -1.
          1   -1    0    0  501    0 -0.00000000000E+00 -0.00000000000E+00 -0.11789114620E+04  0.11789114620E+04  0.00000000000E+00 0. -1.
         25    2    1    2    0    0  0.78813527507E+02  0.27372757530E+02 -0.18523495645E+02  0.15142237886E+03  0.12499910782E+03 0.  0.
          2    1    1    2  501    0 -0.50801510194E+02 -0.27020533253E+02 -0.10888106322E+04  0.10903299938E+04  0.00000000000E+00 0. -1.
          1    1    1    2  502    0 -0.28012017313E+02 -0.35222427752E+00  0.40547031772E+02  0.49283455250E+02  0.00000000000E+00 0. -1.
         22    1    3    3    0    0  0.72857231931E+02  0.98129828945E+01  0.44360041699E+02  0.85862006600E+02  0.00000000000E+00 0. -1.
         22    1    3    3    0    0  0.59562955764E+01  0.17559774636E+02 -0.62883537344E+02  0.65560372262E+02  0.00000000000E+00 0. -1.
</event>
<event>
 7    1  0.6888431E-006  0.2408687E+03  0.7818608E-02  0.1242154E+00
          2   -1    0    0  502    0  0.00000000000E+00  0.00000000000E+00  0.10599884137E+04  0.10599884137E+04  0.00000000000E+00 0. -1.
          1   -1    0    0  501    0 -0.00000000000E+00 -0.00000000000E+00 -0.31480943176E+03  0.31480943176E+03  0.00000000000E+00 0. -1.
         25    2    1    2    0    0  0.17897564446E+03  0.10339054655E+03  0.15939533413E+03  0.28941114385E+03  0.12502020322E+03 0.  0.
          2    1    1    2  501    0 -0.19179568949E+03 -0.16236956732E+03 -0.18512248938E+03  0.31212144907E+03  0.00000000000E+00 0. -1.
          1    1    1    2  502    0  0.12820045027E+02  0.58979020768E+02  0.77090613721E+03  0.77326525257E+03  0.00000000000E+00 0. -1.
         22    1    3    3    0    0  0.13949401814E+03  0.81417642622E+02  0.46910341396E+02  0.16819034977E+03  0.00000000000E+00 0. -1.
         22    1    3    3    0    0  0.39481626319E+02  0.21972903927E+02  0.11248499274E+03  0.12122079407E+03  0.00000000000E+00 0. -1.
</event>
<event>
 7    1  0.6888431E-006  0.1176272E+03  0.7818608E-02  0.1426482E+00
          2   -1    0    0  502    0  0.00000000000E+00  0.00000000000E+00  0.10887171496E+04  0.10887171496E+04  0.00000000000E+00 0. -1.
          1   -1    0    0  501    0 -0.00000000000E+00 -0.00000000000E+00 -0.26938824035E+03  0.26938824035E+03  0.00000000000E+00 0. -1.
         25    2    1    2    0    0 -0.69729977264E+02  0.76796998223E+02 -0.90682276261E+02  0.18603115965E+03  0.12499707383E+03 0.  0.
          2    1    1    2  501    0  0.77941106880E+02 -0.99870025589E+02 -0.10022821208E+03  0.16153802230E+03  0.00000000000E+00 0. -1.
          1    1    1    2  502    0 -0.82111296156E+01  0.23073027366E+02  0.10102393976E+04  0.10105362081E+04  0.00000000000E+00 0. -1.
         22    1    3    3    0    0  0.12600548754E+01  0.57016460974E+02  0.13320878628E+02  0.58565436631E+02  0.00000000000E+00 0.  1.
         22    1    3    3    0    0 -0.70990032140E+02  0.19780537249E+02 -0.10400315489E+03  0.12746572302E+03  0.00000000000E+00 0.  1.
</event>
<event>
 7    1  0.6888431E-006  0.7003294E+02  0.7818608E-02  0.1379802E+00
          2   -1    0    0  502    0  0.00000000000E+00  0.00000000000E+00  0.10517226346E+04  0.10517226346E+04  0.00000000000E+00 0. -1.
          1   -1    0    0  501    0 -0.00000000000E+00 -0.00000000000E+00 -0.35845395487E+03  0.35845395487E+03  0.00000000000E+00 0. -1.
         25    2    1    2    0    0  0.12609905958E+02 -0.22178082036E+01  0.69934313660E+00  0.12565578473E+03  0.12499983502E+03 0.  0.
          2    1    1    2  501    0  0.48592326280E+02 -0.34221821678E+02 -0.29169206863E+03  0.29768542147E+03  0.00000000000E+00 0. -1.
          1    1    1    2  502    0 -0.61202232237E+02  0.36439629882E+02  0.98426140519E+03  0.98683538323E+03  0.00000000000E+00 0. -1.
         22    1    3    3    0    0 -0.39502878273E+02  0.40232247008E+02  0.11596952366E+02  0.57563880996E+02  0.00000000000E+00 0. -1.
         22    1    3    3    0    0  0.52112784231E+02 -0.42450055212E+02 -0.10897609229E+02  0.68091903738E+02  0.00000000000E+00 0. -1.
</event>
<event>
 7    1  0.6888431E-006  0.1696923E+03  0.7818608E-02  0.1301652E+00
          2   -1    0    0  502    0  0.00000000000E+00  0.00000000000E+00  0.87079439869E+03  0.87079439869E+03  0.00000000000E+00 0. -1.
          1   -1    0    0  501    0 -0.00000000000E+00 -0.00000000000E+00 -0.49814596892E+03  0.49814596892E+03  0.00000000000E+00 0. -1.
         25    2    1    2    0    0  0.10824389702E+03  0.66536340545E+02  0.14358852989E+03  0.22888104042E+03  0.12500015558E+03 0.  0.
          2    1    1    2  501    0 -0.15523483835E+03 -0.77541310957E+02 -0.43807021376E+03  0.47118576181E+03  0.00000000000E+00 0. -1.
          1    1    1    2  502    0  0.46990941333E+02  0.11004970412E+02  0.66713011364E+03  0.66887356538E+03  0.00000000000E+00 0. -1.
         22    1    3    3    0    0  0.91080077081E+02  0.75573782473E+02  0.16300263194E+03  0.20143692575E+03  0.00000000000E+00 0. -1.
         22    1    3    3    0    0  0.17163819935E+02 -0.90374419273E+01 -0.19414102052E+02  0.27444114667E+02  0.00000000000E+00 0. -1.
</event>
<event>
 7    1  0.6888431E-006  0.6146133E+02  0.7818608E-02  0.1432662E+00
          2   -1    0    0  502    0  0.00000000000E+00  0.00000000000E+00  0.26733782787E+04  0.26733782787E+04  0.00000000000E+00 0. -1.
          1   -1    0    0  501    0 -0.00000000000E+00 -0.00000000000E+00 -0.12810802606E+03  0.12810802606E+03  0.00000000000E+00 0. -1.
         25    2    1    2    0    0 -0.16290386061E+02 -0.10288494719E+03  0.99823522920E+03  0.10114096667E+04  0.12500100817E+03 0.  0.
          2    1    1    2  501    0  0.23283052216E+00  0.61142447012E+02 -0.11350963706E+03  0.12892978997E+03  0.00000000000E+00 0. -1.
          1    1    1    2  502    0  0.16057555539E+02  0.41742500182E+02  0.16605446605E+04  0.16611468481E+04  0.00000000000E+00 0. -1.
         22    1    3    3    0    0  0.20280048009E+02 -0.65783056865E+02  0.20074715236E+03  0.21222184171E+03  0.00000000000E+00 0.  1.
         22    1    3    3    0    0 -0.36570434070E+02 -0.37101890328E+02  0.79748807684E+03  0.79918782499E+03  0.00000000000E+00 0.  1.
</event>
<event>
 7    1  0.6888431E-006  0.1069020E+03  0.7818608E-02  0.1324565E+00
          2   -1    0    0  502    0  0.00000000000E+00  0.00000000000E+00  0.10038094194E+04  0.10038094194E+04  0.00000000000E+00 0. -1.
          1   -1    0    0  501    0 -0.00000000000E+00 -0.00000000000E+00 -0.35754733519E+03  0.35754733519E+03  0.00000000000E+00 0. -1.
         25    2    1    2    0    0 -0.96696519233E+02 -0.27693247775E+02  0.23410594298E+03  0.28380915613E+03  0.12499964704E+03 0.  0.
          2    1    1    2  501    0  0.68403543839E+02  0.83187276900E+02 -0.32262723896E+03  0.34012865679E+03  0.00000000000E+00 0. -1.
          1    1    1    2  502    0  0.28292975394E+02 -0.55494029124E+02  0.73478338017E+03  0.73741894165E+03  0.00000000000E+00 0. -1.
         22    1    3    3    0    0 -0.12564685482E+03 -0.13937893341E+02  0.16710544650E+03  0.20953669666E+03  0.00000000000E+00 0. -1.
         22    1    3    3    0    0  0.28950335591E+02 -0.13755354435E+02  0.67000496482E+02  0.74272459467E+02  0.00000000000E+00 0. -1.
</event>
<event>
 7    1  0.6888431E-006  0.7599985E+02  0.7818608E-02  0.1401453E+00
          2   -1    0    0  502    0  0.00000000000E+00  0.00000000000E+00  0.14848501354E+03  0.14848501354E+03  0.00000000000E+00 0. -1.
          1   -1    0    0  501    0 -0.00000000000E+00 -0.00000000000E+00 -0.14941340899E+04  0.14941340899E+04  0.00000000000E+00 0. -1.
         25    2    1    2    0    0  0.84497840949E+02 -0.55910145615E+02 -0.50942247767E+03  0.53423063004E+03  0.12500110324E+03 0.  0.
          2    1    1    2  501    0 -0.73164910304E+02  0.11298082842E+02 -0.96695940337E+03  0.96978927533E+03  0.00000000000E+00 0. -1.
          1    1    1    2  502    0 -0.11332930646E+02  0.44612062773E+02  0.13073280473E+03  0.13859919803E+03  0.00000000000E+00 0. -1.
         22    1    3    3    0    0  0.92507852273E+02 -0.57676393821E+02 -0.22834008194E+03  0.25302857972E+03  0.00000000000E+00 0. -1.
         22    1    3    3    0    0 -0.80100113233E+01  0.17662482061E+01 -0.28108239573E+03  0.28120205032E+03  0.00000000000E+00 0. -1.
</event>
<event>
 7    1  0.6888431E-006  0.9735554E+02  0.7818608E-02  0.1340644E+00
          2   -1    0    0  502    0  0.00000000000E+00  0.00000000000E+00  0.51820242720E+03  0.51820242720E+03  0.00000000000E+00 0. -1.
          1   -1    0    0  501    0 -0.00000000000E+00 -0.00000000000E+00 -0.24835683189E+03  0.24835683189E+03  0.00000000000E+00 0. -1.
         25    2    1    2    0    0 -0.82646254638E+02  0.40307812661E+02  0.78963007713E+02  0.17410890204E+03  0.12499451994E+03 0.  0.
          2    1    1    2  501    0  0.35127312110E+02  0.47912721566E+02 -0.18975821832E+03  0.19884098764E+03  0.00000000000E+00 0. -1.
          1    1    1    2  502    0  0.47518942528E+02 -0.88220534227E+02  0.38064080592E+03  0.39360936941E+03  0.00000000000E+00 0. -1.
         22    1    3    3    0    0 -0.83442320595E+02  0.57632364574E+02  0.10295013778E+03  0.14450896575E+03  0.00000000000E+00 0. -1.
         22    1    3    3    0    0  0.79606595716E+00 -0.17324551913E+02 -0.23987130063E+02  0.29599936295E+02  0.00000000000E+00 0. -1.
</event>
<event>
 7    1  0.6888431E-006  0.1736475E+03  0.7818608E-02  0.1386716E+00
          2   -1    0    0  502    0  0.00000000000E+00  0.00000000000E+00  0.11107502273E+04  0.11107502273E+04  0.00000000000E+00 0. -1.
          1   -1    0    0  501    0 -0.00000000000E+00 -0.00000000000E+00 -0.29856746075E+04  0.29856746075E+04  0.00000000000E+00 0. -1.
         25    2    1    2    0    0 -0.71187609355E+02 -0.17522200605E+03 -0.13591720418E+04  0.13779486161E+04  0.12499328954E+03 0.  0.
          2    1    1    2  501    0 -0.84847920921E+01  0.21013562131E+02 -0.16101952606E+04  0.16103547245E+04  0.00000000000E+00 0. -1.
          1    1    1    2  502    0  0.79672401447E+02  0.15420844392E+03  0.10944429222E+04  0.11081214941E+04  0.00000000000E+00 0. -1.
         22    1    3    3    0    0  0.21354831744E+01 -0.14801206926E+03 -0.93042992901E+03  0.94213161805E+03  0.00000000000E+00 0.  1.
         22    1    3    3    0    0 -0.73323092530E+02 -0.27209936782E+02 -0.42874211276E+03  0.43581699807E+03  0.00000000000E+00 0.  1.
</event>
<event>
 7    1  0.6888431E-006  0.8430559E+02  0.7818608E-02  0.1352639E+00
          2   -1    0    0  502    0  0.00000000000E+00  0.00000000000E+00  0.64760355974E+03  0.64760355974E+03  0.00000000000E+00 0. -1.
          1   -1    0    0  501    0 -0.00000000000E+00 -0.00000000000E+00 -0.17086610065E+04  0.17086610065E+04  0.00000000000E+00 0. -1.
         25    2    1    2    0    0 -0.28246979815E+02  0.12471496815E+03  0.36508462956E+03  0.40652767908E+03  0.12500500779E+03 0.  0.
          2    1    1    2  501    0 -0.17008320989E+02 -0.82482431141E+02 -0.16832129657E+04  0.16853185225E+04  0.00000000000E+00 0. -1.
          1    1    1    2  502    0  0.45255300804E+02 -0.42232537013E+02  0.25707088934E+03  0.26441836468E+03  0.00000000000E+00 0. -1.
         22    1    3    3    0    0  0.13694536069E+02  0.88598316267E+02  0.94182195437E+02  0.13002879643E+03  0.00000000000E+00 0. -1.
         22    1    3    3    0    0 -0.41941515883E+02  0.36116651887E+02  0.27090243412E+03  0.27649888265E+03  0.00000000000E+00 0. -1.
</event>
<event>
 7    1  0.1022222E-005  0.8132418E+02  0.7818608E-02  0.1442083E+00
          2   -1    0    0  502    0  0.00000000000E+00  0.00000000000E+00  0.18300782692E+04  0.18300782692E+04  0.00000000000E+00 0. -1.
          1   -1    0    0  501    0 -0.00000000000E+00 -0.00000000000E+00 -0.13438323873E+04  0.13438323873E+04  0.00000000000E+00 0. -1.
         25    2    1    2    0    0  0.45955349516E+02  0.30787560822E+02 -0.13976865357E+03  0.19549804870E+03  0.12499776988E+03 0.  0.
          2    1    1    2  501    0 -0.56504469130E+02 -0.60463155201E+02 -0.11746055039E+04  0.11775171497E+04  0.00000000000E+00 0. -1.
          1    1    1    2  502    0  0.10549119615E+02  0.29675594379E+02  0.18006200394E+04  0.18008954581E+04  0.00000000000E+00 0. -1.
         22    1    3    3    0    0  0.33983541046E+02 -0.11473837076E+02  0.11747903442E+02  0.37743121685E+02  0.00000000000E+00 0. -1.
         22    1    3    3    0    0  0.11971808470E+02  0.42261397898E+02 -0.15151655701E+03  0.15775492702E+03  0.00000000000E+00 0. -1.
</event>
<event>
 7    1  0.6888431E-006  0.1173324E+03  0.7818608E-02  0.1274391E+00
          2   -1    0    0  502    0  0.00000000000E+00  0.00000000000E+00  0.54614016138E+03  0.54614016138E+03  0.00000000000E+00 0. -1.
          1   -1    0    0  501    0 -0.00000000000E+00 -0.00000000000E+00 -0.34118689201E+03  0.34118689201E+03  0.00000000000E+00 0. -1.
         25    2    1    2    0    0 -0.12518940800E+03 -0.50593595470E+02 -0.21750456153E+02  0.18528261928E+03  0.12499786753E+03 0.  0.
          2    1    1    2  501    0  0.11275151015E+03 -0.38719865019E+02 -0.21790445221E+03  0.24838373796E+03  0.00000000000E+00 0. -1.
          1    1    1    2  502    0  0.12437897852E+02  0.89313460489E+02  0.44460817773E+03  0.45366069615E+03  0.00000000000E+00 0. -1.
         22    1    3    3    0    0 -0.11984824749E+03 -0.97616136947E+01 -0.55122975879E+02  0.13227786662E+03  0.00000000000E+00 0. -1.
         22    1    3    3    0    0 -0.53411605080E+01 -0.40831981775E+02  0.33372519725E+02  0.53004752655E+02  0.00000000000E+00 0. -1.
</event>
<event>
 7    1  0.6888431E-006  0.1246791E+03  0.7818608E-02  0.1291537E+00
          2   -1    0    0  502    0  0.00000000000E+00  0.00000000000E+00  0.30865760440E+03  0.30865760440E+03  0.00000000000E+00 0. -1.
          1   -1    0    0  501    0 -0.00000000000E+00 -0.00000000000E+00 -0.55112558609E+03  0.55112558609E+03  0.00000000000E+00 0. -1.
         25    2    1    2    0    0  0.16308976447E+03 -0.60790989711E+02 -0.43386323263E+02  0.21863441175E+03  0.12499926900E+03 0.  0.
          2    1    1    2  501    0 -0.92794080709E+02  0.77007474882E+02 -0.40520414165E+03  0.42276623448E+03  0.00000000000E+00 0. -1.
          1    1    1    2  502    0 -0.70295683759E+02 -0.16216485171E+02  0.20612248323E+03  0.21838254426E+03  0.00000000000E+00 0. -1.
         22    1    3    3    0    0 -0.19910073563E+02 -0.16827839743E+02 -0.45589488807E+01  0.26464527855E+02  0.00000000000E+00 0. -1.
         22    1    3    3    0    0  0.18299983803E+03 -0.43963149968E+02 -0.38827374383E+02  0.19216988389E+03  0.00000000000E+00 0. -1.
</event>
<event>
 7    1  0.6888431E-006  0.1329078E+03  0.7818608E-02  0.1310806E+00
          2   -1    0    0  502    0  0.00000000000E+00  0.00000000000E+00  0.12844573319E+04  0.12844573319E+04  0.00000000000E+00 0. -1.
          1   -1    0    0  501    0 -0.00000000000E+00 -0.00000000000E+00 -0.27693902058E+04  0.27693902058E+04  0.00000000000E+00 0. -1.
         25    2    1    2    0    0 -0.12504731509E+03 -0.43582299121E+02 -0.26665365796E+04  0.26727474000E+04  0.12500034366E+03 0.  0.
          2    1    1    2  501    0  0.11509489555E+03  0.99381793039E+02 -0.40752568888E+02  0.15743045334E+03  0.00000000000E+00 0. -1.
          1    1    1    2  502    0  0.99524195436E+01 -0.55799493918E+02  0.12223562746E+04  0.12236696843E+04  0.00000000000E+00 0. -1.
         22    1    3    3    0    0 -0.68391780317E+02  0.40924367896E+02 -0.10595951324E+04  0.10625883888E+04  0.00000000000E+00 0. -1.
         22    1    3    3    0    0 -0.56655534776E+02 -0.84506667017E+02 -0.16069414473E+04  0.16101590112E+04  0.00000000000E+00 0. -1.
</event>
<event>
 7    1  0.6888431E-006  0.1255706E+03  0.7818608E-02  0.1294612E+00
          2   -1    0    0  502    0  0.00000000000E+00  0.00000000000E+00  0.10419099890E+04  0.10419099890E+04  0.00000000000E+00 0. -1.
          1   -1    0    0  501    0 -0.00000000000E+00 -0.00000000000E+00 -0.14978268530E+03  0.14978268530E+03  0.00000000000E+00 0. -1.
         25    2    1    2    0    0  0.19499341946E+02  0.14679435800E+03  0.58969714621E+03  0.62072194018E+03  0.12499677955E+03 0.  0.
          2    1    1    2  501    0  0.48976489874E+02 -0.49460128449E+02 -0.11636522967E+03  0.13559449672E+03  0.00000000000E+00 0. -1.
          1    1    1    2  502    0 -0.68475831820E+02 -0.97334229548E+02  0.41879538712E+03  0.43537623736E+03  0.00000000000E+00 0. -1.
         22    1    3    3    0    0 -0.40364355566E+01  0.15719628893E+03  0.40874077178E+03  0.43794518445E+03  0.00000000000E+00 0.  1.
         22    1    3    3    0    0  0.23535777502E+02 -0.10401930930E+02  0.18095637443E+03  0.18277675573E+03  0.00000000000E+00 0.  1.
</event>
<event>
 7    1  0.6888431E-006  0.7972844E+02  0.7818608E-02  0.1341960E+00
          2   -1    0    0  502    0  0.00000000000E+00  0.00000000000E+00  0.24863771353E+04  0.24863771353E+04  0.00000000000E+00 0. -1.
          1   -1    0    0  501    0 -0.00000000000E+00 -0.00000000000E+00 -0.13550501743E+02  0.13550501743E+02  0.00000000000E+00 0. -1.
         25    2    1    2    0    0  0.30017803873E+02  0.19025282893E+02  0.10969134706E+04  0.11045849118E+04  0.12500254181E+03 0.  0.
          2    1    1    2  501    0  0.55179609060E+02  0.45821341602E+02  0.16769359249E+03  0.18238839207E+03  0.00000000000E+00 0. -1.
          1    1    1    2  502    0 -0.85197412934E+02 -0.64846624495E+02  0.12082195705E+04  0.12129543332E+04  0.00000000000E+00 0. -1.
         22    1    3    3    0    0  0.50523764164E+02 -0.20494627510E+02  0.22412041411E+03  0.23065697588E+03  0.00000000000E+00 0.  1.
         22    1    3    3    0    0 -0.20505960291E+02  0.39519910403E+02  0.87279305646E+03  0.87392793589E+03  0.00000000000E+00 0.  1.
</event>
<event>
 7    1  0.6888431E-006  0.6386593E+02  0.7818608E-02  0.1406909E+00
          2   -1    0    0  502    0  0.00000000000E+00  0.00000000000E+00  0.38181851670E+03  0.38181851670E+03  0.00000000000E+00 0. -1.
          1   -1    0    0  501    0 -0.00000000000E+00 -0.00000000000E+00 -0.10310847340E+04  0.10310847340E+04  0.00000000000E+00 0. -1.
         25    2    1    2    0    0 -0.52832986226E+02  0.82212406663E+02 -0.45649634004E+03  0.48328456171E+03  0.12499941947E+03 0.  0.
          2    1    1    2  501    0 -0.34819429001E+01 -0.52356247621E+02 -0.55719556825E+03  0.55966079179E+03  0.00000000000E+00 0. -1.
          1    1    1    2  502    0  0.56314929126E+02 -0.29856159042E+02  0.36442569097E+03  0.36995789722E+03  0.00000000000E+00 0. -1.
         22    1    3    3    0    0 -0.53580632619E+02 -0.77936645396E+01 -0.83025865657E+02  0.99120733285E+02  0.00000000000E+00 0.  1.
         22    1    3    3    0    0  0.74764639296E+00  0.90006071202E+02 -0.37347047439E+03  0.38416382842E+03  0.00000000000E+00 0.  1.
</event>
<event>
 7    1  0.6888431E-006  0.9768735E+02  0.7818608E-02  0.1411342E+00
          2   -1    0    0  502    0  0.00000000000E+00  0.00000000000E+00  0.88489902910E+03  0.88489902910E+03  0.00000000000E+00 0. -1.
          1   -1    0    0  501    0 -0.00000000000E+00 -0.00000000000E+00 -0.53055968747E+03  0.53055968747E+03  0.00000000000E+00 0. -1.
         25    2    1    2    0    0  0.51913297484E+02 -0.58828945899E+02 -0.13642581369E+03  0.20099394069E+03  0.12502290279E+03 0.  0.
          2    1    1    2  501    0 -0.46244997541E+02  0.91477832128E+02 -0.35425946387E+03  0.36879067411E+03  0.00000000000E+00 0. -1.
          1    1    1    2  502    0 -0.56682999432E+01 -0.32648886229E+02  0.84502461918E+03  0.84567410178E+03  0.00000000000E+00 0. -1.
         22    1    3    3    0    0  0.51885601634E+02  0.22472108198E+02 -0.92953468065E+02  0.10880008515E+03  0.00000000000E+00 0.  1.
         22    1    3    3    0    0  0.27695849990E-01 -0.81301054096E+02 -0.43472345621E+02  0.92193855533E+02  0.00000000000E+00 0.  1.
</event>
<event>
 7    1  0.6888431E-006  0.8598674E+02  0.7818608E-02  0.1318456E+00
          2   -1    0    0  502    0  0.00000000000E+00  0.00000000000E+00  0.39908364313E+03  0.39908364313E+03  0.00000000000E+00 0. -1.
          1   -1    0    0  501    0 -0.00000000000E+00 -0.00000000000E+00 -0.12350863696E+04  0.12350863696E+04  0.00000000000E+00 0. -1.
         25    2    1    2    0    0  0.47155388676E+02  0.46004209472E+02 -0.17123053183E+03  0.22200173730E+03  0.12499943344E+03 0.  0.
          2    1    1    2  501    0  0.35835011238E+02 -0.73505265578E+02 -0.10317165746E+04  0.10349522995E+04  0.00000000000E+00 0. -1.
          1    1    1    2  502    0 -0.82990399913E+02  0.27501056105E+02  0.36694437988E+03  0.37721597593E+03  0.00000000000E+00 0. -1.
         22    1    3    3    0    0 -0.34954375719E+02  0.37885742689E+02 -0.10203778301E+03  0.11431905809E+03  0.00000000000E+00 0. -1.
         22    1    3    3    0    0  0.82109764395E+02  0.81184667832E+01 -0.69192748828E+02  0.10768267921E+03  0.00000000000E+00 0. -1.
</event>
<event>
 7    1  0.6888431E-006  0.3373036E+02  0.7818608E-02  0.1567821E+00
          2   -1    0    0  502    0  0.00000000000E+00  0.00000000000E+00  0.11480081395E+04  0.11480081395E+04  0.00000000000E+00 0. -1.
          1   -1    0    0  501    0 -0.00000000000E+00 -0.00000000000E+00 -0.11756299335E+03  0.11756299335E+03  0.00000000000E+00 0. -1.
         25    2    1    2    0    0 -0.52216412206E+02  0.11694340998E+02  0.35096034078E+02  0.14043371462E+03  0.12500634096E+03 0.  0.
          2    1    1    2  501    0  0.21000491408E+02 -0.24333459815E+02 -0.60629085722E+02  0.68622328301E+02  0.00000000000E+00 0. -1.
          1    1    1    2  502    0  0.31215920799E+02  0.12639118817E+02  0.10559781978E+04  0.10565150899E+04  0.00000000000E+00 0. -1.
         22    1    3    3    0    0 -0.12198738116E+02 -0.49519159201E+02  0.43220493056E+02  0.66850335523E+02  0.00000000000E+00 0. -1.
         22    1    3    3    0    0 -0.40017674090E+02  0.61213500199E+02 -0.81244589780E+01  0.73583379101E+02  0.00000000000E+00 0. -1.
</event>
<event>
 7    1  0.6888431E-006  0.7400644E+02  0.7818608E-02  0.1423035E+00
          2   -1    0    0  502    0  0.00000000000E+00  0.00000000000E+00  0.60634435489E+03  0.60634435489E+03  0.00000000000E+00 0. -1.
          1   -1    0    0  501    0 -0.00000000000E+00 -0.00000000000E+00 -0.14249273047E+03  0.14249273047E+03  0.00000000000E+00 0. -1.
         25    2    1    2    0    0  0.41632974049E+02 -0.21173832348E+02  0.20877857052E+03  0.24777681527E+03  0.12499289167E+03 0.  0.
          2    1    1    2  501    0 -0.75660421518E+02  0.21520536578E+00 -0.11016374600E+03  0.13364354317E+03  0.00000000000E+00 0. -1.
          1    1    1    2  502    0  0.34027447469E+02  0.20958626982E+02  0.36523679990E+03  0.36741672693E+03  0.00000000000E+00 0. -1.
         22    1    3    3    0    0  0.93200911171E+01 -0.31192010180E+02 -0.35704419075E+01  0.32749864930E+02  0.00000000000E+00 0. -1.
         22    1    3    3    0    0  0.32312882932E+02  0.10018177832E+02  0.21234901243E+03  0.21502695034E+03  0.00000000000E+00 0. -1.
</event>
<event>
 7    1  0.6888431E-006  0.1044745E+03  0.7818608E-02  0.1311688E+00
          2   -1    0    0  502    0  0.00000000000E+00  0.00000000000E+00  0.81327331927E+03  0.81327331927E+03  0.00000000000E+00 0. -1.
          1   -1    0    0  501    0 -0.00000000000E+00 -0.00000000000E+00 -0.10265621425E+04  0.10265621425E+04  0.00000000000E+00 0. -1.
         25    2    1    2    0    0 -0.10996261910E+03 -0.64844994360E+02  0.50070538856E+02  0.18554945718E+03  0.12499956521E+03 0.  0.
          2    1    1    2  501    0  0.65214074805E+02 -0.29393851534E+02 -0.95356321951E+03  0.95624248372E+03  0.00000000000E+00 0. -1.
          1    1    1    2  502    0  0.44748544299E+02  0.94238845894E+02  0.69020385740E+03  0.69804352090E+03  0.00000000000E+00 0. -1.
         22    1    3    3    0    0  0.46686667728E+01 -0.47664149260E+02  0.50553092840E+02  0.69636791783E+02  0.00000000000E+00 0. -1.
         22    1    3    3    0    0 -0.11463128588E+03 -0.17180845100E+02 -0.48255398371E+00  0.11591266539E+03  0.00000000000E+00 0. -1.
</event>
<event>
 7    1  0.6888431E-006  0.1680364E+03  0.7818608E-02  0.1292259E+00
          2   -1    0    0  502    0  0.00000000000E+00  0.00000000000E+00  0.13963127667E+04  0.13963127667E+04  0.00000000000E+00 0. -1.
          1   -1    0    0  501    0 -0.00000000000E+00 -0.00000000000E+00 -0.25213924237E+03  0.25213924237E+03  0.00000000000E+00 0. -1.
         25    2    1    2    0    0 -0.11637165331E+03 -0.15149428181E+03  0.10937596661E+04  0.11173304837E+04  0.12499729406E+03 0.  0.
          2    1    1    2  501    0  0.13359934716E+03  0.10119457009E+03 -0.20809934504E+03  0.26719742510E+03  0.00000000000E+00 0. -1.
          1    1    1    2  502    0 -0.17227693853E+02  0.50299711720E+02  0.25851320322E+03  0.26392410021E+03  0.00000000000E+00 0. -1.
         22    1    3    3    0    0 -0.54538792900E+02 -0.15445211005E+03  0.71311219726E+03  0.73168226719E+03  0.00000000000E+00 0.  1.
         22    1    3    3    0    0 -0.61832860408E+02  0.29578282428E+01  0.38064746886E+03  0.38564821654E+03  0.00000000000E+00 0.  1.
</event>
<event>
 7    1  0.6888431E-006  0.1104768E+03  0.7818608E-02  0.1379519E+00
          2   -1    0    0  502    0  0.00000000000E+00  0.00000000000E+00  0.26515058060E+03  0.26515058060E+03  0.00000000000E+00 0. -1.
          1   -1    0    0  501    0 -0.00000000000E+00 -0.00000000000E+00 -0.26545353407E+03  0.26545353407E+03  0.00000000000E+00 0. -1.
         25    2    1    2    0    0  0.54692796462E+02  0.64672263137E+02  0.47214699813E+02  0.15819984070E+03  0.12499663242E+03 0.  0.
          2    1    1    2  501    0  0.31969659609E+02  0.20099131753E+02 -0.18516876752E+03  0.18898017541E+03  0.00000000000E+00 0. -1.
          1    1    1    2  502    0 -0.86662456070E+02 -0.84771394890E+02  0.13765111423E+03  0.18342409856E+03  0.00000000000E+00 0. -1.
         22    1    3    3    0    0  0.43283366304E+02 -0.13296535855E+02 -0.24647465496E+02  0.51553324041E+02  0.00000000000E+00 0. -1.
         22    1    3    3    0    0  0.11409430158E+02  0.77968798992E+02  0.71862165310E+02  0.10664651666E+03  0.00000000000E+00 0. -1.
</event>
<event>
 7    1  0.6888431E-006  0.7736263E+02  0.7818608E-02  0.1366226E+00
          2   -1    0    0  502    0  0.00000000000E+00  0.00000000000E+00  0.21002176209E+03  0.21002176209E+03  0.00000000000E+00 0. -1.
          1   -1    0    0  501    0 -0.00000000000E+00 -0.00000000000E+00 -0.12588367692E+04  0.12588367692E+04  0.00000000000E+00 0. -1.
         25    2    1    2    0    0 -0.15819442764E+02 -0.12406426299E+03 -0.43805594002E+03  0.47239528062E+03  0.12498839324E+03 0.  0.
          2    1    1    2  501    0  0.34096719084E+02  0.49578091610E+02 -0.79480339117E+03  0.79707779045E+03  0.00000000000E+00 0. -1.
          1    1    1    2  502    0 -0.18277276320E+02  0.74486171376E+02  0.18404432404E+03  0.19938546027E+03  0.00000000000E+00 0. -1.
         22    1    3    3    0    0  0.97450802959E+01 -0.12133099363E+03 -0.20869915693E+03  0.24160197580E+03  0.00000000000E+00 0.  1.
         22    1    3    3    0    0 -0.25564523060E+02 -0.27332693525E+01 -0.22935678309E+03  0.23079330482E+03  0.00000000000E+00 0.  1.
</event>
<event>
 7    1  0.6888431E-006  0.6935919E+02  0.7818608E-02  0.1449763E+00
          2   -1    0    0  502    0  0.00000000000E+00  0.00000000000E+00  0.71844950347E+03  0.71844950347E+03  0.00000000000E+00 0. -1.
          1   -1    0    0  501    0 -0.00000000000E+00 -0.00000000000E+00 -0.10032536318E+03  0.10032536318E+03  0.00000000000E+00 0. -1.
         25    2    1    2    0    0 -0.49111894023E+02 -0.85832597446E-01  0.20768268979E+03  0.24732336661E+03  0.12499905013E+03 0.  0.
          2    1    1    2  501    0  0.63703459436E+02 -0.31601100068E+02 -0.64035516586E+02  0.95693822445E+02  0.00000000000E+00 0. -1.
          1    1    1    2  502    0 -0.14591565413E+02  0.31686932666E+02  0.47447696709E+03  0.47575767759E+03  0.00000000000E+00 0. -1.
         22    1    3    3    0    0  0.42460341329E+01  0.90992124428E+01 -0.15056835830E+02  0.18097866674E+02  0.00000000000E+00 0. -1.
         22    1    3    3    0    0 -0.53357928156E+02 -0.91850450402E+01  0.22273952562E+03  0.22922549994E+03  0.00000000000E+00 0. -1.
</event>
<event>
 7    1  0.6888431E-006  0.4672023E+02  0.7818608E-02  0.1517262E+00
          2   -1    0    0  502    0  0.00000000000E+00  0.00000000000E+00  0.98208674377E+03  0.98208674377E+03  0.00000000000E+00 0. -1.
          1   -1    0    0  501    0 -0.00000000000E+00 -0.00000000000E+00 -0.91335912029E+02  0.91335912029E+02  0.00000000000E+00 0. -1.
         25    2    1    2    0    0 -0.88069106275E+01  0.22173215368E+02  0.99993685179E+02  0.16182564630E+03  0.12497835640E+03 0.  0.
          2    1    1    2  501    0  0.22405731834E+02  0.23148697298E+02 -0.55416999516E+02  0.64100880189E+02  0.00000000000E+00 0. -1.
          1    1    1    2  502    0 -0.13598821207E+02 -0.45321912666E+02  0.84617414608E+03  0.84749612931E+03  0.00000000000E+00 0. -1.
         22    1    3    3    0    0  0.34062537425E+02  0.57209437202E+02  0.31227515632E+02  0.73541375384E+02  0.00000000000E+00 0.  1.
         22    1    3    3    0    0 -0.42869448052E+02 -0.35036221834E+02  0.68766169547E+02  0.88284270914E+02  0.00000000000E+00 0.  1.
</event>
<event>
 7    1  0.6888431E-006  0.9731428E+02  0.7818608E-02  0.1340083E+00
          2   -1    0    0  502    0  0.00000000000E+00  0.00000000000E+00  0.39423006275E+04  0.39423006275E+04  0.00000000000E+00 0. -1.
          1   -1    0    0  501    0 -0.00000000000E+00 -0.00000000000E+00 -0.19898958432E+03  0.19898958432E+03  0.00000000000E+00 0. -1.
         25    2    1    2    0    0 -0.45510959630E+02  0.10209751572E+02  0.25952915606E+03  0.29180808839E+03  0.12498436355E+03 0.  0.
          2    1    1    2  501    0 -0.52344984126E+02 -0.28758106059E+02 -0.17727774387E+03  0.18706796759E+03  0.00000000000E+00 0. -1.
          1    1    1    2  502    0  0.97855943756E+02  0.18548354487E+02  0.36610596310E+04  0.36624141558E+04  0.00000000000E+00 0. -1.
         22    1    3    3    0    0 -0.65150507855E+02 -0.19901373380E+02  0.65592541245E+02  0.94567620268E+02  0.00000000000E+00 0. -1.
         22    1    3    3    0    0  0.19639548225E+02  0.30111124952E+02  0.19393661482E+03  0.19724046813E+03  0.00000000000E+00 0. -1.
</event>
<event>
 7    1  0.6888431E-006  0.1087662E+03  0.7818608E-02  0.1289935E+00
          2   -1    0    0  502    0  0.00000000000E+00  0.00000000000E+00  0.81242546989E+03  0.81242546989E+03  0.00000000000E+00 0. -1.
          1   -1    0    0  501    0 -0.00000000000E+00 -0.00000000000E+00 -0.89710902169E+02  0.89710902169E+02  0.00000000000E+00 0. -1.
         25    2    1    2    0    0  0.96773844316E+02  0.88303402813E+02  0.23632585808E+03  0.29772325001E+03  0.12500621789E+03 0.  0.
          2    1    1    2  501    0  0.12378438509E+02 -0.83027374173E+02 -0.20059955598E+02  0.86308588336E+02  0.00000000000E+00 0. -1.
          1    1    1    2  502    0 -0.10915228282E+03 -0.52760286398E+01  0.50644866524E+03  0.51810453371E+03  0.00000000000E+00 0. -1.
         22    1    3    3    0    0  0.95833936555E+02  0.78180558754E+01  0.16075349931E+03  0.18731511668E+03  0.00000000000E+00 0.  1.
         22    1    3    3    0    0  0.93990776067E+00  0.80485346937E+02  0.75572358762E+02  0.11040813334E+03  0.00000000000E+00 0.  1.
</event>
<event>
 7    1  0.6888431E-006  0.6391082E+02  0.7818608E-02  0.1415064E+00
          2   -1    0    0  502    0  0.00000000000E+00  0.00000000000E+00  0.10443522554E+04  0.10443522554E+04  0.00000000000E+00 0. -1.
          1   -1    0    0  501    0 -0.00000000000E+00 -0.00000000000E+00 -0.32882302326E+03  0.32882302326E+03  0.00000000000E+00 0. -1.
         25    2    1    2    0    0  0.18533783464E+02 -0.10316141636E+02 -0.44112471661E+02  0.13424099543E+03  0.12499924316E+03 0.  0.
          2    1    1    2  501    0 -0.67722606548E+02  0.11649569821E+02 -0.23409889810E+03  0.24397614229E+03  0.00000000000E+00 0. -1.
          1    1    1    2  502    0  0.49188823084E+02 -0.13334281849E+01  0.99374060192E+03  0.99495814096E+03  0.00000000000E+00 0. -1.
         22    1    3    3    0    0 -0.32636925275E+02  0.41352682277E+02 -0.88334259839E+01  0.53415752710E+02  0.00000000000E+00 0.  1.
         22    1    3    3    0    0  0.51170708739E+02 -0.51668823913E+02 -0.35279045677E+02  0.80825242723E+02  0.00000000000E+00 0.  1.
</event>
<event>
 7    1  0.6888431E-006  0.5469118E+02  0.7818608E-02  0.1453884E+00
          2   -1    0    0  502    0  0.00000000000E+00  0.00000000000E+00  0.25678579303E+04  0.25678579303E+04  0.00000000000E+00 0. -1.
          1   -1    0    0  501    0 -0.00000000000E+00 -0.00000000000E+00 -0.33079266167E+03  0.33079266167E+03  0.00000000000E+00 0. -1.
         25    2    1    2    0    0 -0.76891081789E+02 -0.36501049145E+02 -0.98908567725E+02  0.18070115618E+03  0.12500175210E+03 0.  0.
          2    1    1    2  501    0  0.34112974952E+02  0.40007691387E+02 -0.18718337757E+03  0.19442717729E+03  0.00000000000E+00 0. -1.
          1    1    1    2  502    0  0.42778106838E+02 -0.35066422418E+01  0.25231572140E+04  0.25235222585E+04  0.00000000000E+00 0. -1.
         22    1    3    3    0    0  0.26529630110E+01  0.40425564690E+02 -0.24291951842E+02  0.47237309593E+02  0.00000000000E+00 0. -1.
         22    1    3    3    0    0 -0.79544044800E+02 -0.76926613835E+02 -0.74616615883E+02  0.13346384658E+03  0.00000000000E+00 0. -1.
</event>
<event>
 7    1  0.6888431E-006  0.9515825E+02  0.7818608E-02  0.1366568E+00
          2   -1    0    0  502    0  0.00000000000E+00  0.00000000000E+00  0.18854511195E+04  0.18854511195E+04  0.00000000000E+00 0. -1.
          1   -1    0    0  501    0 -0.00000000000E+00 -0.00000000000E+00 -0.52177387938E+03  0.52177387938E+03  0.00000000000E+00 0. -1.
         25    2    1    2    0    0 -0.89319589039E+02  0.42121329159E+02  0.77252088889E+03  0.78877449403E+03  0.12499793317E+03 0.  0.
          2    1    1    2  501    0  0.94997427783E+02  0.63264528257E+01 -0.50868999037E+03  0.51752298654E+03  0.00000000000E+00 0. -1.
          1    1    1    2  502    0 -0.56778387437E+01 -0.48447781984E+02  0.10998463416E+04  0.11009275183E+04  0.00000000000E+00 0. -1.
         22    1    3    3    0    0  0.18576649272E+02 -0.10881711736E+02  0.31466038650E+03  0.31539604053E+03  0.00000000000E+00 0. -1.
         22    1    3    3    0    0 -0.10789623831E+03  0.53003040895E+02  0.45786050239E+03  0.47337845350E+03  0.00000000000E+00 0. -1.
</event>
<event>
 7    1  0.6888431E-006  0.2155687E+03  0.7818608E-02  0.1336863E+00
          2   -1    0    0  502    0  0.00000000000E+00  0.00000000000E+00  0.58491940710E+03  0.58491940710E+03  0.00000000000E+00 0. -1.
          1   -1    0    0  501    0 -0.00000000000E+00 -0.00000000000E+00 -0.16691057067E+04  0.16691057067E+04  0.00000000000E+00 0. -1.
         25    2    1    2    0    0  0.38746880935E+02 -0.23692849051E+03 -0.43058596945E+02  0.27407262104E+03  0.12500131375E+03 0.  0.
          2    1    1    2  501    0 -0.43211295187E+02  0.20956440202E+03 -0.15025443853E+04  0.15177035562E+04  0.00000000000E+00 0. -1.
          1    1    1    2  502    0  0.44644142522E+01  0.27364088489E+02  0.46141668265E+03  0.46224893657E+03  0.00000000000E+00 0. -1.
         22    1    3    3    0    0 -0.18158519313E+02 -0.14869983084E+03 -0.70489469294E+02  0.16556007006E+03  0.00000000000E+00 0.  1.
         22    1    3    3    0    0  0.56905400248E+02 -0.88228659662E+02  0.27430872349E+02  0.10851255098E+03  0.00000000000E+00 0.  1.
</event>
<event>
 7    1  0.6888431E-006  0.1416477E+03  0.7818608E-02  0.1284426E+00
          2   -1    0    0  502    0  0.00000000000E+00  0.00000000000E+00  0.13809528101E+04  0.13809528101E+04  0.00000000000E+00 0. -1.
          1   -1    0    0  501    0 -0.00000000000E+00 -0.00000000000E+00 -0.55418951571E+03  0.55418951571E+03  0.00000000000E+00 0. -1.
         25    2    1    2    0    0 -0.57740125985E+02  0.53259004985E+02 -0.69214957145E+02  0.16305146085E+03  0.12499849932E+03 0.  0.
          2    1    1    2  501    0 -0.29177617394E+02  0.61296670107E+02 -0.43151988188E+03  0.43682722395E+03  0.00000000000E+00 0. -1.
          1    1    1    2  502    0  0.86917743379E+02 -0.11455567509E+03  0.13274981334E+04  0.13352636410E+04  0.00000000000E+00 0. -1.
         22    1    3    3    0    0 -0.29088586277E+02 -0.98193347258E+01  0.29416599509E+02  0.42519425122E+02  0.00000000000E+00 0. -1.
         22    1    3    3    0    0 -0.28651539708E+02  0.63078339711E+02 -0.98631556653E+02  0.12053203573E+03  0.00000000000E+00 0. -1.
</event>
<event>
 7    1  0.6888431E-006  0.2803992E+03  0.7818608E-02  0.1177577E+00
          2   -1    0    0  502    0  0.00000000000E+00  0.00000000000E+00  0.30372425515E+03  0.30372425515E+03  0.00000000000E+00 0. -1.
          1   -1    0    0  501    0 -0.00000000000E+00 -0.00000000000E+00 -0.10076192876E+04  0.10076192876E+04  0.00000000000E+00 0. -1.
         25    2    1    2    0    0  0.89275118577E+02  0.25974712966E+03 -0.16390552279E+03  0.34340703852E+03  0.12499902216E+03 0.  0.
          2    1    1    2  501    0  0.10614295191E+02 -0.28639364325E+03 -0.71185133205E+03  0.76737624481E+03  0.00000000000E+00 0. -1.
          1    1    1    2  502    0 -0.99889413768E+02  0.26646513591E+02  0.17186182238E+03  0.20056025943E+03  0.00000000000E+00 0. -1.
         22    1    3    3    0    0  0.98529069369E+02  0.11869992606E+03 -0.11985011176E+03  0.19535019643E+03  0.00000000000E+00 0.  1.
         22    1    3    3    0    0 -0.92539507917E+01  0.14104720360E+03 -0.44055411031E+02  0.14805684209E+03  0.00000000000E+00 0.  1.
</event>
<event>
 7    1  0.6888431E-006  0.9352043E+02  0.7818608E-02  0.1343340E+00
          2   -1    0    0  502    0  0.00000000000E+00  0.00000000000E+00  0.18289730148E+04  0.18289730148E+04  0.00000000000E+00 0. -1.
          1   -1    0    0  501    0 -0.00000000000E+00 -0.00000000000E+00 -0.12894295922E+04  0.12894295922E+04  0.00000000000E+00 0. -1.
         25    2    1    2    0    0 -0.49068797220E+02  0.28644605521E+02  0.70947390518E+03  0.72263872768E+03  0.12500099327E+03 0.  0.
          2    1    1    2  501    0  0.92709989883E+02  0.13145372494E+02 -0.12803160038E+04  0.12837355696E+04  0.00000000000E+00 0. -1.
          1    1    1    2  502    0 -0.43641192662E+02 -0.41789978016E+02  0.11103855212E+04  0.11120283098E+04  0.00000000000E+00 0. -1.
         22    1    3    3    0    0  0.12487160481E+02 -0.10328437179E+02  0.51031088714E+03  0.51056812212E+03  0.00000000000E+00 0.  1.
         22    1    3    3    0    0 -0.61555957701E+02  0.38973042700E+02  0.19916301804E+03  0.21207060556E+03  0.00000000000E+00 0.  1.
</event>
<event>
 7    1  0.6888431E-006  0.1131013E+03  0.7818608E-02  0.1429724E+00
          2   -1    0    0  502    0  0.00000000000E+00  0.00000000000E+00  0.17723875076E+04  0.17723875076E+04  0.00000000000E+00 0. -1.
          1   -1    0    0  501    0 -0.00000000000E+00 -0.00000000000E+00 -0.13358896302E+02  0.13358896302E+02  0.00000000000E+00 0. -1.
         25    2    1    2    0    0 -0.11941847501E+03  0.14166869435E+01  0.94935447785E+03  0.96496723463E+03  0.12500024051E+03 0.  0.
          2    1    1    2  501    0  0.10723241292E+03 -0.23074369341E+02  0.65429136681E+03  0.66342174338E+03  0.00000000000E+00 0. -1.
          1    1    1    2  502    0  0.12186062083E+02  0.21657682398E+02  0.15538276666E+03  0.15735742592E+03  0.00000000000E+00 0. -1.
         22    1    3    3    0    0 -0.21223802534E+02  0.55703813675E+02  0.28013814185E+03  0.28641009614E+03  0.00000000000E+00 0. -1.
         22    1    3    3    0    0 -0.98194672471E+02 -0.54287126731E+02  0.66921633600E+03  0.67855713849E+03  0.00000000000E+00 0. -1.
</event>
<event>
 7    1  0.6888431E-006  0.5664361E+02  0.7818608E-02  0.1531633E+00
          2   -1    0    0  502    0  0.00000000000E+00  0.00000000000E+00  0.92398013178E+03  0.92398013178E+03  0.00000000000E+00 0. -1.
          1   -1    0    0  501    0 -0.00000000000E+00 -0.00000000000E+00 -0.39565754821E+02  0.39565754821E+02  0.00000000000E+00 0. -1.
         25    2    1    2    0    0 -0.31212678427E+02 -0.15729074213E+02  0.44180265565E+03  0.46048371387E+03  0.12503611130E+03 0.  0.
          2    1    1    2  501    0  0.55292128542E+02  0.17593340385E+02 -0.17447132970E+01  0.58049884833E+02  0.00000000000E+00 0. -1.
          1    1    1    2  502    0 -0.24079450114E+02 -0.18642661723E+01  0.44435643461E+03  0.44501228791E+03  0.00000000000E+00 0. -1.
         22    1    3    3    0    0 -0.34938897768E+02  0.29409774535E+02  0.38563451197E+03  0.38832929099E+03  0.00000000000E+00 0. -1.
         22    1    3    3    0    0  0.37262193410E+01 -0.45138848748E+02  0.56168143674E+02  0.72154422877E+02  0.00000000000E+00 0. -1.
</event>
<event>
 7    1  0.6888431E-006  0.1353636E+03  0.7818608E-02  0.1258123E+00
          2   -1    0    0  502    0  0.00000000000E+00  0.00000000000E+00  0.10876158616E+04  0.10876158616E+04  0.00000000000E+00 0. -1.
          1   -1    0    0  501    0 -0.00000000000E+00 -0.00000000000E+00 -0.19607836594E+04  0.19607836594E+04  0.00000000000E+00 0. -1.
         25    2    1    2    0    0  0.11539037658E+03 -0.13637444659E+03  0.33705733385E+03  0.40142938150E+03  0.12499989337E+03 0.  0.
          2    1    1    2  501    0 -0.91233767637E+02  0.77974600916E+01 -0.19215419833E+04  0.19237224317E+04  0.00000000000E+00 0. -1.
          1    1    1    2  502    0 -0.24156608944E+02  0.12857698650E+03  0.71131685171E+03  0.72324770773E+03  0.00000000000E+00 0. -1.
         22    1    3    3    0    0  0.44638608055E+02 -0.79535913838E+02  0.27939637139E+03  0.29390627633E+03  0.00000000000E+00 0.  1.
         22    1    3    3    0    0  0.70751768526E+02 -0.56838532750E+02  0.57660962456E+02  0.10752310517E+03  0.00000000000E+00 0.  1.
</event>
<event>
 7    1  0.6888431E-006  0.9168771E+02  0.7818608E-02  0.1335704E+00
          2   -1    0    0  502    0  0.00000000000E+00  0.00000000000E+00  0.31178508262E+04  0.31178508262E+04  0.00000000000E+00 0. -1.
          1   -1    0    0  501    0 -0.00000000000E+00 -0.00000000000E+00 -0.54449345672E+02  0.54449345672E+02  0.00000000000E+00 0. -1.
         25    2    1    2    0    0 -0.32618809934E+01  0.14866248517E+03  0.52659158758E+03  0.56127953287E+03  0.12499935816E+03 0.  0.
          2    1    1    2  501    0  0.23219583065E+02 -0.61619102419E+02 -0.64768525987E+01  0.66166550766E+02  0.00000000000E+00 0. -1.
          1    1    1    2  502    0 -0.19957702072E+02 -0.87043382750E+02  0.25432867455E+04  0.25448540882E+04  0.00000000000E+00 0. -1.
         22    1    3    3    0    0 -0.61725532621E+02  0.10065620984E+03  0.34094850722E+03  0.36081518612E+03  0.00000000000E+00 0. -1.
         22    1    3    3    0    0  0.58463651628E+02  0.48006275325E+02  0.18564308036E+03  0.20046434675E+03  0.00000000000E+00 0. -1.
</event>
<event>
 7    1  0.6888431E-006  0.5533412E+02  0.7818608E-02  0.1474946E+00
          2   -1    0    0  502    0  0.00000000000E+00  0.00000000000E+00  0.26517491237E+03  0.26517491237E+03  0.00000000000E+00 0. -1.
          1   -1    0    0  501    0 -0.00000000000E+00 -0.00000000000E+00 -0.23139547900E+03  0.23139547900E+03  0.00000000000E+00 0. -1.
         25    2    1    2    0    0  0.32809864903E+02 -0.39356891605E+02  0.60714559311E+02  0.14811084052E+03  0.12500044486E+03 0.  0.
          2    1    1    2  501    0 -0.37059159594E+00  0.55954573076E+02 -0.18135886980E+03  0.18979486622E+03  0.00000000000E+00 0. -1.
          1    1    1    2  502    0 -0.32439273307E+02 -0.16597681471E+02  0.15442374386E+03  0.15866468464E+03  0.00000000000E+00 0. -1.
         22    1    3    3    0    0 -0.10994009456E+02 -0.74202633387E+02  0.52449671726E+02  0.91530689441E+02  0.00000000000E+00 0. -1.
         22    1    3    3    0    0  0.43803874359E+02  0.34845741782E+02  0.82648875847E+01  0.56580151077E+02  0.00000000000E+00 0. -1.
</event>
<event>
 7    1  0.6888431E-006  0.8184521E+02  0.7818608E-02  0.1352498E+00
          2   -1    0    0  502    0  0.00000000000E+00  0.00000000000E+00  0.34237992768E+03  0.34237992768E+03  0.00000000000E+00 0. -1.
          1   -1    0    0  501    0 -0.00000000000E+00 -0.00000000000E+00 -0.26955720751E+03  0.26955720751E+03  0.00000000000E+00 0. -1.
         25    2    1    2    0    0  0.52110754104E+02 -0.75045636469E+02 -0.11343302730E+03  0.19193619305E+03  0.12500028909E+03 0.  0.
          2    1    1    2  501    0  0.28306526239E+02  0.57218880416E+02 -0.10193239948E+03  0.12027249796E+03  0.00000000000E+00 0. -1.
          1    1    1    2  502    0 -0.80417280343E+02  0.17826756054E+02  0.28818814695E+03  0.29972844418E+03  0.00000000000E+00 0. -1.
         22    1    3    3    0    0  0.13475408314E+02 -0.18483975336E+02 -0.12088895280E+03  0.12303407204E+03  0.00000000000E+00 0.  1.
         22    1    3    3    0    0  0.38635345790E+02 -0.56561661133E+02  0.74559254997E+01  0.68902121009E+02  0.00000000000E+00 0.  1.
</event>
<event>
 7    1  0.6888431E-006  0.1206920E+03  0.7818608E-02  0.1278440E+00
          2   -1    0    0  502    0  0.00000000000E+00  0.00000000000E+00  0.39889385858E+03  0.39889385858E+03  0.00000000000E+00 0. -1.
          1   -1    0    0  501    0 -0.00000000000E+00 -0.00000000000E+00 -0.14940328407E+04  0.14940328407E+04  0.00000000000E+00 0. -1.
         25    2    1    2    0    0 -0.42946362618E+02 -0.21537460051E+01 -0.54071416905E+02  0.14282076553E+03  0.12500009702E+03 0.  0.
          2    1    1    2  501    0  0.12386628338E+03 -0.21596624795E+02 -0.13876885829E+04  0.13933731997E+04  0.00000000000E+00 0. -1.
          1    1    1    2  502    0 -0.80919920767E+02  0.23750370800E+02  0.34662101768E+03  0.35673273411E+03  0.00000000000E+00 0. -1.
         22    1    3    3    0    0 -0.16521039318E+02  0.25009903609E+02 -0.87372866762E+02  0.92371304337E+02  0.00000000000E+00 0. -1.
         22    1    3    3    0    0 -0.26425323299E+02 -0.27163649614E+02  0.33301449857E+02  0.50449461191E+02  0.00000000000E+00 0. -1.
</event>
<event>
 7    1  0.6888431E-006  0.5398944E+02  0.7818608E-02  0.1559437E+00
          2   -1    0    0  502    0  0.00000000000E+00  0.00000000000E+00  0.17195184662E+03  0.17195184662E+03  0.00000000000E+00 0. -1.
          1   -1    0    0  501    0 -0.00000000000E+00 -0.00000000000E+00 -0.29484181951E+04  0.29484181951E+04  0.00000000000E+00 0. -1.
         25    2    1    2    0    0  0.19358908055E+02  0.30468029905E+02 -0.24756809878E+03  0.27967562284E+03  0.12500168921E+03 0.  0.
          2    1    1    2  501    0 -0.39351193680E+02 -0.37436248197E+02 -0.26838014825E+04  0.26843510177E+04  0.00000000000E+00 0. -1.
          1    1    1    2  502    0  0.19992285626E+02  0.69682182917E+01  0.15490323278E+03  0.15634340113E+03  0.00000000000E+00 0. -1.
         22    1    3    3    0    0  0.26057539555E+02  0.26851140008E+01 -0.24965025392E+03  0.25102082481E+03  0.00000000000E+00 0.  1.
         22    1    3    3    0    0 -0.66986315000E+01  0.27782915904E+02  0.20821551356E+01  0.28654798030E+02  0.00000000000E+00 0.  1.
</event>
<event>
 7    1  0.6888431E-006  0.9961285E+02  0.7818608E-02  0.1339014E+00
          2   -1    0    0  502    0  0.00000000000E+00  0.00000000000E+00  0.13847179121E+03  0.13847179121E+03  0.00000000000E+00 0. -1.
          1   -1    0    0  501    0 -0.00000000000E+00 -0.00000000000E+00 -0.11597329532E+04  0.11597329532E+04  0.00000000000E+00 0. -1.
         25    2    1    2    0    0  0.63385413197E+02 -0.76054808837E+02 -0.15004301090E+03  0.21895175654E+03  0.12499968807E+03 0.  0.
          2    1    1    2  501    0 -0.97007392406E+02  0.27706433630E+02 -0.96405180370E+03  0.96931623367E+03  0.00000000000E+00 0. -1.
          1    1    1    2  502    0  0.33621979209E+02  0.48348375206E+02  0.92833652601E+02  0.10993675421E+03  0.00000000000E+00 0. -1.
         22    1    3    3    0    0  0.14348136505E+02 -0.13369244729E+01  0.21290886579E+02  0.25709108104E+02  0.00000000000E+00 0. -1.
         22    1    3    3    0    0  0.49037276692E+02 -0.74717884364E+02 -0.17133389748E+03  0.19324264843E+03  0.00000000000E+00 0. -1.
</event>
<event>
 7    1  0.6888431E-006  0.5206642E+02  0.7818608E-02  0.1533883E+00
          2   -1    0    0  502    0  0.00000000000E+00  0.00000000000E+00  0.37379683137E+04  0.37379683137E+04  0.00000000000E+00 0. -1.
          1   -1    0    0  501    0 -0.00000000000E+00 -0.00000000000E+00 -0.91281225135E+03  0.91281225135E+03  0.00000000000E+00 0. -1.
         25    2    1    2    0    0  0.60416596898E+02  0.26878632055E+01  0.77395299916E+03  0.78631200377E+03  0.12500373022E+03 0.  0.
          2    1    1    2  501    0 -0.12461874987E+02 -0.22692190419E+02 -0.90621968132E+03  0.90658940246E+03  0.00000000000E+00 0. -1.
          1    1    1    2  502    0 -0.47954721911E+02  0.20004327213E+02  0.29574227445E+04  0.29578791588E+04  0.00000000000E+00 0. -1.
         22    1    3    3    0    0  0.71791236102E+02 -0.14127962764E+02  0.75500419298E+03  0.75854130562E+03  0.00000000000E+00 0.  1.
         22    1    3    3    0    0 -0.11374639204E+02  0.16815825970E+02  0.18948806185E+02  0.27770698153E+02  0.00000000000E+00 0.  1.
</event>
<event>
 7    1  0.6888431E-006  0.1628192E+03  0.7818608E-02  0.1338147E+00
          2   -1    0    0  502    0  0.00000000000E+00  0.00000000000E+00  0.11977260651E+04  0.11977260651E+04  0.00000000000E+00 0. -1.
          1   -1    0    0  501    0 -0.00000000000E+00 -0.00000000000E+00 -0.21557822518E+03  0.21557822518E+03  0.00000000000E+00 0. -1.
         25    2    1    2    0    0  0.71806223900E+02 -0.11195861308E+03  0.19998373458E+03  0.27075613962E+03  0.12499811283E+03 0.  0.
          2    1    1    2  501    0 -0.10009512136E+03  0.13470740029E+03 -0.14068110407E+03  0.21898924644E+03  0.00000000000E+00 0. -1.
          1    1    1    2  502    0  0.28288897457E+02 -0.22748787212E+02  0.92284520938E+03  0.92355890419E+03  0.00000000000E+00 0. -1.
         22    1    3    3    0    0 -0.30846781826E+01 -0.10589429907E+03  0.13351745960E+03  0.17044069301E+03  0.00000000000E+00 0.  1.
         22    1    3    3    0    0  0.74890902082E+02 -0.60643140120E+01  0.66466274979E+02  0.10031544661E+03  0.00000000000E+00 0.  1.
</event>
<event>
 7    1  0.6888431E-006  0.8970704E+02  0.7818608E-02  0.1429698E+00
          2   -1    0    0  502    0  0.00000000000E+00  0.00000000000E+00  0.77447682468E+03  0.77447682468E+03  0.00000000000E+00 0. -1.
          1   -1    0    0  501    0 -0.00000000000E+00 -0.00000000000E+00 -0.12670414105E+03  0.12670414105E+03  0.00000000000E+00 0. -1.
         25    2    1    2    0    0 -0.54929210617E+02 -0.93116553450E+02  0.18300054860E+03  0.24657985494E+03  0.12499805347E+03 0.  0.
          2    1    1    2  501    0  0.62149499391E+02  0.62622306803E+02 -0.73857255967E+02  0.11506088755E+03  0.00000000000E+00 0. -1.
          1    1    1    2  502    0 -0.72202887742E+01  0.30494246646E+02  0.53862939100E+03  0.53954022324E+03  0.00000000000E+00 0. -1.
         22    1    3    3    0    0  0.17451996713E+02 -0.89795208629E+02  0.11746237921E+03  0.14887969039E+03  0.00000000000E+00 0. -1.
         22    1    3    3    0    0 -0.72381207330E+02 -0.33213448204E+01  0.65538169395E+02  0.97700164553E+02  0.00000000000E+00 0. -1.
</event>
<event>
 7    1  0.6888431E-006  0.8195328E+02  0.7818608E-02  0.1493457E+00
          2   -1    0    0  502    0  0.00000000000E+00  0.00000000000E+00  0.63477069368E+03  0.63477069368E+03  0.00000000000E+00 0. -1.
          1   -1    0    0  501    0 -0.00000000000E+00 -0.00000000000E+00 -0.60203249773E+03  0.60203249773E+03  0.00000000000E+00 0. -1.
         25    2    1    2    0    0 -0.43706203903E+02  0.64581018169E+02 -0.24957586571E+02  0.14944793654E+03  0.12502345556E+03 0.  0.
          2    1    1    2  501    0  0.26665737554E+02 -0.77860777172E+02 -0.51133431777E+03  0.51791519259E+03  0.00000000000E+00 0. -1.
          1    1    1    2  502    0  0.17040466349E+02  0.13279759003E+02  0.56903010029E+03  0.56944006228E+03  0.00000000000E+00 0. -1.
         22    1    3    3    0    0  0.23760688835E+02  0.20776602157E+02 -0.55137608297E+02  0.63532616661E+02  0.00000000000E+00 0. -1.
         22    1    3    3    0    0 -0.67466892738E+02  0.43804416011E+02  0.30180021726E+02  0.85915319875E+02  0.00000000000E+00 0. -1.
</event>
<event>
 7    1  0.6888431E-006  0.2126456E+03  0.7818608E-02  0.1262175E+00
          2   -1    0    0  502    0  0.00000000000E+00  0.00000000000E+00  0.18328109711E+04  0.18328109711E+04  0.00000000000E+00 0. -1.
          1   -1    0    0  501    0 -0.00000000000E+00 -0.00000000000E+00 -0.13155052925E+04  0.13155052925E+04  0.00000000000E+00 0. -1.
         25    2    1    2    0    0  0.25530288456E+03 -0.78176660556E+02 -0.28555802700E+03  0.41043869194E+03  0.12500151974E+03 0.  0.
          2    1    1    2  501    0 -0.50801447657E+02  0.23595015424E+02 -0.96036159824E+03  0.96199371683E+03  0.00000000000E+00 0. -1.
          1    1    1    2  502    0 -0.20450143690E+03  0.54581645132E+02  0.17632253038E+04  0.17758838548E+04  0.00000000000E+00 0. -1.
         22    1    3    3    0    0  0.18614920461E+03 -0.59067458330E+02 -0.11802428544E+03  0.22818900710E+03  0.00000000000E+00 0. -1.
         22    1    3    3    0    0  0.69153679951E+02 -0.19109202226E+02 -0.16753374157E+03  0.18224968484E+03  0.00000000000E+00 0. -1.
</event>
<event>
 7    1  0.6888431E-006  0.7548697E+02  0.7818608E-02  0.1378658E+00
          2   -1    0    0  502    0  0.00000000000E+00  0.00000000000E+00  0.44477879630E+03  0.44477879630E+03  0.00000000000E+00 0. -1.
          1   -1    0    0  501    0 -0.00000000000E+00 -0.00000000000E+00 -0.13141390633E+04  0.13141390633E+04  0.00000000000E+00 0. -1.
         25    2    1    2    0    0  0.35569788424E+01 -0.10336686362E+03 -0.75541245649E+03  0.77263865818E+03  0.12500062436E+03 0.  0.
          2    1    1    2  501    0 -0.38107305833E+02  0.59732789605E+02 -0.54603978233E+03  0.55061748683E+03  0.00000000000E+00 0. -1.
          1    1    1    2  502    0  0.34550326990E+02  0.43634074011E+02  0.43209197179E+03  0.43566171463E+03  0.00000000000E+00 0. -1.
         22    1    3    3    0    0 -0.57609605753E+02 -0.28575191882E+02 -0.35122393555E+03  0.35706254518E+03  0.00000000000E+00 0.  1.
         22    1    3    3    0    0  0.61166584596E+02 -0.74791671733E+02 -0.40418852095E+03  0.41557611300E+03  0.00000000000E+00 0.  1.
</event>
<event>
 7    1  0.6888431E-006  0.1033999E+03  0.7818608E-02  0.1309801E+00
          2   -1    0    0  502    0  0.00000000000E+00  0.00000000000E+00  0.13606892167E+03  0.13606892167E+03  0.00000000000E+00 0. -1.
          1   -1    0    0  501    0 -0.00000000000E+00 -0.00000000000E+00 -0.11421233215E+04  0.11421233215E+04  0.00000000000E+00 0. -1.
         25    2    1    2    0    0  0.47332266604E+02  0.12558995700E+02 -0.87665195845E+02  0.16031949389E+03  0.12497632465E+03 0.  0.
          2    1    1    2  501    0 -0.10215953340E+03  0.36426140846E+02 -0.10012435572E+04  0.10071008365E+04  0.00000000000E+00 0. -1.
          1    1    1    2  502    0  0.54827266800E+02 -0.48985136546E+02  0.82854353301E+02  0.11077191272E+03  0.00000000000E+00 0. -1.
         22    1    3    3    0    0  0.50508536150E+02  0.63620937074E+02 -0.40645841133E+02  0.90834025891E+02  0.00000000000E+00 0.  1.
         22    1    3    3    0    0 -0.31762695457E+01 -0.51061941374E+02 -0.47019354712E+02  0.69485467996E+02  0.00000000000E+00 0.  1.
</event>
<event>
 7    1  0.6888431E-006  0.7375367E+02  0.7818608E-02  0.1385374E+00
          2   -1    0    0  502    0  0.00000000000E+00  0.00000000000E+00  0.10034806345E+04  0.10034806345E+04  0.00000000000E+00 0. -1.
          1   -1    0    0  501    0 -0.00000000000E+00 -0.00000000000E+00 -0.16063895178E+04  0.16063895178E+04  0.00000000000E+00 0. -1.
         25    2    1    2    0    0 -0.65941153758E+02 -0.64667249710E+02  0.14087628765E+03  0.20976320759E+03  0.12499754355E+03 0.  0.
          2    1    1    2  501    0  0.72894779087E+02  0.11179872104E+02 -0.15702014752E+04  0.15719323494E+04  0.00000000000E+00 0. -1.
          1    1    1    2  502    0 -0.69536253292E+01  0.53487377607E+02  0.82641630421E+03  0.82817459532E+03  0.00000000000E+00 0. -1.
         22    1    3    3    0    0 -0.49858158354E+02 -0.81301430482E+02  0.15548149835E+03  0.18240135658E+03  0.00000000000E+00 0. -1.
         22    1    3    3    0    0 -0.16082995404E+02  0.16634180772E+02 -0.14605210702E+02  0.27361851012E+02  0.00000000000E+00 0. -1.
</event>
<event>
 7    1  0.6888431E-006  0.6205022E+02  0.7818608E-02  0.1435065E+00
          2   -1    0    0  502    0  0.00000000000E+00  0.00000000000E+00  0.23757269122E+03  0.23757269122E+03  0.00000000000E+00 0. -1.
          1   -1    0    0  501    0 -0.00000000000E+00 -0.00000000000E+00 -0.67547156519E+03  0.67547156519E+03  0.00000000000E+00 0. -1.
         25    2    1    2    0    0  0.64815066958E+02  0.68390306767E+02 -0.83000747897E+01  0.15675363827E+03  0.12499833960E+03 0.  0.
          2    1    1    2  501    0 -0.22796967369E+02 -0.57113762459E+02 -0.58841691750E+03  0.59162162941E+03  0.00000000000E+00 0. -1.
          1    1    1    2  502    0 -0.42018099589E+02 -0.11276544308E+02  0.15881811832E+03  0.16466898874E+03  0.00000000000E+00 0. -1.
         22    1    3    3    0    0  0.30892427227E+02 -0.23273517847E+02 -0.38381492039E+02  0.54489793761E+02  0.00000000000E+00 0.  1.
         22    1    3    3    0    0  0.33922639731E+02  0.91663824614E+02  0.30081417250E+02  0.10226384450E+03  0.00000000000E+00 0.  1.
</event>
<event>
 7    1  0.6888431E-006  0.1521753E+03  0.7818608E-02  0.1274453E+00
          2   -1    0    0  502    0  0.00000000000E+00  0.00000000000E+00  0.55579436081E+03  0.55579436081E+03  0.00000000000E+00 0. -1.
          1   -1    0    0  501    0 -0.00000000000E+00 -0.00000000000E+00 -0.18435037551E+04  0.18435037551E+04  0.00000000000E+00 0. -1.
         25    2    1    2    0    0  0.17627276970E+03  0.64642351673E+02 -0.46502407043E+03  0.51684077148E+03  0.12500509601E+03 0.  0.
          2    1    1    2  501    0 -0.60799554257E+02  0.33643611432E+02 -0.13408045405E+04  0.13426039230E+04  0.00000000000E+00 0. -1.
          1    1    1    2  502    0 -0.11547321544E+03 -0.98285963106E+02  0.51811921658E+03  0.53985342142E+03  0.00000000000E+00 0. -1.
         22    1    3    3    0    0 -0.82019364463E+01  0.26067943009E+02 -0.12623633811E+03  0.12916045244E+03  0.00000000000E+00 0. -1.
         22    1    3    3    0    0  0.18447470614E+03  0.38574408665E+02 -0.33878773232E+03  0.38768031905E+03  0.00000000000E+00 0. -1.
</event>
<event>
 7    1  0.6888431E-006  0.4864360E+02  0.7818608E-02  0.1551830E+00
          2   -1    0    0  502    0  0.00000000000E+00  0.00000000000E+00  0.82454156960E+03  0.82454156960E+03  0.00000000000E+00 0. -1.
          1   -1    0    0  501    0 -0.00000000000E+00 -0.00000000000E+00 -0.12884645769E+03  0.12884645769E+03  0.00000000000E+00 0. -1.
         25    2    1    2    0    0 -0.27463360946E+01  0.64196166322E+02  0.42937236745E+03  0.45179030542E+03  0.12500064004E+03 0.  0.
          2    1    1    2  501    0 -0.14287332524E+02 -0.46355693294E+02 -0.11221848369E+03  0.12225369627E+03  0.00000000000E+00 0. -1.
          1    1    1    2  502    0  0.17033668619E+02 -0.17840473029E+02  0.37854122815E+03  0.37934402560E+03  0.00000000000E+00 0. -1.
         22    1    3    3    0    0 -0.44249108122E+01 -0.31185501379E+02  0.21307024188E+03  0.21538580108E+03  0.00000000000E+00 0.  1.
         22    1    3    3    0    0  0.16785747175E+01  0.95381667702E+02  0.21630212557E+03  0.23640450434E+03  0.00000000000E+00 0.  1.
</event>
<event>
 7    1  0.6888431E-006  0.5732310E+02  0.7818608E-02  0.1551602E+00
          2   -1    0    0  502    0  0.00000000000E+00  0.00000000000E+00  0.50357458928E+03  0.50357458928E+03  0.00000000000E+00 0. -1.
          1   -1    0    0  501    0 -0.00000000000E+00 -0.00000000000E+00 -0.38930896805E+03  0.38930896805E+03  0.00000000000E+00 0. -1.
         25    2    1    2    0    0  0.45623231027E+02 -0.56689845325E+02  0.23423730694E+03  0.27529450512E+03  0.12499892324E+03 0.  0.
          2    1    1    2  501    0 -0.44655947638E+02  0.35750038082E+02 -0.36611392351E+03  0.37055583097E+03  0.00000000000E+00 0. -1.
          1    1    1    2  502    0 -0.96728338943E+00  0.20939807243E+02  0.24614223780E+03  0.24703322124E+03  0.00000000000E+00 0. -1.
         22    1    3    3    0    0 -0.68291586002E+01 -0.36642474825E+02  0.21142373830E+03  0.21468419943E+03  0.00000000000E+00 0.  1.
         22    1    3    3    0    0  0.52452389628E+02 -0.20047370500E+02  0.22813568647E+02  0.60610305692E+02  0.00000000000E+00 0.  1.
</event>
<event>
 7    1  0.6888431E-006  0.6275424E+02  0.7818608E-02  0.1506674E+00
          2   -1    0    0  502    0  0.00000000000E+00  0.00000000000E+00  0.44589495497E+03  0.44589495497E+03  0.00000000000E+00 0. -1.
          1   -1    0    0  501    0 -0.00000000000E+00 -0.00000000000E+00 -0.17476140961E+04  0.17476140961E+04  0.00000000000E+00 0. -1.
         25    2    1    2    0    0  0.12049042097E+02  0.40703058561E+02 -0.15769716822E+03  0.20565855759E+03  0.12500050821E+03 0.  0.
          2    1    1    2  501    0 -0.34688727487E+02 -0.53001306802E+02 -0.15649015634E+04  0.15661830510E+04  0.00000000000E+00 0. -1.
          1    1    1    2  502    0  0.22639685389E+02  0.12298248242E+02  0.42087959051E+03  0.42166744239E+03  0.00000000000E+00 0. -1.
         22    1    3    3    0    0 -0.56123301018E+02  0.27564114693E+02 -0.77766341529E+02  0.99785816681E+02  0.00000000000E+00 0. -1.
         22    1    3    3    0    0  0.68172343115E+02  0.13138943868E+02 -0.79930826696E+02  0.10587274091E+03  0.00000000000E+00 0. -1.
</event>
<event>
 7    1  0.6888431E-006  0.6070374E+02  0.7818608E-02  0.1503717E+00
          2   -1    0    0  502    0  0.00000000000E+00  0.00000000000E+00  0.43248796908E+03  0.43248796908E+03  0.00000000000E+00 0. -1.
          1   -1    0    0  501    0 -0.00000000000E+00 -0.00000000000E+00 -0.13301535516E+03  0.13301535516E+03  0.00000000000E+00 0. -1.
         25    2    1    2    0    0 -0.84412559876E+01 -0.51745527453E+02  0.13778459276E+03  0.19328288003E+03  0.12499929319E+03 0.  0.
          2    1    1    2  501    0  0.25920945164E+02 -0.81680451430E+01 -0.99775842020E+02  0.10341098109E+03  0.00000000000E+00 0. -1.
          1    1    1    2  502    0 -0.17479689176E+02  0.59913572596E+02  0.26146386318E+03  0.26880946312E+03  0.00000000000E+00 0. -1.
         22    1    3    3    0    0  0.11074084612E+01 -0.45220974203E+02 -0.89347200144E+01  0.46108481683E+02  0.00000000000E+00 0. -1.
         22    1    3    3    0    0 -0.95486644487E+01 -0.65245532497E+01  0.14671931278E+03  0.14717439835E+03  0.00000000000E+00 0. -1.
</event>
<event>
 7    1  0.6888431E-006  0.5938089E+02  0.7818608E-02  0.1528295E+00
          2   -1    0    0  502    0  0.00000000000E+00  0.00000000000E+00  0.14867601730E+04  0.14867601730E+04  0.00000000000E+00 0. -1.
          1   -1    0    0  501    0 -0.00000000000E+00 -0.00000000000E+00 -0.40053265540E+02  0.40053265540E+02  0.00000000000E+00 0. -1.
         25    2    1    2    0    0 -0.29225143152E+02  0.44851387304E+02  0.26637727702E+03  0.29907544879E+03  0.12499405754E+03 0.  0.
          2    1    1    2  501    0 -0.20508440052E+02 -0.11578560932E+02 -0.16916791538E+02  0.28997189908E+02  0.00000000000E+00 0. -1.
          1    1    1    2  502    0  0.49733583204E+02 -0.33272826372E+02  0.11972464220E+04  0.11987407999E+04  0.00000000000E+00 0. -1.
         22    1    3    3    0    0 -0.45746324350E+02 -0.18902205351E+02  0.41001328188E+02  0.64273855274E+02  0.00000000000E+00 0.  1.
         22    1    3    3    0    0  0.16521181198E+02  0.63753592654E+02  0.22537594883E+03  0.23480159352E+03  0.00000000000E+00 0.  1.
</event>
<event>
 7    1  0.6888431E-006  0.1410768E+03  0.7818608E-02  0.1290588E+00
          2   -1    0    0  502    0  0.00000000000E+00  0.00000000000E+00  0.35448707712E+04  0.35448707712E+04  0.00000000000E+00 0. -1.
          1   -1    0    0  501    0 -0.00000000000E+00 -0.00000000000E+00 -0.42666474636E+03  0.42666474636E+03  0.00000000000E+00 0. -1.
         25    2    1    2    0    0  0.11293142332E+03 -0.11311132818E+02  0.84078658653E+02  0.18861775282E+03  0.12500395089E+03 0.  0.
          2    1    1    2  501    0  0.20269383795E+02  0.61048279495E+02 -0.37013727554E+03  0.37568516486E+03  0.00000000000E+00 0. -1.
          1    1    1    2  502    0 -0.13320080711E+03 -0.49737146677E+02  0.34042646417E+04  0.34072325999E+04  0.00000000000E+00 0. -1.
         22    1    3    3    0    0  0.47283178050E+02 -0.67488964687E+02  0.39172106907E+02  0.91240962515E+02  0.00000000000E+00 0. -1.
         22    1    3    3    0    0  0.65648245266E+02  0.56177831869E+02  0.44906551746E+02  0.97376790303E+02  0.00000000000E+00 0. -1.
</event>
<event>
 7    1  0.6888431E-006  0.6804751E+02  0.7818608E-02  0.1434756E+00
          2   -1    0    0  502    0  0.00000000000E+00  0.00000000000E+00  0.12230878474E+04  0.12230878474E+04  0.00000000000E+00 0. -1.
          1   -1    0    0  501    0 -0.00000000000E+00 -0.00000000000E+00 -0.26626677757E+03  0.26626677757E+03  0.00000000000E+00 0. -1.
         25    2    1    2    0    0 -0.11430820041E+02 -0.10672272566E+03  0.47169759525E+03  0.49964392130E+03  0.12500009162E+03 0.  0.
          2    1    1    2  501    0  0.95365535446E+01  0.67004919211E+02 -0.24720557716E+03  0.25630295049E+03  0.00000000000E+00 0. -1.
          1    1    1    2  502    0  0.18942664959E+01  0.39717806454E+02  0.73232905175E+03  0.73340775319E+03  0.00000000000E+00 0. -1.
         22    1    3    3    0    0 -0.40405217892E+01 -0.12537462580E+03  0.45915894803E+03  0.47598535919E+03  0.00000000000E+00 0. -1.
         22    1    3    3    0    0 -0.73902982514E+01  0.18651900131E+02  0.12538647220E+02  0.23658562104E+02  0.00000000000E+00 0. -1.
</event>
<event>
 7    1  0.6888431E-006  0.1989950E+03  0.7818608E-02  0.1298615E+00
          2   -1    0    0  502    0  0.00000000000E+00  0.00000000000E+00  0.66107244125E+02  0.66107244125E+02  0.00000000000E+00 0. -1.
          1   -1    0    0  501    0 -0.00000000000E+00 -0.00000000000E+00 -0.14685923545E+04  0.14685923545E+04  0.00000000000E+00 0. -1.
         25    2    1    2    0    0  0.16084589311E+03  0.13851550512E+03 -0.11032073411E+04  0.11303761625E+04  0.12500353984E+03 0.  0.
          2    1    1    2  501    0 -0.11919685036E+03 -0.13098745732E+03 -0.31316889106E+03  0.35977820590E+03  0.00000000000E+00 0. -1.
          1    1    1    2  502    0 -0.41649042755E+02 -0.75280478024E+01  0.13891121773E+02  0.44545230162E+02  0.00000000000E+00 0. -1.
         22    1    3    3    0    0  0.10457756434E+03  0.12950678761E+03 -0.98711955562E+03  0.10010561883E+04  0.00000000000E+00 0.  1.
         22    1    3    3    0    0  0.56268328772E+02  0.90087175131E+01 -0.11608778543E+03  0.12931997425E+03  0.00000000000E+00 0.  1.
</event>
<event>
 7    1  0.6888431E-006  0.1701739E+03  0.7818608E-02  0.1399776E+00
          2   -1    0    0  502    0  0.00000000000E+00  0.00000000000E+00  0.10894836656E+04  0.10894836656E+04  0.00000000000E+00 0. -1.
          1   -1    0    0  501    0 -0.00000000000E+00 -0.00000000000E+00 -0.34983595375E+03  0.34983595375E+03  0.00000000000E+00 0. -1.
         25    2    1    2    0    0  0.10658364123E+03  0.11442672726E+03  0.52327284489E+02  0.20692807050E+03  0.12501013227E+03 0.  0.
          2    1    1    2  501    0 -0.10823521845E+03 -0.13519224880E+03 -0.24489562377E+03  0.29994278319E+03  0.00000000000E+00 0. -1.
          1    1    1    2  502    0  0.16515772271E+01  0.20765521543E+02  0.93221605116E+03  0.93244876569E+03  0.00000000000E+00 0. -1.
         22    1    3    3    0    0  0.44897094904E+02  0.88996851698E+02  0.86486133572E+02  0.13196984520E+03  0.00000000000E+00 0. -1.
         22    1    3    3    0    0  0.61686546323E+02  0.25429875558E+02 -0.34158849083E+02  0.74958225292E+02  0.00000000000E+00 0. -1.
</event>
<event>
 7    1  0.6888431E-006  0.8993077E+02  0.7818608E-02  0.1392623E+00
          2   -1    0    0  502    0  0.00000000000E+00  0.00000000000E+00  0.26334385455E+03  0.26334385455E+03  0.00000000000E+00 0. -1.
          1   -1    0    0  501    0 -0.00000000000E+00 -0.00000000000E+00 -0.15899438898E+04  0.15899438898E+04  0.00000000000E+00 0. -1.
         25    2    1    2    0    0  0.23367564899E+01 -0.11791037481E+03 -0.11051712347E+04  0.11184528645E+04  0.12500014073E+03 0.  0.
          2    1    1    2  501    0  0.25918121935E+02  0.32703461970E+02 -0.46932960339E+03  0.47118100778E+03  0.00000000000E+00 0. -1.
          1    1    1    2  502    0 -0.28254878425E+02  0.85206912844E+02  0.24790080289E+03  0.26365387201E+03  0.00000000000E+00 0. -1.
         22    1    3    3    0    0  0.19537023291E+02 -0.13364037774E+03 -0.71877046984E+03  0.73134973451E+03  0.00000000000E+00 0.  1.
         22    1    3    3    0    0 -0.17200266801E+02  0.15730002928E+02 -0.38640076487E+03  0.38710313001E+03  0.00000000000E+00 0.  1.
</event>
<event>
 7    1  0.6888431E-006  0.9401635E+02  0.7818608E-02  0.1301371E+00
          2   -1    0    0  502    0  0.00000000000E+00  0.00000000000E+00  0.33871811990E+04  0.33871811990E+04  0.00000000000E+00 0. -1.
          1   -1    0    0  501    0 -0.00000000000E+00 -0.00000000000E+00 -0.22222681914E+02  0.22222681914E+02  0.00000000000E+00 0. -1.
         25    2    1    2    0    0  0.58602274076E+01 -0.65609891766E+02  0.69363361614E+03  0.70787906700E+03  0.12500471948E+03 0.  0.
          2    1    1    2  501    0 -0.94973706902E+02  0.35645540752E+02  0.16672557550E+03  0.19516154105E+03  0.00000000000E+00 0. -1.
          1    1    1    2  502    0  0.89113479494E+02  0.29964351014E+02  0.25045993254E+04  0.25063632728E+04  0.00000000000E+00 0. -1.
         22    1    3    3    0    0  0.24961711345E+02  0.32030940755E+02  0.24531766048E+03  0.24865603299E+03  0.00000000000E+00 0. -1.
         22    1    3    3    0    0 -0.19101483938E+02 -0.97640832521E+02  0.44831595566E+03  0.45922303401E+03  0.00000000000E+00 0. -1.
</event>
<event>
 7    1  0.6888431E-006  0.5530401E+02  0.7818608E-02  0.1512069E+00
          2   -1    0    0  502    0  0.00000000000E+00  0.00000000000E+00  0.24903267387E+04  0.24903267387E+04  0.00000000000E+00 0. -1.
          1   -1    0    0  501    0 -0.00000000000E+00 -0.00000000000E+00 -0.95073878005E+03  0.95073878005E+03  0.00000000000E+00 0. -1.
         25    2    1    2    0    0 -0.51950238716E+02 -0.38830682036E+02  0.49603147290E+02  0.14930350683E+03  0.12499766302E+03 0.  0.
          2    1    1    2  501    0  0.26297137563E+02 -0.10140246743E+02 -0.90034848063E+03  0.90078951516E+03  0.00000000000E+00 0. -1.
          1    1    1    2  502    0  0.25653101153E+02  0.48970928780E+02  0.23903332920E+04  0.23909724967E+04  0.00000000000E+00 0. -1.
         22    1    3    3    0    0 -0.59537036487E+02 -0.52337188470E+02  0.81593260613E+02  0.11375983557E+03  0.00000000000E+00 0. -1.
         22    1    3    3    0    0  0.75867977707E+01  0.13506506433E+02 -0.31990113322E+02  0.35543671262E+02  0.00000000000E+00 0. -1.
</event>
<event>
 7    1  0.6888431E-006  0.4702303E+02  0.7818608E-02  0.1581811E+00
          2   -1    0    0  502    0  0.00000000000E+00  0.00000000000E+00  0.26076410260E+04  0.26076410260E+04  0.00000000000E+00 0. -1.
          1   -1    0    0  501    0 -0.00000000000E+00 -0.00000000000E+00 -0.14945646392E+03  0.14945646392E+03  0.00000000000E+00 0. -1.
         25    2    1    2    0    0  0.39582337006E+02  0.53937975252E+02  0.80305442435E+03  0.81547307128E+03  0.12499541966E+03 0.  0.
          2    1    1    2  501    0 -0.99404128687E+01 -0.18652388930E+02 -0.14217053699E+03  0.14373303381E+03  0.00000000000E+00 0. -1.
          1    1    1    2  502    0 -0.29641924138E+02 -0.35285586322E+02  0.17973006747E+04  0.17978913848E+04  0.00000000000E+00 0. -1.
         22    1    3    3    0    0  0.81290932051E+02  0.47836118168E+02  0.44105711968E+03  0.45102981349E+03  0.00000000000E+00 0.  1.
         22    1    3    3    0    0 -0.41708595044E+02  0.61018570833E+01  0.36199730467E+03  0.36444325779E+03  0.00000000000E+00 0.  1.
</event>
<event>
 7    1  0.6888431E-006  0.2202375E+03  0.7818608E-02  0.1218536E+00
          2   -1    0    0  502    0  0.00000000000E+00  0.00000000000E+00  0.17646020279E+03  0.17646020279E+03  0.00000000000E+00 0. -1.
          1   -1    0    0  501    0 -0.00000000000E+00 -0.00000000000E+00 -0.86821761030E+03  0.86821761030E+03  0.00000000000E+00 0. -1.
         25    2    1    2    0    0  0.15256906307E+03 -0.33084802220E+02 -0.30387274625E+03  0.36377929087E+03  0.12499921363E+03 0.  0.
          2    1    1    2  501    0  0.84096975095E+02 -0.47123685563E+01 -0.42947044347E+03  0.43765211007E+03  0.00000000000E+00 0. -1.
          1    1    1    2  502    0 -0.23666603816E+03  0.37797170776E+02  0.41585782208E+02  0.24324641214E+03  0.00000000000E+00 0. -1.
         22    1    3    3    0    0  0.14536457640E+03 -0.68082554685E+02 -0.27233195286E+03  0.31611831151E+03  0.00000000000E+00 0. -1.
         22    1    3    3    0    0  0.72044866715E+01  0.34997752465E+02 -0.31540793399E+02  0.47660979365E+02  0.00000000000E+00 0. -1.
</event>
<event>
 7    1  0.6888431E-006  0.8790487E+02  0.7818608E-02  0.1437000E+00
          2   -1    0    0  502    0  0.00000000000E+00  0.00000000000E+00  0.22513086699E+03  0.22513086699E+03  0.00000000000E+00 0. -1.
          1   -1    0    0  501    0 -0.00000000000E+00 -0.00000000000E+00 -0.12112004257E+04  0.12112004257E+04  0.00000000000E+00 0. -1.
         25    2    1    2    0    0 -0.16682514906E+02  0.60963279109E+02 -0.28268911636E+02  0.14289868788E+03  0.12500430364E+03 0.  0.
          2    1    1    2  501    0  0.43383910603E+01 -0.88597538696E+02 -0.11224879067E+04  0.11259873206E+04  0.00000000000E+00 0. -1.
          1    1    1    2  502    0  0.12344123846E+02  0.27634259587E+02  0.16468725965E+03  0.16744528416E+03  0.00000000000E+00 0. -1.
         22    1    3    3    0    0 -0.29900332582E+02 -0.32622223270E+02 -0.18203785094E+02  0.47849943901E+02  0.00000000000E+00 0.  1.
         22    1    3    3    0    0  0.13217817675E+02  0.93585502379E+02 -0.10065126541E+02  0.95048743979E+02  0.00000000000E+00 0.  1.
</event>
<event>
 7    1  0.6888431E-006  0.6616925E+02  0.7818608E-02  0.1472230E+00
          2   -1    0    0  502    0  0.00000000000E+00  0.00000000000E+00  0.11538797174E+04  0.11538797174E+04  0.00000000000E+00 0. -1.
          1   -1    0    0  501    0 -0.00000000000E+00 -0.00000000000E+00 -0.30501789746E+02  0.30501789746E+02  0.00000000000E+00 0. -1.
         25    2    1    2    0    0  0.63664864286E+02  0.26360373818E+02  0.60296640681E+03  0.61963055211E+03  0.12500179646E+03 0.  0.
          2    1    1    2  501    0 -0.66338203567E+02  0.45919098557E+01  0.29313692462E+02  0.72671421167E+02  0.00000000000E+00 0. -1.
          1    1    1    2  502    0  0.26733392815E+01 -0.30952283673E+02  0.49109782841E+03  0.49207953389E+03  0.00000000000E+00 0. -1.
         22    1    3    3    0    0  0.84966528786E+02 -0.21224905056E+02  0.43619421597E+03  0.44489909154E+03  0.00000000000E+00 0.  1.
         22    1    3    3    0    0 -0.21301664500E+02  0.47585278874E+02  0.16677219084E+03  0.17473146058E+03  0.00000000000E+00 0.  1.
</event>
<event>
 7    1  0.6888431E-006  0.1423384E+03  0.7818608E-02  0.1350087E+00
          2   -1    0    0  502    0  0.00000000000E+00  0.00000000000E+00  0.16782947309E+04  0.16782947309E+04  0.00000000000E+00 0. -1.
          1   -1    0    0  501    0 -0.00000000000E+00 -0.00000000000E+00 -0.16321774587E+04  0.16321774587E+04  0.00000000000E+00 0. -1.
         25    2    1    2    0    0 -0.16205388480E+03 -0.19934718154E+02 -0.41409148934E+03  0.46233665641E+03  0.12499827099E+03 0.  0.
          2    1    1    2  501    0  0.13890565616E+03 -0.95276631471E+01 -0.11896908921E+04  0.11978104927E+04  0.00000000000E+00 0. -1.
          1    1    1    2  502    0  0.23148228638E+02  0.29462381301E+02  0.16498996536E+04  0.16503250405E+04  0.00000000000E+00 0. -1.
         22    1    3    3    0    0 -0.17269717248E+03 -0.44873501717E+02 -0.35491192097E+03  0.39724100517E+03  0.00000000000E+00 0.  1.
         22    1    3    3    0    0  0.10643287682E+02  0.24938783563E+02 -0.59179568363E+02  0.65095651237E+02  0.00000000000E+00 0.  1.
</event>
<event>
 7    1  0.6888431E-006  0.1330002E+03  0.7818608E-02  0.1325746E+00
          2   -1    0    0  502    0  0.00000000000E+00  0.00000000000E+00  0.10545446498E+04  0.10545446498E+04  0.00000000000E+00 0. -1.
          1   -1    0    0  501    0 -0.00000000000E+00 -0.00000000000E+00 -0.10090359804E+04  0.10090359804E+04  0.00000000000E+00 0. -1.
         25    2    1    2    0    0 -0.86203772156E+02  0.50816070658E+02 -0.82730122583E+02  0.18023701240E+03  0.12501097586E+03 0.  0.
          2    1    1    2  501    0  0.13276531977E+03 -0.33880699324E+02 -0.87158669465E+03  0.88229127742E+03  0.00000000000E+00 0. -1.
          1    1    1    2  502    0 -0.46561547613E+02 -0.16935371335E+02  0.99982548659E+03  0.10010523404E+04  0.00000000000E+00 0. -1.
         22    1    3    3    0    0 -0.11684769013E+03  0.24269416606E+02 -0.57365193745E+02  0.13241281178E+03  0.00000000000E+00 0. -1.
         22    1    3    3    0    0  0.30643917972E+02  0.26546654052E+02 -0.25364928838E+02  0.47824200621E+02  0.00000000000E+00 0. -1.
</event>
<event>
 7    1  0.6888431E-006  0.2293396E+03  0.7818608E-02  0.1264341E+00
          2   -1    0    0  502    0  0.00000000000E+00  0.00000000000E+00  0.15470246121E+04  0.15470246121E+04  0.00000000000E+00 0. -1.
          1   -1    0    0  501    0 -0.00000000000E+00 -0.00000000000E+00 -0.59892198174E+03  0.59892198174E+03  0.00000000000E+00 0. -1.
         25    2    1    2    0    0  0.10119755400E+03 -0.17215347118E+03  0.15247949306E+03  0.28062779293E+03  0.12499679912E+03 0.  0.
          2    1    1    2  501    0 -0.80772235488E+02  0.21871911251E+03 -0.50891884972E+03  0.55978620901E+03  0.00000000000E+00 0. -1.
          1    1    1    2  502    0 -0.20425318513E+02 -0.46565641338E+02  0.13045419871E+04  0.13055325919E+04  0.00000000000E+00 0. -1.
         22    1    3    3    0    0  0.57658202003E+02 -0.13926608840E+03  0.16619474749E+03  0.22436623126E+03  0.00000000000E+00 0.  1.
         22    1    3    3    0    0  0.43539351998E+02 -0.32887382771E+02 -0.13715254430E+02  0.56261561674E+02  0.00000000000E+00 0.  1.
</event>
<event>
 7    1  0.6888431E-006  0.6080723E+02  0.7818608E-02  0.1536697E+00
          2   -1    0    0  502    0  0.00000000000E+00  0.00000000000E+00  0.27394863944E+04  0.27394863944E+04  0.00000000000E+00 0. -1.
          1   -1    0    0  501    0 -0.00000000000E+00 -0.00000000000E+00 -0.49803636730E+02  0.49803636730E+02  0.00000000000E+00 0. -1.
         25    2    1    2    0    0 -0.74319957651E+01  0.46423960926E+02  0.10504279552E+03  0.16991291235E+03  0.12500396066E+03 0.  0.
          2    1    1    2  501    0  0.16797129548E+02  0.13837261998E+02 -0.10049597976E+02  0.23970978289E+02  0.00000000000E+00 0. -1.
          1    1    1    2  502    0 -0.93651337827E+01 -0.60261222924E+02  0.25946895601E+04  0.25954061405E+04  0.00000000000E+00 0. -1.
         22    1    3    3    0    0  0.47611385602E+02  0.48869872839E+02  0.89736519170E+02  0.11272866265E+03  0.00000000000E+00 0.  1.
         22    1    3    3    0    0 -0.55043381367E+02 -0.24459119128E+01  0.15306276354E+02  0.57184249695E+02  0.00000000000E+00 0.  1.
</event>
<event>
 7    1  0.6888431E-006  0.1219019E+03  0.7818608E-02  0.1341091E+00
          2   -1    0    0  502    0  0.00000000000E+00  0.00000000000E+00  0.90320905130E+03  0.90320905130E+03  0.00000000000E+00 0. -1.
          1   -1    0    0  501    0 -0.00000000000E+00 -0.00000000000E+00 -0.51343400416E+03  0.51343400416E+03  0.00000000000E+00 0. -1.
         25    2    1    2    0    0  0.69071159001E+02  0.43917625675E+02  0.14040089054E+03  0.20503023831E+03  0.12500162282E+03 0.  0.
          2    1    1    2  501    0  0.37273046864E+02  0.29062359556E+02 -0.47424232766E+03  0.47659173945E+03  0.00000000000E+00 0. -1.
          1    1    1    2  502    0 -0.10634420587E+03 -0.72979985230E+02  0.72361648426E+03  0.73502107770E+03  0.00000000000E+00 0. -1.
         22    1    3    3    0    0  0.67533028450E+02  0.48007373813E+02  0.20904745305E+02  0.85454234818E+02  0.00000000000E+00 0. -1.
         22    1    3    3    0    0  0.15381305509E+01 -0.40897481381E+01  0.11949614524E+03  0.11957600350E+03  0.00000000000E+00 0. -1.
</event>
<event>
 7    1  0.1241862E-005  0.7808406E+02  0.7818608E-02  0.1508018E+00
          2   -1    0    0  502    0  0.00000000000E+00  0.00000000000E+00  0.11919749813E+04  0.11919749813E+04  0.00000000000E+00 0. -1.
          1   -1    0    0  501    0 -0.00000000000E+00 -0.00000000000E+00 -0.18642281122E+04  0.18642281122E+04  0.00000000000E+00 0. -1.
         25    2    1    2    0    0  0.21385127713E+02 -0.92567638109E+02 -0.99107835530E+03  0.10034379604E+04  0.12500137044E+03 0.  0.
          2    1    1    2  501    0  0.62256777516E+01  0.19550294445E+02 -0.86556348192E+03  0.86580662639E+03  0.00000000000E+00 0. -1.
          1    1    1    2  502    0 -0.27610805464E+02  0.73017343664E+02  0.11843887064E+04  0.11869585068E+04  0.00000000000E+00 0. -1.
         22    1    3    3    0    0  0.93266983569E+01  0.29820955414E+02 -0.28743424553E+03  0.28912751891E+03  0.00000000000E+00 0. -1.
         22    1    3    3    0    0  0.12058429356E+02 -0.12238859352E+03 -0.70364410977E+03  0.71431044144E+03  0.00000000000E+00 0. -1.
</event>
<event>
 7    1  0.6888431E-006  0.1063906E+03  0.7818608E-02  0.1277276E+00
          2   -1    0    0  502    0  0.00000000000E+00  0.00000000000E+00  0.20781370966E+03  0.20781370966E+03  0.00000000000E+00 0. -1.
          1   -1    0    0  501    0 -0.00000000000E+00 -0.00000000000E+00 -0.10437571013E+04  0.10437571013E+04  0.00000000000E+00 0. -1.
         25    2    1    2    0    0 -0.64564563801E+02 -0.85848260943E+01 -0.22691855654E+03  0.26713204220E+03  0.12500085813E+03 0.  0.
          2    1    1    2  501    0  0.21869284343E+02 -0.94234463620E+02 -0.77695601724E+03  0.78295533235E+03  0.00000000000E+00 0. -1.
          1    1    1    2  502    0  0.42695279458E+02  0.10281928971E+03  0.16793118212E+03  0.20148343642E+03  0.00000000000E+00 0. -1.
         22    1    3    3    0    0 -0.64575726333E+00 -0.36544097010E+02 -0.17851660905E+03  0.18221983354E+03  0.00000000000E+00 0.  1.
         22    1    3    3    0    0 -0.63918806537E+02  0.27959270915E+02 -0.48401947489E+02  0.84912208663E+02  0.00000000000E+00 0.  1.
</event>
<event>
 7    1  0.6888431E-006  0.1478942E+03  0.7818608E-02  0.1316636E+00
          2   -1    0    0  502    0  0.00000000000E+00  0.00000000000E+00  0.11406463787E+04  0.11406463787E+04  0.00000000000E+00 0. -1.
          1   -1    0    0  501    0 -0.00000000000E+00 -0.00000000000E+00 -0.92303958173E+03  0.92303958173E+03  0.00000000000E+00 0. -1.
         25    2    1    2    0    0 -0.93366005216E+02 -0.46503690949E+02  0.32576076565E+02  0.16603063160E+03  0.12500066264E+03 0.  0.
          2    1    1    2  501    0 -0.47336866391E+02 -0.97312695935E+01 -0.85011037453E+03  0.85148289789E+03  0.00000000000E+00 0. -1.
          1    1    1    2  502    0  0.14070287161E+03  0.56234960543E+02  0.10351410949E+04  0.10461724309E+04  0.00000000000E+00 0. -1.
         22    1    3    3    0    0 -0.35895368204E+02 -0.19076189248E+02 -0.48277027967E+02  0.63111408509E+02  0.00000000000E+00 0. -1.
         22    1    3    3    0    0 -0.57470637012E+02 -0.27427501702E+02  0.80853104532E+02  0.10291922309E+03  0.00000000000E+00 0. -1.
</event>
<event>
 7    1  0.6888431E-006  0.1023991E+03  0.7818608E-02  0.1291516E+00
          2   -1    0    0  502    0  0.00000000000E+00  0.00000000000E+00  0.10460379890E+04  0.10460379890E+04  0.00000000000E+00 0. -1.
          1   -1    0    0  501    0 -0.00000000000E+00 -0.00000000000E+00 -0.11800125837E+04  0.11800125837E+04  0.00000000000E+00 0. -1.
         25    2    1    2    0    0  0.12566471552E+02 -0.13690967160E+02  0.71741470958E+02  0.14531807078E+03  0.12500057700E+03 0.  0.
          2    1    1    2  501    0 -0.96661009946E+02  0.39122782039E+02 -0.11387785357E+04  0.11435429578E+04  0.00000000000E+00 0. -1.
          1    1    1    2  502    0  0.84094538394E+02 -0.25431814878E+02  0.93306247009E+03  0.93718954416E+03  0.00000000000E+00 0. -1.
         22    1    3    3    0    0 -0.71520095089E+01  0.50554836123E+02  0.56985660677E+02  0.76513451224E+02  0.00000000000E+00 0. -1.
         22    1    3    3    0    0  0.19718481061E+02 -0.64245803283E+02  0.14755810281E+02  0.68804619553E+02  0.00000000000E+00 0. -1.
</event>
<event>
 7    1  0.6888431E-006  0.1733715E+03  0.7818608E-02  0.1319199E+00
          2   -1    0    0  502    0  0.00000000000E+00  0.00000000000E+00  0.28060783946E+04  0.28060783946E+04  0.00000000000E+00 0. -1.
          1   -1    0    0  501    0 -0.00000000000E+00 -0.00000000000E+00 -0.76116710012E+03  0.76116710012E+03  0.00000000000E+00 0. -1.
         25    2    1    2    0    0 -0.10466517957E+03 -0.18503106533E+03 -0.36442118694E+03  0.44002146063E+03  0.12499915749E+03 0.  0.
          2    1    1    2  501    0  0.25842632098E+02  0.30908860787E+02 -0.35509928475E+03  0.35737753334E+03  0.00000000000E+00 0. -1.
          1    1    1    2  502    0  0.78822547476E+02  0.15412220454E+03  0.27644317662E+04  0.27698465008E+04  0.00000000000E+00 0. -1.
         22    1    3    3    0    0 -0.78193039168E+02 -0.19772794960E+03 -0.34345093309E+03  0.40394187313E+03  0.00000000000E+00 0.  1.
         22    1    3    3    0    0 -0.26472140406E+02  0.12696884267E+02 -0.20970253845E+02  0.36079587499E+02  0.00000000000E+00 0.  1.
</event>
<event>
 7    1  0.6888431E-006  0.4406444E+02  0.7818608E-02  0.1571721E+00
          2   -1    0    0  502    0  0.00000000000E+00  0.00000000000E+00  0.12778648134E+04  0.12778648134E+04  0.00000000000E+00 0. -1.
          1   -1    0    0  501    0 -0.00000000000E+00 -0.00000000000E+00 -0.27829500962E+03  0.27829500962E+03  0.00000000000E+00 0. -1.
         25    2    1    2    0    0  0.19093644505E+02  0.61630918099E+02  0.26563953555E+03  0.30058866423E+03  0.12500497948E+03 0.  0.
          2    1    1    2  501    0 -0.15637716383E+02 -0.18220886371E+02 -0.25978995183E+03  0.26089721720E+03  0.00000000000E+00 0. -1.
          1    1    1    2  502    0 -0.34559281219E+01 -0.43410031727E+02  0.99372022007E+03  0.99467394158E+03  0.00000000000E+00 0. -1.
         22    1    3    3    0    0 -0.13463575027E+02  0.46858519945E+02  0.20555132138E+02  0.52910322256E+02  0.00000000000E+00 0. -1.
         22    1    3    3    0    0  0.32557219533E+02  0.14772398153E+02  0.24508440341E+03  0.24767834198E+03  0.00000000000E+00 0. -1.
</event>
<event>
 7    1  0.6888431E-006  0.1378494E+03  0.7818608E-02  0.1400181E+00
          2   -1    0    0  502    0  0.00000000000E+00  0.00000000000E+00  0.14089043382E+04  0.14089043382E+04  0.00000000000E+00 0. -1.
          1   -1    0    0  501    0 -0.00000000000E+00 -0.00000000000E+00 -0.20866289070E+03  0.20866289070E+03  0.00000000000E+00 0. -1.
         25    2    1    2    0    0 -0.10257441040E+03  0.60777849999E+02  0.36909028360E+03  0.40751568549E+03  0.12500375894E+03 0.  0.
          2    1    1    2  501    0 -0.14227857535E+02  0.21322267665E+02 -0.18356232313E+03  0.18534345821E+03  0.00000000000E+00 0. -1.
          1    1    1    2  502    0  0.11680226793E+03 -0.82100117664E+02  0.10147134870E+04  0.10247080852E+04  0.00000000000E+00 0. -1.
         22    1    3    3    0    0 -0.47217007004E+02  0.60664924747E+01  0.29903110184E+03  0.30279671060E+03  0.00000000000E+00 0. -1.
         22    1    3    3    0    0 -0.55357403395E+02  0.54711357524E+02  0.70059181761E+02  0.10471897489E+03  0.00000000000E+00 0. -1.
</event>
<event>
 7    1  0.6888431E-006  0.7392719E+02  0.7818608E-02  0.1357581E+00
          2   -1    0    0  502    0  0.00000000000E+00  0.00000000000E+00  0.79941263334E+02  0.79941263334E+02  0.00000000000E+00 0. -1.
          1   -1    0    0  501    0 -0.00000000000E+00 -0.00000000000E+00 -0.66072703852E+03  0.66072703852E+03  0.00000000000E+00 0. -1.
         25    2    1    2    0    0 -0.44935368178E+01  0.12329695025E+03 -0.10441553034E+03  0.20432649125E+03  0.12499752893E+03 0.  0.
          2    1    1    2  501    0  0.34903152672E+02 -0.62813478073E+02 -0.46145993425E+03  0.46702144920E+03  0.00000000000E+00 0. -1.
          1    1    1    2  502    0 -0.30409615854E+02 -0.60483472174E+02 -0.14910310594E+02  0.69320361400E+02  0.00000000000E+00 0. -1.
         22    1    3    3    0    0  0.43280526057E+02  0.13209126725E+02 -0.62600364253E+02  0.77243061625E+02  0.00000000000E+00 0.  1.
         22    1    3    3    0    0 -0.47774062875E+02  0.11008782352E+03 -0.41815166088E+02  0.12708342963E+03  0.00000000000E+00 0.  1.
</event>
<event>
 7    1  0.6888431E-006  0.9592513E+02  0.7818608E-02  0.1331983E+00
          2   -1    0    0  502    0  0.00000000000E+00  0.00000000000E+00  0.28018706823E+04  0.28018706823E+04  0.00000000000E+00 0. -1.
          1   -1    0    0  501    0 -0.00000000000E+00 -0.00000000000E+00 -0.23582385733E+03  0.23582385733E+03  0.00000000000E+00 0. -1.
         25    2    1    2    0    0 -0.18203091188E+02 -0.37534750472E+02  0.13545543354E+03  0.18899031135E+03  0.12501581215E+03 0.  0.
          2    1    1    2  501    0  0.24544501947E+02 -0.60211210675E+02 -0.20306802335E+03  0.21322393059E+03  0.00000000000E+00 0. -1.
          1    1    1    2  502    0 -0.63414107590E+01  0.97745961147E+02  0.26336594148E+04  0.26354802977E+04  0.00000000000E+00 0. -1.
         22    1    3    3    0    0 -0.64855255916E+02 -0.45358698416E+02  0.57576064576E+02  0.97870419198E+02  0.00000000000E+00 0. -1.
         22    1    3    3    0    0  0.46652164728E+02  0.78239479440E+01  0.77879368966E+02  0.91119892152E+02  0.00000000000E+00 0. -1.
</event>
<event>
 7    1  0.6888431E-006  0.1426918E+03  0.7818608E-02  0.1305621E+00
          2   -1    0    0  502    0  0.00000000000E+00  0.00000000000E+00  0.51301804450E+03  0.51301804450E+03  0.00000000000E+00 0. -1.
          1   -1    0    0  501    0 -0.00000000000E+00 -0.00000000000E+00 -0.33820006572E+03  0.33820006572E+03  0.00000000000E+00 0. -1.
         25    2    1    2    0    0  0.11064019956E+03 -0.81661441159E+02 -0.43332312728E+02  0.19080684463E+03  0.12497886981E+03 0.  0.
          2    1    1    2  501    0 -0.36220758838E+02 -0.41845312773E+02 -0.20553760493E+03  0.21285835810E+03  0.00000000000E+00 0. -1.
          1    1    1    2  502    0 -0.74419440722E+02  0.12350675393E+03  0.42368789643E+03  0.44755290749E+03  0.00000000000E+00 0. -1.
         22    1    3    3    0    0 -0.15084833869E+02 -0.46222834615E+02 -0.35015464551E+02  0.59918155933E+02  0.00000000000E+00 0. -1.
         22    1    3    3    0    0  0.12572503343E+03 -0.35438606544E+02 -0.83168481769E+01  0.13088868869E+03  0.00000000000E+00 0. -1.
</event>
<event>
 7    1  0.6888431E-006  0.1079658E+03  0.7818608E-02  0.1314867E+00
          2   -1    0    0  502    0  0.00000000000E+00  0.00000000000E+00  0.66095347113E+03  0.66095347113E+03  0.00000000000E+00 0. -1.
          1   -1    0    0  501    0 -0.00000000000E+00 -0.00000000000E+00 -0.72912495354E+03  0.72912495354E+03  0.00000000000E+00 0. -1.
         25    2    1    2    0    0 -0.71408199608E+02 -0.24347247204E+02 -0.30539027807E+02  0.14916239561E+03  0.12499947451E+03 0.  0.
          2    1    1    2  501    0  0.64550502305E+02  0.91257804801E+02 -0.63247809141E+03  0.64227976023E+03  0.00000000000E+00 0. -1.
          1    1    1    2  502    0  0.68576973025E+01 -0.66910557597E+02  0.59484563681E+03  0.59863626883E+03  0.00000000000E+00 0. -1.
         22    1    3    3    0    0  0.21331349562E+02 -0.44747432951E+02 -0.52313746868E+00  0.49574518683E+02  0.00000000000E+00 0. -1.
         22    1    3    3    0    0 -0.92739549170E+02  0.20400185747E+02 -0.30015890338E+02  0.99587876931E+02  0.00000000000E+00 0. -1.
</event>
<event>
 7    1  0.6888431E-006  0.1468807E+03  0.7818608E-02  0.1218749E+00
          2   -1    0    0  502    0  0.00000000000E+00  0.00000000000E+00  0.30332709691E+03  0.30332709691E+03  0.00000000000E+00 0. -1.
          1   -1    0    0  501    0 -0.00000000000E+00 -0.00000000000E+00 -0.27819441979E+04  0.27819441979E+04  0.00000000000E+00 0. -1.
         25    2    1    2    0    0 -0.11448558387E+03  0.17271168945E+03 -0.22239133003E+03  0.32866299665E+03  0.12500074043E+03 0.  0.
          2    1    1    2  501    0  0.12290406818E+03 -0.27817465301E+02 -0.24836353211E+04  0.24868300363E+04  0.00000000000E+00 0. -1.
          1    1    1    2  502    0 -0.84184843098E+01 -0.14489422415E+03  0.22740955013E+03  0.26977826184E+03  0.00000000000E+00 0. -1.
         22    1    3    3    0    0  0.15032069862E+01  0.32404457960E+02 -0.11008555333E+03  0.11476557663E+03  0.00000000000E+00 0. -1.
         22    1    3    3    0    0 -0.11598879086E+03  0.14030723149E+03 -0.11230577670E+03  0.21389742002E+03  0.00000000000E+00 0. -1.
</event>
<event>
 7    1  0.6888431E-006  0.2321646E+03  0.7818608E-02  0.1231134E+00
          2   -1    0    0  502    0  0.00000000000E+00  0.00000000000E+00  0.18956088757E+04  0.18956088757E+04  0.00000000000E+00 0. -1.
          1   -1    0    0  501    0 -0.00000000000E+00 -0.00000000000E+00 -0.11134723640E+04  0.11134723640E+04  0.00000000000E+00 0. -1.
         25    2    1    2    0    0 -0.16810067052E+03 -0.20502221644E+03 -0.42414320799E+02  0.29616806322E+03  0.12499840959E+03 0.  0.
          2    1    1    2  501    0  0.69955612214E+02 -0.41346057975E+01 -0.93531997664E+03  0.93794154474E+03  0.00000000000E+00 0. -1.
          1    1    1    2  502    0  0.98145058302E+02  0.20915682223E+03  0.17598708091E+04  0.17749716318E+04  0.00000000000E+00 0. -1.
         22    1    3    3    0    0 -0.11521909237E+03 -0.10926292303E+03  0.34437398496E+02  0.16248002957E+03  0.00000000000E+00 0.  1.
         22    1    3    3    0    0 -0.52881578149E+02 -0.95759293406E+02 -0.76851719296E+02  0.13368803364E+03  0.00000000000E+00 0.  1.
</event>
<event>
 7    1  0.6888431E-006  0.1120784E+03  0.7818608E-02  0.1421311E+00
          2   -1    0    0  502    0  0.00000000000E+00  0.00000000000E+00  0.17661046604E+03  0.17661046604E+03  0.00000000000E+00 0. -1.
          1   -1    0    0  501    0 -0.00000000000E+00 -0.00000000000E+00 -0.69046809258E+03  0.69046809258E+03  0.00000000000E+00 0. -1.
         25    2    1    2    0    0 -0.30930130608E+02 -0.85763781544E+02 -0.50726381144E+03  0.53033363314E+03  0.12500035538E+03 0.  0.
          2    1    1    2  501    0  0.93434034540E+01 -0.25054323300E+02 -0.15105255100E+03  0.15340108040E+03  0.00000000000E+00 0. -1.
          1    1    1    2  502    0  0.21586727154E+02  0.11081810484E+03  0.14445873589E+03  0.18334384507E+03  0.00000000000E+00 0. -1.
         22    1    3    3    0    0  0.47886853949E+02 -0.21903504221E+02 -0.19643366361E+03  0.20336936465E+03  0.00000000000E+00 0. -1.
         22    1    3    3    0    0 -0.78816984557E+02 -0.63860277322E+02 -0.31083014783E+03  0.32696426849E+03  0.00000000000E+00 0. -1.
</event>
<event>
 7    1  0.6888431E-006  0.5446728E+02  0.7818608E-02  0.1473275E+00
          2   -1    0    0  502    0  0.00000000000E+00  0.00000000000E+00  0.78944585209E+03  0.78944585209E+03  0.00000000000E+00 0. -1.
          1   -1    0    0  501    0 -0.00000000000E+00 -0.00000000000E+00 -0.20770756653E+04  0.20770756653E+04  0.00000000000E+00 0. -1.
         25    2    1    2    0    0  0.82817399401E+02 -0.73061366595E+00 -0.16866942566E+03  0.22568019005E+03  0.12499167007E+03 0.  0.
          2    1    1    2  501    0 -0.31874351320E+02  0.19683173482E+02 -0.18787432514E+04  0.18791167091E+04  0.00000000000E+00 0. -1.
          1    1    1    2  502    0 -0.50943048081E+02 -0.18952559816E+02  0.75978286393E+03  0.76172461821E+03  0.00000000000E+00 0. -1.
         22    1    3    3    0    0 -0.54478210311E+01  0.28265560660E+02  0.45262321349E+01  0.29139448361E+02  0.00000000000E+00 0. -1.
         22    1    3    3    0    0  0.88265220432E+02 -0.28996174326E+02 -0.17319565780E+03  0.19654074169E+03  0.00000000000E+00 0. -1.
</event>
<event>
 7    1  0.6888431E-006  0.1002710E+03  0.7818608E-02  0.1282450E+00
          2   -1    0    0  502    0  0.00000000000E+00  0.00000000000E+00  0.13320409092E+04  0.13320409092E+04  0.00000000000E+00 0. -1.
          1   -1    0    0  501    0 -0.00000000000E+00 -0.00000000000E+00 -0.11814225808E+03  0.11814225808E+03  0.00000000000E+00 0. -1.
         25    2    1    2    0    0  0.46642916951E+02  0.89805062831E+02  0.42686218245E+03  0.45615461515E+03  0.12500079643E+03 0.  0.
          2    1    1    2  501    0  0.51066264673E+02 -0.89282221701E+02 -0.74479498836E+02  0.12698926823E+03  0.00000000000E+00 0. -1.
          1    1    1    2  502    0 -0.97709181623E+02 -0.52284112993E+00  0.86151596749E+03  0.86703928387E+03  0.00000000000E+00 0. -1.
         22    1    3    3    0    0  0.30128875655E+02 -0.12610956778E+02  0.24183040511E+03  0.24402608512E+03  0.00000000000E+00 0.  1.
         22    1    3    3    0    0  0.16514041296E+02  0.10241601961E+03  0.18503177733E+03  0.21212853004E+03  0.00000000000E+00 0.  1.
</event>
<event>
 7    1  0.6888431E-006  0.8400408E+02  0.7818608E-02  0.1342847E+00
          2   -1    0    0  502    0  0.00000000000E+00  0.00000000000E+00  0.12953535176E+04  0.12953535176E+04  0.00000000000E+00 0. -1.
          1   -1    0    0  501    0 -0.00000000000E+00 -0.00000000000E+00 -0.28046499695E+03  0.28046499695E+03  0.00000000000E+00 0. -1.
         25    2    1    2    0    0  0.24495032098E+02 -0.71301750236E+02  0.22510088384E+03  0.26828997374E+03  0.12500062367E+03 0.  0.
          2    1    1    2  501    0  0.43030723383E+02  0.73280302984E+02 -0.25077134234E+03  0.26477898727E+03  0.00000000000E+00 0. -1.
          1    1    1    2  502    0 -0.67525755481E+02 -0.19785527473E+01  0.10405589792E+04  0.10427495536E+04  0.00000000000E+00 0. -1.
         22    1    3    3    0    0 -0.48196303670E+02 -0.21245055892E+02  0.11997013235E+03  0.13102316109E+03  0.00000000000E+00 0.  1.
         22    1    3    3    0    0  0.72691335768E+02 -0.50056694344E+02  0.10513075149E+03  0.13726681265E+03  0.00000000000E+00 0.  1.
</event>
<event>
 7    1  0.6888431E-006  0.7936431E+02  0.7818608E-02  0.1384407E+00
          2   -1    0    0  502    0  0.00000000000E+00  0.00000000000E+00  0.24999294990E+03  0.24999294990E+03  0.00000000000E+00 0. -1.
          1   -1    0    0  501    0 -0.00000000000E+00 -0.00000000000E+00 -0.12349437628E+04  0.12349437628E+04  0.00000000000E+00 0. -1.
         25    2    1    2    0    0 -0.24993953931E+02  0.31729700112E+02  0.68015033100E+02  0.14793615739E+03  0.12501036091E+03 0.  0.
          2    1    1    2  501    0  0.75276821544E+02 -0.26858867361E+02 -0.11891062767E+04  0.11917893001E+04  0.00000000000E+00 0. -1.
          1    1    1    2  502    0 -0.50282867614E+02 -0.48708327516E+01  0.13614043065E+03  0.14521125523E+03  0.00000000000E+00 0. -1.
         22    1    3    3    0    0 -0.39891486678E+02  0.52022449594E+02  0.92131382885E+02  0.11307456692E+03  0.00000000000E+00 0. -1.
         22    1    3    3    0    0  0.14897532747E+02 -0.20292749482E+02 -0.24116349785E+02  0.34861590475E+02  0.00000000000E+00 0. -1.
</event>
<event>
 7    1  0.6888431E-006  0.1015455E+03  0.7818608E-02  0.1298442E+00
          2   -1    0    0  502    0  0.00000000000E+00  0.00000000000E+00  0.35700819924E+03  0.35700819924E+03  0.00000000000E+00 0. -1.
          1   -1    0    0  501    0 -0.00000000000E+00 -0.00000000000E+00 -0.10574276077E+04  0.10574276077E+04  0.00000000000E+00 0. -1.
         25    2    1    2    0    0  0.15091860549E+02  0.70495057456E+02  0.17650955221E+03  0.22798755780E+03  0.12500154842E+03 0.  0.
          2    1    1    2  501    0  0.66538147621E+02  0.49737692835E+02 -0.99545631684E+03  0.99891663412E+03  0.00000000000E+00 0. -1.
          1    1    1    2  502    0 -0.81630008169E+02 -0.12023275029E+03  0.11852735616E+03  0.18753161503E+03  0.00000000000E+00 0. -1.
         22    1    3    3    0    0 -0.42744745678E+02  0.74960470994E+02  0.10519711447E+03  0.13606108329E+03  0.00000000000E+00 0. -1.
         22    1    3    3    0    0  0.57836606226E+02 -0.44654135373E+01  0.71312437741E+02  0.91926474502E+02  0.00000000000E+00 0. -1.
</event>
<event>
 7    1  0.6888431E-006  0.7734898E+02  0.7818608E-02  0.1383452E+00
          2   -1    0    0  502    0  0.00000000000E+00  0.00000000000E+00  0.16183473328E+04  0.16183473328E+04  0.00000000000E+00 0. -1.
          1   -1    0    0  501    0 -0.00000000000E+00 -0.00000000000E+00 -0.41098440771E+03  0.41098440771E+03  0.00000000000E+00 0. -1.
         25    2    1    2    0    0 -0.72485203350E+02  0.98700491432E+02  0.26374216370E+03  0.31651437452E+03  0.12500211458E+03 0.  0.
          2    1    1    2  501    0  0.43581550904E+02 -0.28798919448E+02 -0.38174117746E+03  0.38529865807E+03  0.00000000000E+00 0. -1.
          1    1    1    2  502    0  0.28903652445E+02 -0.69901571984E+02  0.13253619389E+04  0.13275187079E+04  0.00000000000E+00 0. -1.
         22    1    3    3    0    0 -0.29688484771E+02  0.44280441239E+01 -0.32107704676E+01  0.30188122660E+02  0.00000000000E+00 0. -1.
         22    1    3    3    0    0 -0.42796718579E+02  0.94272447308E+02  0.26695293417E+03  0.28632625186E+03  0.00000000000E+00 0. -1.
</event>
<event>
 7    1  0.6888431E-006  0.1499079E+03  0.7818608E-02  0.1299316E+00
          2   -1    0    0  502    0  0.00000000000E+00  0.00000000000E+00  0.81262065273E+03  0.81262065273E+03  0.00000000000E+00 0. -1.
          1   -1    0    0  501    0 -0.00000000000E+00 -0.00000000000E+00 -0.10785400307E+04  0.10785400307E+04  0.00000000000E+00 0. -1.
         25    2    1    2    0    0 -0.74563160552E+02  0.16941220435E+03 -0.11713955148E+03  0.25220386947E+03  0.12499982945E+03 0.  0.
          2    1    1    2  501    0 -0.17852985113E+02 -0.52888118478E+02 -0.88555932257E+03  0.88731685206E+03  0.00000000000E+00 0. -1.
          1    1    1    2  502    0  0.92416145664E+02 -0.11652408587E+03  0.73677949605E+03  0.75163996193E+03  0.00000000000E+00 0. -1.
         22    1    3    3    0    0  0.33014827613E+01  0.73829760969E+01  0.22926802161E+02  0.24311445490E+02  0.00000000000E+00 0.  1.
         22    1    3    3    0    0 -0.77864643313E+02  0.16202922825E+03 -0.14006635364E+03  0.22789242398E+03  0.00000000000E+00 0.  1.
</event>
<event>
 7    1  0.6888431E-006  0.8112960E+02  0.7818608E-02  0.1397554E+00
          2   -1    0    0  502    0  0.00000000000E+00  0.00000000000E+00  0.25943084453E+02  0.25943084453E+02  0.00000000000E+00 0. -1.
          1   -1    0    0  501    0 -0.00000000000E+00 -0.00000000000E+00 -0.10050698408E+04  0.10050698408E+04  0.00000000000E+00 0. -1.
         25    2    1    2    0    0 -0.39297028888E+02 -0.49694517189E+02 -0.29557507672E+03  0.32711321358E+03  0.12499850800E+03 0.  0.
          2    1    1    2  501    0  0.78231715216E+01 -0.43777959804E+02 -0.42255951771E+03  0.42489323104E+03  0.00000000000E+00 0. -1.
          1    1    1    2  502    0  0.31473857366E+02  0.93472476993E+02 -0.26099216190E+03  0.27900648061E+03  0.00000000000E+00 0. -1.
         22    1    3    3    0    0 -0.19526607945E+02 -0.79660742277E+02 -0.27216357913E+03  0.28425364744E+03  0.00000000000E+00 0.  1.
         22    1    3    3    0    0 -0.19770420943E+02  0.29966225088E+02 -0.23411497592E+02  0.42859566141E+02  0.00000000000E+00 0.  1.
</event>
<event>
 7    1  0.6888431E-006  0.7942316E+02  0.7818608E-02  0.1436978E+00
          2   -1    0    0  502    0  0.00000000000E+00  0.00000000000E+00  0.16449815145E+04  0.16449815145E+04  0.00000000000E+00 0. -1.
          1   -1    0    0  501    0 -0.00000000000E+00 -0.00000000000E+00 -0.19166037320E+02  0.19166037320E+02  0.00000000000E+00 0. -1.
         25    2    1    2    0    0 -0.97344228519E+01 -0.10194673587E+03  0.51915708336E+03  0.54372497975E+03  0.12499952183E+03 0.  0.
          2    1    1    2  501    0  0.21459536246E+02  0.25728746161E+02  0.45700245728E+02  0.56665620393E+02  0.00000000000E+00 0. -1.
          1    1    1    2  502    0 -0.11725113394E+02  0.76217989706E+02  0.10609581481E+04  0.10637569517E+04  0.00000000000E+00 0. -1.
         22    1    3    3    0    0  0.26840330298E+02 -0.51734691981E+01  0.30145614782E+03  0.30269287599E+03  0.00000000000E+00 0. -1.
         22    1    3    3    0    0 -0.36574753150E+02 -0.96773266669E+02  0.21770093554E+03  0.24103210376E+03  0.00000000000E+00 0. -1.
</event>
<event>
 7    1  0.6888431E-006  0.5022425E+02  0.7818608E-02  0.1498834E+00
          2   -1    0    0  502    0  0.00000000000E+00  0.00000000000E+00  0.93347388536E+03  0.93347388536E+03  0.00000000000E+00 0. -1.
          1   -1    0    0  501    0 -0.00000000000E+00 -0.00000000000E+00 -0.58585373688E+03  0.58585373688E+03  0.00000000000E+00 0. -1.
         25    2    1    2    0    0 -0.60623150042E+02 -0.60920619388E+01 -0.17150254463E+03  0.22079443024E+03  0.12499911228E+03 0.  0.
          2    1    1    2  501    0  0.16337389872E+02  0.29779710828E+02 -0.38826938213E+03  0.38975229901E+03  0.00000000000E+00 0. -1.
          1    1    1    2  502    0  0.44285760170E+02 -0.23687648889E+02  0.90739207524E+03  0.90878089299E+03  0.00000000000E+00 0. -1.
         22    1    3    3    0    0 -0.11362471777E+02  0.25172423108E+02 -0.15866960937E+03  0.16105527494E+03  0.00000000000E+00 0. -1.
         22    1    3    3    0    0 -0.49260678265E+02 -0.31264485047E+02 -0.12832935263E+02  0.59739155299E+02  0.00000000000E+00 0. -1.
</event>
<event>
 7    1  0.6888431E-006  0.3676978E+02  0.7818608E-02  0.1563561E+00
          2   -1    0    0  502    0  0.00000000000E+00  0.00000000000E+00  0.54604233860E+02  0.54604233860E+02  0.00000000000E+00 0. -1.
          1   -1    0    0  501    0 -0.00000000000E+00 -0.00000000000E+00 -0.80211993694E+03  0.80211993694E+03  0.00000000000E+00 0. -1.
         25    2    1    2    0    0 -0.32197396614E+02  0.41311962333E+02 -0.62388786182E+03  0.63843825158E+03  0.12499594544E+03 0.  0.
          2    1    1    2  501    0 -0.27601670746E+01 -0.30160353922E+02 -0.16222655927E+03  0.16502945799E+03  0.00000000000E+00 0. -1.
          1    1    1    2  502    0  0.34957563688E+02 -0.11151608411E+02  0.38598718020E+02  0.53256461223E+02  0.00000000000E+00 0. -1.
         22    1    3    3    0    0 -0.77219358916E+02  0.46547675205E+01 -0.34368520210E+03  0.35228399679E+03  0.00000000000E+00 0.  1.
         22    1    3    3    0    0  0.45021962302E+02  0.36657194813E+02 -0.28020265972E+03  0.28615425479E+03  0.00000000000E+00 0.  1.
</event>
<event>
 7    1  0.6888431E-006  0.6136816E+02  0.7818608E-02  0.1541653E+00
          2   -1    0    0  502    0  0.00000000000E+00  0.00000000000E+00  0.18843423569E+03  0.18843423569E+03  0.00000000000E+00 0. -1.
          1   -1    0    0  501    0 -0.00000000000E+00 -0.00000000000E+00 -0.22994626520E+03  0.22994626520E+03  0.00000000000E+00 0. -1.
         25    2    1    2    0    0 -0.42806690508E+02  0.43772815698E+02 -0.84581241323E+02  0.16287348805E+03  0.12500125831E+03 0.  0.
          2    1    1    2  501    0 -0.12485749250E+02 -0.16733686418E+02 -0.98736461019E+02  0.10091976481E+03  0.00000000000E+00 0. -1.
          1    1    1    2  502    0  0.55292439758E+02 -0.27039129281E+02  0.14180567283E+03  0.15458724803E+03  0.00000000000E+00 0. -1.
         22    1    3    3    0    0 -0.17796523282E+02 -0.36323673473E+02  0.42565398533E+01  0.40672393918E+02  0.00000000000E+00 0. -1.
         22    1    3    3    0    0 -0.25010167225E+02  0.80096489172E+02 -0.88837781176E+02  0.12220109413E+03  0.00000000000E+00 0. -1.
</event>
<event>
 7    1  0.6888431E-006  0.5193764E+02  0.7818608E-02  0.1474341E+00
          2   -1    0    0  502    0  0.00000000000E+00  0.00000000000E+00  0.10887024380E+04  0.10887024380E+04  0.00000000000E+00 0. -1.
          1   -1    0    0  501    0 -0.00000000000E+00 -0.00000000000E+00 -0.31269097748E+03  0.31269097748E+03  0.00000000000E+00 0. -1.
         25    2    1    2    0    0  0.72889948115E+02 -0.51458077607E+01  0.13941328246E+03  0.20099922120E+03  0.12500079890E+03 0.  0.
          2    1    1    2  501    0 -0.30456404091E+02 -0.24342639618E+02 -0.27981852417E+03  0.28252179230E+03  0.00000000000E+00 0. -1.
          1    1    1    2  502    0 -0.42433544024E+02  0.29488447379E+02  0.91641670228E+03  0.91787240203E+03  0.00000000000E+00 0. -1.
         22    1    3    3    0    0  0.63367906342E+02  0.26531958686E+02  0.15104656404E+03  0.16593523103E+03  0.00000000000E+00 0.  1.
         22    1    3    3    0    0  0.95220417725E+01 -0.31677766446E+02 -0.11633281588E+02  0.35063990176E+02  0.00000000000E+00 0.  1.
</event>
<event>
 7    1  0.6888431E-006  0.1504586E+03  0.7818608E-02  0.1289596E+00
          2   -1    0    0  502    0  0.00000000000E+00  0.00000000000E+00  0.25528106500E+04  0.25528106500E+04  0.00000000000E+00 0. -1.
          1   -1    0    0  501    0 -0.00000000000E+00 -0.00000000000E+00 -0.43327587303E+03  0.43327587303E+03  0.00000000000E+00 0. -1.
         25    2    1    2    0    0  0.14188354744E+03  0.92703055370E+02 -0.70916331116E+02  0.22220947480E+03  0.12499250842E+03 0.  0.
          2    1    1    2  501    0 -0.14433681931E+03 -0.31875320057E+02 -0.26725955218E+03  0.30541254340E+03  0.00000000000E+00 0. -1.
          1    1    1    2  502    0  0.24532718657E+01 -0.60827735313E+02  0.24577106603E+04  0.24584645049E+04  0.00000000000E+00 0. -1.
         22    1    3    3    0    0 -0.13537731949E+02  0.17821236425E+02 -0.41570006243E+02  0.47211567153E+02  0.00000000000E+00 0. -1.
         22    1    3    3    0    0  0.15542127939E+03  0.74881818945E+02 -0.29346324873E+02  0.17499790764E+03  0.00000000000E+00 0. -1.
</event>
<event>
 7    1  0.6888431E-006  0.8756052E+02  0.7818608E-02  0.1417057E+00
          2   -1    0    0  502    0  0.00000000000E+00  0.00000000000E+00  0.27438656426E+03  0.27438656426E+03  0.00000000000E+00 0. -1.
          1   -1    0    0  501    0 -0.00000000000E+00 -0.00000000000E+00 -0.36166133113E+03  0.36166133113E+03  0.00000000000E+00 0. -1.
         25    2    1    2    0    0  0.11992974529E+03 -0.46208485176E+01  0.62079454743E+02  0.18406709924E+03  0.12498936864E+03 0.  0.
          2    1    1    2  501    0 -0.85822874008E+02 -0.47356533877E+01 -0.29232545656E+03  0.30470012253E+03  0.00000000000E+00 0. -1.
          1    1    1    2  502    0 -0.34106871279E+02  0.93565019053E+01  0.14297123496E+03  0.14728067362E+03  0.00000000000E+00 0. -1.
         22    1    3    3    0    0  0.59079830848E+02  0.60219174613E+02  0.30460178520E+02  0.89691682332E+02  0.00000000000E+00 0. -1.
         22    1    3    3    0    0  0.60849914439E+02 -0.64840023131E+02  0.31619276223E+02  0.94375416903E+02  0.00000000000E+00 0. -1.
</event>
<event>
 7    1  0.6888431E-006  0.5270560E+02  0.7818608E-02  0.1465717E+00
          2   -1    0    0  502    0  0.00000000000E+00  0.00000000000E+00  0.20948717649E+04  0.20948717649E+04  0.00000000000E+00 0. -1.
          1   -1    0    0  501    0 -0.00000000000E+00 -0.00000000000E+00 -0.68521629268E+02  0.68521629268E+02  0.00000000000E+00 0. -1.
         25    2    1    2    0    0 -0.74369298477E+02  0.28792507156E+02  0.15725323904E+03  0.21613249640E+03  0.12499949516E+03 0.  0.
          2    1    1    2  501    0  0.34444471103E+02 -0.37527103032E+02 -0.22169121450E+02  0.55553352710E+02  0.00000000000E+00 0. -1.
          1    1    1    2  502    0  0.39924827374E+02  0.87345958754E+01  0.18912660180E+04  0.18917075450E+04  0.00000000000E+00 0. -1.
         22    1    3    3    0    0 -0.87231677981E+02 -0.24278701083E+02  0.75898553415E+02  0.11814995294E+03  0.00000000000E+00 0. -1.
         22    1    3    3    0    0  0.12862379504E+02  0.53071208239E+02  0.81354685621E+02  0.97982543461E+02  0.00000000000E+00 0. -1.
</event>
<event>
 7    1  0.6888431E-006  0.7448417E+02  0.7818608E-02  0.1432655E+00
          2   -1    0    0  502    0  0.00000000000E+00  0.00000000000E+00  0.19375354600E+04  0.19375354600E+04  0.00000000000E+00 0. -1.
          1   -1    0    0  501    0 -0.00000000000E+00 -0.00000000000E+00 -0.14739757060E+03  0.14739757060E+03  0.00000000000E+00 0. -1.
         25    2    1    2    0    0  0.36796949343E+01 -0.68100888000E+02  0.38936979924E+03  0.41459233175E+03  0.12500675937E+03 0.  0.
          2    1    1    2  501    0 -0.40250463921E+02  0.63130168855E+02 -0.12414872644E+03  0.14497732354E+03  0.00000000000E+00 0. -1.
          1    1    1    2  502    0  0.36570768987E+02  0.49707191457E+01  0.15249168166E+04  0.15253633753E+04  0.00000000000E+00 0. -1.
         22    1    3    3    0    0  0.54566363798E+02 -0.73133170342E+02  0.24625237736E+03  0.26261413142E+03  0.00000000000E+00 0.  1.
         22    1    3    3    0    0 -0.50886668864E+02  0.50322823416E+01  0.14311742187E+03  0.15197820034E+03  0.00000000000E+00 0.  1.
</event>
<event>
 7    1  0.6888431E-006  0.8998732E+02  0.7818608E-02  0.1445096E+00
          2   -1    0    0  502    0  0.00000000000E+00  0.00000000000E+00  0.45364004148E+03  0.45364004148E+03  0.00000000000E+00 0. -1.
          1   -1    0    0  501    0 -0.00000000000E+00 -0.00000000000E+00 -0.13876491837E+03  0.13876491837E+03  0.00000000000E+00 0. -1.
         25    2    1    2    0    0 -0.40770085082E+02 -0.51940986688E+02 -0.15292422798E+02  0.14219391181E+03  0.12500073770E+03 0.  0.
          2    1    1    2  501    0 -0.25278659162E+02 -0.11645804766E+02 -0.51038936057E+02  0.58134399210E+02  0.00000000000E+00 0. -1.
          1    1    1    2  502    0  0.66048744244E+02  0.63586791455E+02  0.38120648196E+03  0.39207664883E+03  0.00000000000E+00 0. -1.
         22    1    3    3    0    0  0.57715736783E+01 -0.35154071398E+02 -0.63693814116E+02  0.72979598213E+02  0.00000000000E+00 0.  1.
         22    1    3    3    0    0 -0.46541658761E+02 -0.16786915291E+02  0.48401391318E+02  0.69214313597E+02  0.00000000000E+00 0.  1.
</event>
<event>
 7    1  0.6888431E-006  0.7655983E+02  0.7818608E-02  0.1374317E+00
          2   -1    0    0  502    0  0.00000000000E+00  0.00000000000E+00  0.20972812783E+03  0.20972812783E+03  0.00000000000E+00 0. -1.
          1   -1    0    0  501    0 -0.00000000000E+00 -0.00000000000E+00 -0.71220273888E+03  0.71220273888E+03  0.00000000000E+00 0. -1.
         25    2    1    2    0    0  0.59064840315E+02 -0.65521210467E+02 -0.35830976738E+03  0.38960550056E+03  0.12499948915E+03 0.  0.
          2    1    1    2  501    0  0.16839384959E+02  0.54314392408E+02 -0.32811954914E+03  0.33301059538E+03  0.00000000000E+00 0. -1.
          1    1    1    2  502    0 -0.75904225274E+02  0.11206818059E+02  0.18395470546E+03  0.19931477077E+03  0.00000000000E+00 0. -1.
         22    1    3    3    0    0  0.68935977603E+02  0.15874568698E+02 -0.17731601841E+03  0.19090610604E+03  0.00000000000E+00 0.  1.
         22    1    3    3    0    0 -0.98711372873E+01 -0.81395779165E+02 -0.18099374897E+03  0.19869939452E+03  0.00000000000E+00 0.  1.
</event>
<event>
 7    1  0.6888431E-006  0.6768324E+02  0.7818608E-02  0.1462061E+00
          2   -1    0    0  502    0  0.00000000000E+00  0.00000000000E+00  0.22783821276E+03  0.22783821276E+03  0.00000000000E+00 0. -1.
          1   -1    0    0  501    0 -0.00000000000E+00 -0.00000000000E+00 -0.58884889758E+03  0.58884889758E+03  0.00000000000E+00 0. -1.
         25    2    1    2    0    0 -0.84631155057E+02  0.52503496480E+02 -0.34419358034E+03  0.37949072776E+03  0.12499976863E+03 0.  0.
          2    1    1    2  501    0  0.25715976334E+02 -0.20161287621E+02 -0.22039860815E+03  0.22280784419E+03  0.00000000000E+00 0. -1.
          1    1    1    2  502    0  0.58915178723E+02 -0.32342208859E+02  0.20358150367E+03  0.21438853839E+03  0.00000000000E+00 0. -1.
         22    1    3    3    0    0 -0.58830937030E+02  0.84056299490E+02 -0.15447157835E+03  0.18544004193E+03  0.00000000000E+00 0. -1.
         22    1    3    3    0    0 -0.25800218027E+02 -0.31552803010E+02 -0.18972200199E+03  0.19405068582E+03  0.00000000000E+00 0. -1.
</event>
<event>
 7    1  0.6888431E-006  0.4755514E+02  0.7818608E-02  0.1472453E+00
          2   -1    0    0  502    0  0.00000000000E+00  0.00000000000E+00  0.10068001243E+04  0.10068001243E+04  0.00000000000E+00 0. -1.
          1   -1    0    0  501    0 -0.00000000000E+00 -0.00000000000E+00 -0.13714412115E+04  0.13714412115E+04  0.00000000000E+00 0. -1.
         25    2    1    2    0    0 -0.64207906296E+02  0.41566508284E+02 -0.42144475548E-01  0.14654569186E+03  0.12500083273E+03 0.  0.
          2    1    1    2  501    0  0.47412367319E+02 -0.18091726740E+01 -0.12972145205E+04  0.12980819381E+04  0.00000000000E+00 0. -1.
          1    1    1    2  502    0  0.16795538977E+02 -0.39757335610E+02  0.93261557783E+03  0.93361370592E+03  0.00000000000E+00 0. -1.
         22    1    3    3    0    0 -0.59399077246E+02 -0.35530272471E+02 -0.25048617726E+01  0.69259836645E+02  0.00000000000E+00 0. -1.
         22    1    3    3    0    0 -0.48088290501E+01  0.77096780755E+02  0.24627172970E+01  0.77285855214E+02  0.00000000000E+00 0. -1.
</event>
<event>
 7    1  0.6888431E-006  0.7803645E+02  0.7818608E-02  0.1401541E+00
          2   -1    0    0  502    0  0.00000000000E+00  0.00000000000E+00  0.18506762001E+03  0.18506762001E+03  0.00000000000E+00 0. -1.
          1   -1    0    0  501    0 -0.00000000000E+00 -0.00000000000E+00 -0.24225840660E+04  0.24225840660E+04  0.00000000000E+00 0. -1.
         25    2    1    2    0    0  0.19898965025E+02  0.28104104792E+02 -0.32647498878E+03  0.35127810976E+03  0.12499833034E+03 0.  0.
          2    1    1    2  501    0  0.24005670178E+02  0.37821329441E+02 -0.20743692676E+04  0.20748529065E+04  0.00000000000E+00 0. -1.
          1    1    1    2  502    0 -0.43904635204E+02 -0.65925434233E+02  0.16332781044E+03  0.18152066971E+03  0.00000000000E+00 0. -1.
         22    1    3    3    0    0 -0.15869503177E+02  0.11805422117E+02 -0.30659056780E+03  0.30722790463E+03  0.00000000000E+00 0.  1.
         22    1    3    3    0    0  0.35768468202E+02  0.16298682674E+02 -0.19884420977E+02  0.44050205130E+02  0.00000000000E+00 0.  1.
</event>
<event>
 7    1  0.6888431E-006  0.8007942E+02  0.7818608E-02  0.1384026E+00
          2   -1    0    0  502    0  0.00000000000E+00  0.00000000000E+00  0.11871810674E+04  0.11871810674E+04  0.00000000000E+00 0. -1.
          1   -1    0    0  501    0 -0.00000000000E+00 -0.00000000000E+00 -0.72824463762E+03  0.72824463762E+03  0.00000000000E+00 0. -1.
         25    2    1    2    0    0  0.80090173298E+02  0.24166736260E+02 -0.42540487865E+03  0.45121254344E+03  0.12499992630E+03 0.  0.
          2    1    1    2  501    0 -0.42660855882E+01 -0.50040391456E+02 -0.28638170555E+03  0.29075199318E+03  0.00000000000E+00 0. -1.
          1    1    1    2  502    0 -0.75824087710E+02  0.25873655196E+02  0.11707230140E+04  0.11734611684E+04  0.00000000000E+00 0. -1.
         22    1    3    3    0    0 -0.53182059011E+01  0.44533935319E+02 -0.57218719756E+02  0.72701695988E+02  0.00000000000E+00 0. -1.
         22    1    3    3    0    0  0.85408379199E+02 -0.20367199060E+02 -0.36818615889E+03  0.37851084745E+03  0.00000000000E+00 0. -1.
</event>
<event>
 7    1  0.6888431E-006  0.3468702E+02  0.7818608E-02  0.1575457E+00
          2   -1    0    0  502    0  0.00000000000E+00  0.00000000000E+00  0.37855926909E+04  0.37855926909E+04  0.00000000000E+00 0. -1.
          1   -1    0    0  501    0 -0.00000000000E+00 -0.00000000000E+00 -0.22903530292E+03  0.22903530292E+03  0.00000000000E+00 0. -1.
         25    2    1    2    0    0  0.48779583370E+02 -0.16893558667E+02  0.28905248677E+04  0.28936869129E+04  0.12500039708E+03 0.  0.
          2    1    1    2  501    0 -0.20976170910E+02  0.27621128679E+02 -0.22588180477E+03  0.22852902709E+03  0.00000000000E+00 0. -1.
          1    1    1    2  502    0 -0.27803412460E+02 -0.10727570012E+02  0.89191432505E+03  0.89241205378E+03  0.00000000000E+00 0. -1.
         22    1    3    3    0    0  0.10858190191E+02  0.45734068149E+02  0.18464462681E+04  0.18470444841E+04  0.00000000000E+00 0. -1.
         22    1    3    3    0    0  0.37921393179E+02 -0.62627626816E+02  0.10440785996E+04  0.10466424289E+04  0.00000000000E+00 0. -1.
</event>
<event>
 7    1  0.6888431E-006  0.1084956E+03  0.7818608E-02  0.1328362E+00
          2   -1    0    0  502    0  0.00000000000E+00  0.00000000000E+00  0.35460806184E+03  0.35460806184E+03  0.00000000000E+00 0. -1.
          1   -1    0    0  501    0 -0.00000000000E+00 -0.00000000000E+00 -0.41415944443E+03  0.41415944443E+03  0.00000000000E+00 0. -1.
         25    2    1    2    0    0 -0.47572631721E+02  0.19602450498E+02 -0.21386471600E+03  0.25300170710E+03  0.12499734274E+03 0.  0.
          2    1    1    2  501    0 -0.55907892549E+02  0.19912098155E+02 -0.16629180996E+03  0.17656486106E+03  0.00000000000E+00 0. -1.
          1    1    1    2  502    0  0.10348052427E+03 -0.39514548652E+02  0.32060514337E+03  0.33920093811E+03  0.00000000000E+00 0. -1.
         22    1    3    3    0    0 -0.49376621517E+02  0.22986012566E+02 -0.23002893594E+03  0.23638891450E+03  0.00000000000E+00 0. -1.
         22    1    3    3    0    0  0.18039897958E+01 -0.33835620686E+01  0.16164219948E+02  0.16612792601E+02  0.00000000000E+00 0. -1.
</event>
<event>
 7    1  0.6888431E-006  0.1103671E+03  0.7818608E-02  0.1332090E+00
          2   -1    0    0  502    0  0.00000000000E+00  0.00000000000E+00  0.24840718220E+02  0.24840718220E+02  0.00000000000E+00 0. -1.
          1   -1    0    0  501    0 -0.00000000000E+00 -0.00000000000E+00 -0.18060674388E+04  0.18060674388E+04  0.00000000000E+00 0. -1.
         25    2    1    2    0    0  0.20904476728E+02 -0.83169711027E+02 -0.46907069197E+03  0.49295507267E+03  0.12499276627E+03 0.  0.
          2    1    1    2  501    0  0.25637211921E+02  0.11513291266E+03 -0.12434166627E+04  0.12489987396E+04  0.00000000000E+00 0. -1.
          1    1    1    2  502    0 -0.46541688649E+02 -0.31963201632E+02 -0.68739365886E+02  0.88954344825E+02  0.00000000000E+00 0. -1.
         22    1    3    3    0    0 -0.24791416838E+02  0.22574736308E+02 -0.70429567338E+02  0.78003570583E+02  0.00000000000E+00 0.  1.
         22    1    3    3    0    0  0.45695893566E+02 -0.10574444734E+03 -0.39864112463E+03  0.41495150208E+03  0.00000000000E+00 0.  1.
</event>
<event>
 7    1  0.6888431E-006  0.8439437E+02  0.7818608E-02  0.1376697E+00
          2   -1    0    0  502    0  0.00000000000E+00  0.00000000000E+00  0.20160122473E+04  0.20160122473E+04  0.00000000000E+00 0. -1.
          1   -1    0    0  501    0 -0.00000000000E+00 -0.00000000000E+00 -0.25114224233E+04  0.25114224233E+04  0.00000000000E+00 0. -1.
         25    2    1    2    0    0  0.94564369806E+02 -0.15432798029E+02 -0.12911163425E+03  0.20365455221E+03  0.12499908498E+03 0.  0.
          2    1    1    2  501    0 -0.16600950872E+02  0.47786324873E+02 -0.23438660784E+04  0.23444119344E+04  0.00000000000E+00 0. -1.
          1    1    1    2  502    0 -0.77963418934E+02 -0.32353526844E+02  0.19775675367E+04  0.19793681839E+04  0.00000000000E+00 0. -1.
         22    1    3    3    0    0 -0.56718511386E+00 -0.26672290366E+02 -0.10005622354E+03  0.10355182587E+03  0.00000000000E+00 0.  1.
         22    1    3    3    0    0  0.95131554920E+02  0.11239492337E+02 -0.29055410712E+02  0.10010272634E+03  0.00000000000E+00 0.  1.
</event>
<event>
 7    1  0.6888431E-006  0.1361602E+03  0.7818608E-02  0.1300823E+00
          2   -1    0    0  502    0  0.00000000000E+00  0.00000000000E+00  0.13880586235E+04  0.13880586235E+04  0.00000000000E+00 0. -1.
          1   -1    0    0  501    0 -0.00000000000E+00 -0.00000000000E+00 -0.22611637293E+03  0.22611637293E+03  0.00000000000E+00 0. -1.
         25    2    1    2    0    0  0.17951076845E+03  0.71943920566E+02 -0.11472355573E+03  0.25726684189E+03  0.12499876001E+03 0.  0.
          2    1    1    2  501    0 -0.59919182072E+02 -0.91129258081E+01 -0.11490238729E+02  0.61687757156E+02  0.00000000000E+00 0. -1.
          1    1    1    2  502    0 -0.11959158638E+03 -0.62830994758E+02  0.12881560451E+04  0.12952203974E+04  0.00000000000E+00 0. -1.
         22    1    3    3    0    0  0.50405728810E+02  0.84746694697E+02 -0.66132561743E+02  0.11872765256E+03  0.00000000000E+00 0. -1.
         22    1    3    3    0    0  0.12910503964E+03 -0.12802774131E+02 -0.48590993986E+02  0.13853918934E+03  0.00000000000E+00 0. -1.
</event>
<event>
 7    1  0.6888431E-006  0.8289047E+02  0.7818608E-02  0.1400510E+00
          2   -1    0    0  502    0  0.00000000000E+00  0.00000000000E+00  0.14862985241E+03  0.14862985241E+03  0.00000000000E+00 0. -1.
          1   -1    0    0  501    0 -0.00000000000E+00 -0.00000000000E+00 -0.16340796717E+04  0.16340796717E+04  0.00000000000E+00 0. -1.
         25    2    1    2    0    0  0.83669531937E+02  0.30043105654E+02 -0.42111826174E+03  0.44818508251E+03  0.12500439608E+03 0.  0.
          2    1    1    2  501    0 -0.15888721184E+01 -0.42488752475E+02 -0.11862569809E+04  0.11870187207E+04  0.00000000000E+00 0. -1.
          1    1    1    2  502    0 -0.82080659819E+02  0.12445646820E+02  0.12192542334E+03  0.14750572090E+03  0.00000000000E+00 0. -1.
         22    1    3    3    0    0  0.16217107562E+02 -0.46309432978E+02 -0.17663910474E+03  0.18332738880E+03  0.00000000000E+00 0.  1.
         22    1    3    3    0    0  0.67452424375E+02  0.76352538632E+02 -0.24447915700E+03  0.26485769371E+03  0.00000000000E+00 0.  1.
</event>
<event>
 7    1  0.6888431E-006  0.1126307E+03  0.7818608E-02  0.1377631E+00
          2   -1    0    0  502    0  0.00000000000E+00  0.00000000000E+00  0.64595958719E+03  0.64595958719E+03  0.00000000000E+00 0. -1.
          1   -1    0    0  501    0 -0.00000000000E+00 -0.00000000000E+00 -0.12441419767E+04  0.12441419767E+04  0.00000000000E+00 0. -1.
         25    2    1    2    0    0  0.12113145569E+02 -0.13745114005E+03  0.34040653166E+03  0.38799582375E+03  0.12499843301E+03 0.  0.
          2    1    1    2  501    0  0.83910643553E+01  0.36668895118E+02 -0.12106602186E+04  0.12112444769E+04  0.00000000000E+00 0. -1.
          1    1    1    2  502    0 -0.20504209924E+02  0.10078224493E+03  0.27207129749E+03  0.29086126321E+03  0.00000000000E+00 0. -1.
         22    1    3    3    0    0  0.94568530000E+01  0.22534309917E+02  0.29303251463E+02  0.38156359082E+02  0.00000000000E+00 0. -1.
         22    1    3    3    0    0  0.26562925687E+01 -0.15998544997E+03  0.31110328019E+03  0.34983946467E+03  0.00000000000E+00 0. -1.
</event>
<event>
 7    1  0.6888431E-006  0.1263097E+03  0.7818608E-02  0.1413686E+00
          2   -1    0    0  502    0  0.00000000000E+00  0.00000000000E+00  0.71017697816E+03  0.71017697816E+03  0.00000000000E+00 0. -1.
          1   -1    0    0  501    0 -0.00000000000E+00 -0.00000000000E+00 -0.17303750443E+03  0.17303750443E+03  0.00000000000E+00 0. -1.
         25    2    1    2    0    0  0.81162060473E+02 -0.93827412319E+02  0.23231176379E+03  0.29152101552E+03  0.12499953413E+03 0.  0.
          2    1    1    2  501    0 -0.10033061001E+03  0.77522028963E+02 -0.11496236538E+03  0.17114976404E+03  0.00000000000E+00 0. -1.
          1    1    1    2  502    0  0.19168549538E+02  0.16305383356E+02  0.41979007532E+03  0.42054370303E+03  0.00000000000E+00 0. -1.
         22    1    3    3    0    0 -0.29369337231E+02 -0.35955176449E+02  0.96578253217E+02  0.10715732209E+03  0.00000000000E+00 0. -1.
         22    1    3    3    0    0  0.11053139770E+03 -0.57872235870E+02  0.13573351058E+03  0.18436369343E+03  0.00000000000E+00 0. -1.
</event>
<event>
 7    1  0.6888431E-006  0.4794058E+02  0.7818608E-02  0.1501239E+00
          2   -1    0    0  502    0  0.00000000000E+00  0.00000000000E+00  0.65911528979E+03  0.65911528979E+03  0.00000000000E+00 0. -1.
          1   -1    0    0  501    0 -0.00000000000E+00 -0.00000000000E+00 -0.30534673783E+03  0.30534673783E+03  0.00000000000E+00 0. -1.
         25    2    1    2    0    0 -0.21933565153E+02 -0.15724334408E+02  0.91161055501E+02  0.15704916544E+03  0.12500306537E+03 0.  0.
          2    1    1    2  501    0  0.13234178290E+02 -0.32403430501E+02 -0.27015358914E+03  0.27241161412E+03  0.00000000000E+00 0. -1.
          1    1    1    2  502    0  0.86993868629E+01  0.48127764909E+02  0.53276108560E+03  0.53500124805E+03  0.00000000000E+00 0. -1.
         22    1    3    3    0    0  0.80863507443E+00 -0.64275044115E+02  0.79405145019E+02  0.10216218597E+03  0.00000000000E+00 0. -1.
         22    1    3    3    0    0 -0.22742200227E+02  0.48550709706E+02  0.11755910482E+02  0.54886979471E+02  0.00000000000E+00 0. -1.
</event>
<event>
 7    1  0.6888431E-006  0.4601152E+02  0.7818608E-02  0.1493380E+00
          2   -1    0    0  502    0  0.00000000000E+00  0.00000000000E+00  0.73748978434E+02  0.73748978434E+02  0.00000000000E+00 0. -1.
          1   -1    0    0  501    0 -0.00000000000E+00 -0.00000000000E+00 -0.23064907358E+04  0.23064907358E+04  0.00000000000E+00 0. -1.
         25    2    1    2    0    0  0.11577148976E+02 -0.12711596841E+02 -0.93607608974E+03  0.94454184157E+03  0.12500091848E+03 0.  0.
          2    1    1    2  501    0 -0.49286954260E+02  0.49489353971E+01 -0.13603654637E+04  0.13612670166E+04  0.00000000000E+00 0. -1.
          1    1    1    2  502    0  0.37709805284E+02  0.77626614441E+01  0.63699795996E+02  0.74430856082E+02  0.00000000000E+00 0. -1.
         22    1    3    3    0    0  0.39905894217E+02 -0.30309650359E+02 -0.86022001466E+03  0.86167837905E+03  0.00000000000E+00 0.  1.
         22    1    3    3    0    0 -0.28328745240E+02  0.17598053518E+02 -0.75856075087E+02  0.82863462528E+02  0.00000000000E+00 0.  1.
</event>
<event>
 7    1  0.6888431E-006  0.8610972E+02  0.7818608E-02  0.1351404E+00
          2   -1    0    0  502    0  0.00000000000E+00  0.00000000000E+00  0.86349455254E+03  0.86349455254E+03  0.00000000000E+00 0. -1.
          1   -1    0    0  501    0 -0.00000000000E+00 -0.00000000000E+00 -0.36797384015E+03  0.36797384015E+03  0.00000000000E+00 0. -1.
         25    2    1    2    0    0 -0.61936891304E+02 -0.62313052798E+02 -0.46651215984E+02  0.15974976620E+03  0.12499822716E+03 0.  0.
          2    1    1    2  501    0 -0.24394927528E+02  0.56174824160E+02 -0.25886937851E+03  0.26601518469E+03  0.00000000000E+00 0. -1.
          1    1    1    2  502    0  0.86331818833E+02  0.61382286385E+01  0.80104130688E+03  0.80570344179E+03  0.00000000000E+00 0. -1.
         22    1    3    3    0    0  0.17723140494E+02  0.19159606256E+02 -0.37159939654E+02  0.45409925522E+02  0.00000000000E+00 0.  1.
         22    1    3    3    0    0 -0.79660031799E+02 -0.81472659054E+02 -0.94912763300E+01  0.11433984068E+03  0.00000000000E+00 0.  1.
</event>
<event>
 7    1  0.6888431E-006  0.9663672E+02  0.7818608E-02  0.1412386E+00
          2   -1    0    0  502    0  0.00000000000E+00  0.00000000000E+00  0.21273722112E+04  0.21273722112E+04  0.00000000000E+00 0. -1.
          1   -1    0    0  501    0 -0.00000000000E+00 -0.00000000000E+00 -0.24289567849E+04  0.24289567849E+04  0.00000000000E+00 0. -1.
         25    2    1    2    0    0 -0.83559042096E+01 -0.68652537340E+02  0.23492564398E+02  0.14477539787E+03  0.12500009291E+03 0.  0.
          2    1    1    2  501    0 -0.97919082759E+01  0.96485301676E+02 -0.23671873400E+04  0.23691731041E+04  0.00000000000E+00 0. -1.
          1    1    1    2  502    0  0.18147812486E+02 -0.27832764336E+02  0.20421102019E+04  0.20423804941E+04  0.00000000000E+00 0. -1.
         22    1    3    3    0    0  0.24749201867E+02  0.10270778308E+02  0.48674158541E+02  0.55562447658E+02  0.00000000000E+00 0. -1.
         22    1    3    3    0    0 -0.33105106076E+02 -0.78923315648E+02 -0.25181594143E+02  0.89212950208E+02  0.00000000000E+00 0. -1.
</event>
<event>
 7    1  0.6888431E-006  0.1275293E+03  0.7818608E-02  0.1374764E+00
          2   -1    0    0  502    0  0.00000000000E+00  0.00000000000E+00  0.15961337902E+04  0.15961337902E+04  0.00000000000E+00 0. -1.
          1   -1    0    0  501    0 -0.00000000000E+00 -0.00000000000E+00 -0.99930133186E+02  0.99930133186E+02  0.00000000000E+00 0. -1.
         25    2    1    2    0    0 -0.99746492779E+02 -0.72375036981E+02  0.25267182995E+03  0.30766021228E+03  0.12499697503E+03 0.  0.
          2    1    1    2  501    0 -0.20500796723E+02  0.27139905879E+02 -0.65116371090E+02  0.73464269828E+02  0.00000000000E+00 0. -1.
          1    1    1    2  502    0  0.12024728950E+03  0.45235131102E+02  0.13086481981E+04  0.13149394412E+04  0.00000000000E+00 0. -1.
         22    1    3    3    0    0 -0.77027213695E+02 -0.10005262229E+03  0.13583148590E+03  0.18545595552E+03  0.00000000000E+00 0.  1.
         22    1    3    3    0    0 -0.22719279084E+02  0.27677585306E+02  0.11684034406E+03  0.12220425676E+03  0.00000000000E+00 0.  1.
</event>
<event>
 7    1  0.6888431E-006  0.3898521E+02  0.7818608E-02  0.1601116E+00
          2   -1    0    0  502    0  0.00000000000E+00  0.00000000000E+00  0.21233308575E+04  0.21233308575E+04  0.00000000000E+00 0. -1.
          1   -1    0    0  501    0 -0.00000000000E+00 -0.00000000000E+00 -0.67170165694E+01  0.67170165694E+01  0.00000000000E+00 0. -1.
         25    2    1    2    0    0  0.23934447403E+02 -0.17166834097E+01  0.72703206382E+03  0.73808957624E+03  0.12499918384E+03 0.  0.
          2    1    1    2  501    0  0.92445549435E+01 -0.20698100940E+02  0.14754369341E+03  0.14927496322E+03  0.00000000000E+00 0. -1.
          1    1    1    2  502    0 -0.33179002347E+02  0.22414784350E+02  0.12420380838E+04  0.12426833347E+04  0.00000000000E+00 0. -1.
         22    1    3    3    0    0 -0.21649826926E+02  0.46269969430E+02  0.18133054204E+03  0.18838893427E+03  0.00000000000E+00 0. -1.
         22    1    3    3    0    0  0.45584274329E+02 -0.47986652840E+02  0.54570152177E+03  0.54970064197E+03  0.00000000000E+00 0. -1.
</event>
<event>
 7    1  0.6888431E-006  0.1009513E+03  0.7818608E-02  0.1279156E+00
          2   -1    0    0  502    0  0.00000000000E+00  0.00000000000E+00  0.10320081838E+04  0.10320081838E+04  0.00000000000E+00 0. -1.
          1   -1    0    0  501    0 -0.00000000000E+00 -0.00000000000E+00 -0.25756635556E+04  0.25756635556E+04  0.00000000000E+00 0. -1.
         25    2    1    2    0    0  0.17580173556E+02 -0.22934317908E+02 -0.13241584193E+03  0.18437544789E+03  0.12500122059E+03 0.  0.
          2    1    1    2  501    0  0.60166129062E+02  0.86047835527E+02 -0.24136318238E+04  0.24159144798E+04  0.00000000000E+00 0. -1.
          1    1    1    2  502    0 -0.77746302618E+02 -0.63113517619E+02  0.10023922939E+04  0.10073818117E+04  0.00000000000E+00 0. -1.
         22    1    3    3    0    0  0.10643344266E+02  0.39270266748E+02 -0.32169377823E+01  0.40814008825E+02  0.00000000000E+00 0. -1.
         22    1    3    3    0    0  0.69368292903E+01 -0.62204584657E+02 -0.12919890415E+03  0.14356143907E+03  0.00000000000E+00 0. -1.
</event>
<event>
 7    1  0.6888431E-006  0.5565164E+02  0.7818608E-02  0.1503035E+00
          2   -1    0    0  502    0  0.00000000000E+00  0.00000000000E+00  0.11558870709E+04  0.11558870709E+04  0.00000000000E+00 0. -1.
          1   -1    0    0  501    0 -0.00000000000E+00 -0.00000000000E+00 -0.16066665525E+04  0.16066665525E+04  0.00000000000E+00 0. -1.
         25    2    1    2    0    0  0.33218674836E+02  0.15678076368E+02  0.38425726525E+03  0.40574353658E+03  0.12499955658E+03 0.  0.
          2    1    1    2  501    0  0.29146940619E+01  0.29640249376E+02 -0.15946803964E+04  0.15949584968E+04  0.00000000000E+00 0. -1.
          1    1    1    2  502    0 -0.36133368898E+02 -0.45318325744E+02  0.75964364950E+03  0.76185159003E+03  0.00000000000E+00 0. -1.
         22    1    3    3    0    0  0.66879430821E+02  0.32804355759E+02  0.14000547351E+03  0.15858914414E+03  0.00000000000E+00 0.  1.
         22    1    3    3    0    0 -0.33660755985E+02 -0.17126279391E+02  0.24425179173E+03  0.24715439244E+03  0.00000000000E+00 0.  1.
</event>
<event>
 7    1  0.6888431E-006  0.1311553E+03  0.7818608E-02  0.1390325E+00
          2   -1    0    0  502    0  0.00000000000E+00  0.00000000000E+00  0.93453172660E+03  0.93453172660E+03  0.00000000000E+00 0. -1.
          1   -1    0    0  501    0 -0.00000000000E+00 -0.00000000000E+00 -0.37141804745E+03  0.37141804745E+03  0.00000000000E+00 0. -1.
         25    2    1    2    0    0  0.90146574751E+02  0.82049155955E+02 -0.13978983557E+03  0.22366245607E+03  0.12500090877E+03 0.  0.
          2    1    1    2  501    0 -0.82362324089E+02 -0.11013475702E+03 -0.16448872422E+03  0.21440559118E+03  0.00000000000E+00 0. -1.
          1    1    1    2  502    0 -0.77842506618E+01  0.28085601067E+02  0.86739223894E+03  0.86788172680E+03  0.00000000000E+00 0. -1.
         22    1    3    3    0    0  0.76676830969E+02 -0.45544649335E+01 -0.28328126794E+02  0.81869178120E+02  0.00000000000E+00 0. -1.
         22    1    3    3    0    0  0.13469743781E+02  0.86603620889E+02 -0.11146170877E+03  0.14179327795E+03  0.00000000000E+00 0. -1.
</event>
<event>
 7    1  0.6888431E-006  0.2226396E+03  0.7818608E-02  0.1209985E+00
          2   -1    0    0  502    0  0.00000000000E+00  0.00000000000E+00  0.27855879391E+04  0.27855879391E+04  0.00000000000E+00 0. -1.
          1   -1    0    0  501    0 -0.00000000000E+00 -0.00000000000E+00 -0.10217719823E+04  0.10217719823E+04  0.00000000000E+00 0. -1.
         25    2    1    2    0    0  0.10644855012E+03  0.93902106805E+02  0.23767032331E+03  0.30374484912E+03  0.12499940520E+03 0.  0.
          2    1    1    2  501    0 -0.13869317787E+03 -0.17923847124E+03 -0.97490535531E+03  0.10009009336E+04  0.00000000000E+00 0. -1.
          1    1    1    2  502    0  0.32244627745E+02  0.85336364431E+02  0.25010509888E+04  0.25027141386E+04  0.00000000000E+00 0. -1.
         22    1    3    3    0    0  0.41681171337E+02  0.87772166816E+02  0.21309267060E+03  0.23420025528E+03  0.00000000000E+00 0.  1.
         22    1    3    3    0    0  0.64767378786E+02  0.61299399889E+01  0.24577652706E+02  0.69544593834E+02  0.00000000000E+00 0.  1.
</event>
<event>
 7    1  0.6888431E-006  0.1148747E+03  0.7818608E-02  0.1295095E+00
          2   -1    0    0  502    0  0.00000000000E+00  0.00000000000E+00  0.23172815085E+04  0.23172815085E+04  0.00000000000E+00 0. -1.
          1   -1    0    0  501    0 -0.00000000000E+00 -0.00000000000E+00 -0.57704965326E+03  0.57704965326E+03  0.00000000000E+00 0. -1.
         25    2    1    2    0    0  0.25469430573E+02  0.56241390518E+02 -0.33725127348E+03  0.36492669053E+03  0.12498512749E+03 0.  0.
          2    1    1    2  501    0 -0.50952994117E+02  0.56047668557E+02 -0.21812896158E+03  0.23090645863E+03  0.00000000000E+00 0. -1.
          1    1    1    2  502    0  0.25483563544E+02 -0.11228905908E+03  0.22956120903E+04  0.22984980126E+04  0.00000000000E+00 0. -1.
         22    1    3    3    0    0  0.36091806536E+02  0.66939677584E+02 -0.92665614761E+02  0.11987683301E+03  0.00000000000E+00 0. -1.
         22    1    3    3    0    0 -0.10622375964E+02 -0.10698287065E+02 -0.24458565872E+03  0.24504985752E+03  0.00000000000E+00 0. -1.
</event>
<event>
 7    1  0.6888431E-006  0.1655348E+03  0.7818608E-02  0.1237643E+00
          2   -1    0    0  502    0  0.00000000000E+00  0.00000000000E+00  0.18950080598E+04  0.18950080598E+04  0.00000000000E+00 0. -1.
          1   -1    0    0  501    0 -0.00000000000E+00 -0.00000000000E+00 -0.12416006482E+04  0.12416006482E+04  0.00000000000E+00 0. -1.
         25    2    1    2    0    0  0.22504199951E+03  0.77400275855E+01  0.21396059079E+03  0.33482529818E+03  0.12500014528E+03 0.  0.
          2    1    1    2  501    0 -0.15187479783E+03 -0.63415987334E+02 -0.11741200721E+04  0.11855992094E+04  0.00000000000E+00 0. -1.
          1    1    1    2  502    0 -0.73167201683E+02  0.55675959748E+02  0.16135668928E+04  0.16161842004E+04  0.00000000000E+00 0. -1.
         22    1    3    3    0    0  0.19890943397E+03 -0.38970446515E+02  0.15477519174E+03  0.25502748597E+03  0.00000000000E+00 0. -1.
         22    1    3    3    0    0  0.26132565548E+02  0.46710474101E+02  0.59185399057E+02  0.79797812216E+02  0.00000000000E+00 0. -1.
</event>
<event>
 7    1  0.6888431E-006  0.3463723E+02  0.7818608E-02  0.1585611E+00
          2   -1    0    0  502    0  0.00000000000E+00  0.00000000000E+00  0.47493431546E+03  0.47493431546E+03  0.00000000000E+00 0. -1.
          1   -1    0    0  501    0 -0.00000000000E+00 -0.00000000000E+00 -0.10129336940E+04  0.10129336940E+04  0.00000000000E+00 0. -1.
         25    2    1    2    0    0  0.90425145027E+01 -0.45690437559E+02  0.20698447993E+03  0.24624539281E+03  0.12499934159E+03 0.  0.
          2    1    1    2  501    0 -0.23910692393E+02  0.14630178802E+02 -0.99191045356E+03  0.99230646033E+03  0.00000000000E+00 0. -1.
          1    1    1    2  502    0  0.14868177890E+02  0.31060258757E+02  0.24692659514E+03  0.24931615627E+03  0.00000000000E+00 0. -1.
         22    1    3    3    0    0 -0.16701317625E+02 -0.78182692016E+02  0.17952368504E+03  0.19652028096E+03  0.00000000000E+00 0. -1.
         22    1    3    3    0    0  0.25743832128E+02  0.32492254457E+02  0.27460794893E+02  0.49725111850E+02  0.00000000000E+00 0. -1.
</event>
<event>
 7    1  0.6888431E-006  0.5346284E+02  0.7818608E-02  0.1522501E+00
          2   -1    0    0  502    0  0.00000000000E+00  0.00000000000E+00  0.14089152391E+04  0.14089152391E+04  0.00000000000E+00 0. -1.
          1   -1    0    0  501    0 -0.00000000000E+00 -0.00000000000E+00 -0.24872644749E+02  0.24872644749E+02  0.00000000000E+00 0. -1.
         25    2    1    2    0    0  0.40552285165E+01  0.27001243696E+02  0.17326161040E+03  0.21538389893E+03  0.12500050495E+03 0.  0.
          2    1    1    2  501    0 -0.95561427201E+00  0.27166860584E+02  0.55008368220E+02  0.61358553494E+02  0.00000000000E+00 0. -1.
          1    1    1    2  502    0 -0.30996142445E+01 -0.54168104281E+02  0.11557726157E+04  0.11570454314E+04  0.00000000000E+00 0. -1.
         22    1    3    3    0    0  0.53815905919E+02 -0.21144165720E+02  0.66340065856E+02  0.88001317102E+02  0.00000000000E+00 0.  1.
         22    1    3    3    0    0 -0.49760677403E+02  0.48145409416E+02  0.10692154455E+03  0.12738258182E+03  0.00000000000E+00 0.  1.
</event>
<event>
 7    1  0.6888431E-006  0.1289769E+03  0.7818608E-02  0.1310211E+00
          2   -1    0    0  502    0  0.00000000000E+00  0.00000000000E+00  0.21641179216E+03  0.21641179216E+03  0.00000000000E+00 0. -1.
          1   -1    0    0  501    0 -0.00000000000E+00 -0.00000000000E+00 -0.10648709655E+04  0.10648709655E+04  0.00000000000E+00 0. -1.
         25    2    1    2    0    0  0.83561393431E+02 -0.31045122017E+02 -0.91065574057E+01  0.15379898280E+03  0.12499956660E+03 0.  0.
          2    1    1    2  501    0  0.57053673115E+02 -0.13903782933E+02 -0.94444749628E+03  0.94627137229E+03  0.00000000000E+00 0. -1.
          1    1    1    2  502    0 -0.14061506655E+03  0.44948904950E+02  0.10509488029E+03  0.18121240261E+03  0.00000000000E+00 0. -1.
         22    1    3    3    0    0  0.11155614592E+03 -0.20136851699E+02 -0.29929680219E+02  0.11724355951E+03  0.00000000000E+00 0.  1.
         22    1    3    3    0    0 -0.27994752488E+02 -0.10908270318E+02  0.20823122813E+02  0.36555423290E+02  0.00000000000E+00 0.  1.
</event>
<event>
 7    1  0.6888431E-006  0.4665900E+02  0.7818608E-02  0.1477336E+00
          2   -1    0    0  502    0  0.00000000000E+00  0.00000000000E+00  0.12339348615E+03  0.12339348615E+03  0.00000000000E+00 0. -1.
          1   -1    0    0  501    0 -0.00000000000E+00 -0.00000000000E+00 -0.18299059496E+04  0.18299059496E+04  0.00000000000E+00 0. -1.
         25    2    1    2    0    0 -0.29635188463E+02  0.10714921196E+00 -0.12330460387E+03  0.17806365425E+03  0.12499753499E+03 0.  0.
          2    1    1    2  501    0  0.21570233978E+02 -0.41821096956E+02 -0.16741749050E+04  0.16748360790E+04  0.00000000000E+00 0. -1.
          1    1    1    2  502    0  0.80649544857E+01  0.41713947744E+02  0.90967045348E+02  0.10039970252E+03  0.00000000000E+00 0. -1.
         22    1    3    3    0    0 -0.16648444446E+02  0.57411713872E+02 -0.27784836177E+02  0.65918682584E+02  0.00000000000E+00 0. -1.
         22    1    3    3    0    0 -0.12986744018E+02 -0.57304564660E+02 -0.95519767690E+02  0.11214497167E+03  0.00000000000E+00 0. -1.
</event>
<event>
 7    1  0.6888431E-006  0.2810698E+03  0.7818608E-02  0.1329235E+00
          2   -1    0    0  502    0  0.00000000000E+00  0.00000000000E+00  0.22568476812E+04  0.22568476812E+04  0.00000000000E+00 0. -1.
          1   -1    0    0  501    0 -0.00000000000E+00 -0.00000000000E+00 -0.74566163121E+03  0.74566163121E+03  0.00000000000E+00 0. -1.
         25    2    1    2    0    0 -0.14320946944E+03  0.21682656763E+03 -0.16372461027E+03  0.33158755358E+03  0.12498737982E+03 0.  0.
          2    1    1    2  501    0 -0.71269198966E+01  0.21587396625E+02 -0.48860009737E+03  0.48912867819E+03  0.00000000000E+00 0. -1.
          1    1    1    2  502    0  0.15033638934E+03 -0.23841396425E+03  0.21635107576E+04  0.21817930806E+04  0.00000000000E+00 0. -1.
         22    1    3    3    0    0 -0.12846301009E+03  0.23202221118E+03 -0.16095776860E+03  0.31023290399E+03  0.00000000000E+00 0.  1.
         22    1    3    3    0    0 -0.14746459355E+02 -0.15195643555E+02 -0.27668416698E+01  0.21354649596E+02  0.00000000000E+00 0.  1.
</event>
<event>
 7    1  0.6888431E-006  0.8736129E+02  0.7818608E-02  0.1339660E+00
          2   -1    0    0  502    0  0.00000000000E+00  0.00000000000E+00  0.18162837635E+04  0.18162837635E+04  0.00000000000E+00 0. -1.
          1   -1    0    0  501    0 -0.00000000000E+00 -0.00000000000E+00 -0.38801285785E+03  0.38801285785E+03  0.00000000000E+00 0. -1.
         25    2    1    2    0    0  0.12508573741E+02  0.99888028717E+02 -0.54353055495E+02  0.16944904466E+03  0.12499856558E+03 0.  0.
          2    1    1    2  501    0 -0.65537714867E+02 -0.59309472865E+02 -0.26838515552E+03  0.28256573987E+03  0.00000000000E+00 0. -1.
          1    1    1    2  502    0  0.53029141126E+02 -0.40578555851E+02  0.17510091166E+04  0.17522818368E+04  0.00000000000E+00 0. -1.
         22    1    3    3    0    0  0.18340813815E+02  0.79103415049E+02 -0.94054733997E+02  0.12425791207E+03  0.00000000000E+00 0.  1.
         22    1    3    3    0    0 -0.58322400748E+01  0.20784613668E+02  0.39701678502E+02  0.45191132598E+02  0.00000000000E+00 0.  1.
</event>
<event>
 7    1  0.6888431E-006  0.6713164E+02  0.7818608E-02  0.1517652E+00
          2   -1    0    0  502    0  0.00000000000E+00  0.00000000000E+00  0.28594007132E+04  0.28594007132E+04  0.00000000000E+00 0. -1.
          1   -1    0    0  501    0 -0.00000000000E+00 -0.00000000000E+00 -0.12213710588E+03  0.12213710588E+03  0.00000000000E+00 0. -1.
         25    2    1    2    0    0  0.37776080799E+02  0.34202547878E+02  0.36163540323E+01  0.13504521867E+03  0.12500914569E+03 0.  0.
          2    1    1    2  501    0 -0.13538541368E+01  0.22321155927E+02 -0.53785450466E+02  0.58248962263E+02  0.00000000000E+00 0. -1.
          1    1    1    2  502    0 -0.36422226662E+02 -0.56523703805E+02  0.27874327038E+04  0.27882436382E+04  0.00000000000E+00 0. -1.
         22    1    3    3    0    0 -0.15449514237E+02  0.31000992106E+02  0.52374291769E+02  0.62791842146E+02  0.00000000000E+00 0. -1.
         22    1    3    3    0    0  0.53225595036E+02  0.32015557718E+01 -0.48757937737E+02  0.72253376521E+02  0.00000000000E+00 0. -1.
</event>
<event>
 7    1  0.6888431E-006  0.1352017E+03  0.7818608E-02  0.1383461E+00
          2   -1    0    0  502    0  0.00000000000E+00  0.00000000000E+00  0.49574157898E+03  0.49574157898E+03  0.00000000000E+00 0. -1.
          1   -1    0    0  501    0 -0.00000000000E+00 -0.00000000000E+00 -0.23623638002E+04  0.23623638002E+04  0.00000000000E+00 0. -1.
         25    2    1    2    0    0 -0.11643113788E+03  0.48674230138E+02 -0.11067970061E+04  0.11209594122E+04  0.12500000175E+03 0.  0.
          2    1    1    2  501    0 -0.16740019383E+02 -0.24753858364E+02 -0.12389361922E+04  0.12392965222E+04  0.00000000000E+00 0. -1.
          1    1    1    2  502    0  0.13317115726E+03 -0.23920371774E+02  0.47911097707E+03  0.49784944477E+03  0.00000000000E+00 0. -1.
         22    1    3    3    0    0 -0.83187373433E+02 -0.31736141711E+02 -0.63417434713E+03  0.64039396027E+03  0.00000000000E+00 0. -1.
         22    1    3    3    0    0 -0.33243764448E+02  0.80410371849E+02 -0.47262265897E+03  0.48056545189E+03  0.00000000000E+00 0. -1.
</event>
<event>
 7    1  0.6888431E-006  0.9927037E+02  0.7818608E-02  0.1358807E+00
          2   -1    0    0  502    0  0.00000000000E+00  0.00000000000E+00  0.37013767892E+02  0.37013767892E+02  0.00000000000E+00 0. -1.
          1   -1    0    0  501    0 -0.00000000000E+00 -0.00000000000E+00 -0.14594124534E+04  0.14594124534E+04  0.00000000000E+00 0. -1.
         25    2    1    2    0    0 -0.75519375230E+02 -0.20129696520E+02 -0.80115464918E+03  0.81460545200E+03  0.12499955921E+03 0.  0.
          2    1    1    2  501    0  0.11878815656E+03 -0.47205642615E+01 -0.62063670009E+03  0.63191995012E+03  0.00000000000E+00 0. -1.
          1    1    1    2  502    0 -0.43268781327E+02  0.24850260782E+02 -0.60733625484E+00  0.49900819190E+02  0.00000000000E+00 0. -1.
         22    1    3    3    0    0 -0.90815358213E+02  0.23476119530E+02 -0.64407471135E+03  0.65086925821E+03  0.00000000000E+00 0. -1.
         22    1    3    3    0    0  0.15295982983E+02 -0.43605816050E+02 -0.15707993783E+03  0.16373619379E+03  0.00000000000E+00 0. -1.
</event>
<event>
 7    1  0.6888431E-006  0.4387012E+02  0.7818608E-02  0.1483187E+00
          2   -1    0    0  502    0  0.00000000000E+00  0.00000000000E+00  0.91466492145E+03  0.91466492145E+03  0.00000000000E+00 0. -1.
          1   -1    0    0  501    0 -0.00000000000E+00 -0.00000000000E+00 -0.88092568223E+02  0.88092568223E+02  0.00000000000E+00 0. -1.
         25    2    1    2    0    0  0.90880606516E+01 -0.43622005445E+01  0.28390033282E+03  0.31036441087E+03  0.12500018766E+03 0.  0.
          2    1    1    2  501    0 -0.14948403221E+02 -0.41244787902E+02 -0.67493073652E+02  0.80497840213E+02  0.00000000000E+00 0. -1.
          1    1    1    2  502    0  0.58603425697E+01  0.45606988447E+02  0.61016509406E+03  0.61189523860E+03  0.00000000000E+00 0. -1.
         22    1    3    3    0    0  0.39018375061E+02  0.46103051866E+01  0.27511527025E+03  0.27790663978E+03  0.00000000000E+00 0.  1.
         22    1    3    3    0    0 -0.29930314409E+02 -0.89725057311E+01  0.87850625701E+01  0.32457771089E+02  0.00000000000E+00 0.  1.
</event>
<event>
 7    1  0.6888431E-006  0.1888905E+03  0.7818608E-02  0.1262003E+00
          2   -1    0    0  502    0  0.00000000000E+00  0.00000000000E+00  0.40089543568E+03  0.40089543568E+03  0.00000000000E+00 0. -1.
          1   -1    0    0  501    0 -0.00000000000E+00 -0.00000000000E+00 -0.13977045623E+04  0.13977045623E+04  0.00000000000E+00 0. -1.
         25    2    1    2    0    0 -0.14021674909E+03 -0.30687502861E+02 -0.63437219042E+02  0.20062929016E+03  0.12500148700E+03 0.  0.
          2    1    1    2  501    0 -0.44630832647E+02 -0.44696562442E+02 -0.12348095354E+04  0.12364239899E+04  0.00000000000E+00 0. -1.
          1    1    1    2  502    0  0.18484758173E+03  0.75384065303E+02  0.30143762786E+03  0.36154671796E+03  0.00000000000E+00 0. -1.
         22    1    3    3    0    0 -0.68229499660E+02  0.36971969659E+02  0.90039910038E+01  0.78123383301E+02  0.00000000000E+00 0. -1.
         22    1    3    3    0    0 -0.71987249426E+02 -0.67659472520E+02 -0.72441210046E+02  0.12250590686E+03  0.00000000000E+00 0. -1.
</event>
<event>
 7    1  0.6888431E-006  0.8511916E+02  0.7818608E-02  0.1340803E+00
          2   -1    0    0  502    0  0.00000000000E+00  0.00000000000E+00  0.18898640330E+03  0.18898640330E+03  0.00000000000E+00 0. -1.
          1   -1    0    0  501    0 -0.00000000000E+00 -0.00000000000E+00 -0.22908935498E+03  0.22908935498E+03  0.00000000000E+00 0. -1.
         25    2    1    2    0    0 -0.85514632637E+01 -0.27484449420E+02  0.14178179937E+02  0.12905291547E+03  0.12500044688E+03 0.  0.
          2    1    1    2  501    0 -0.77570539428E+02  0.35044014804E+02 -0.14219352204E+03  0.16572347230E+03  0.00000000000E+00 0. -1.
          1    1    1    2  502    0  0.86122002692E+02 -0.75595653844E+01  0.87912390430E+02  0.12329937051E+03  0.00000000000E+00 0. -1.
         22    1    3    3    0    0 -0.18505442881E+02 -0.72337189865E+01  0.67919742251E+02  0.70766301966E+02  0.00000000000E+00 0.  1.
         22    1    3    3    0    0  0.99539796170E+01 -0.20250730433E+02 -0.53741562314E+02  0.58286613500E+02  0.00000000000E+00 0.  1.
</event>
<event>
 7    1  0.6888431E-006  0.3795564E+02  0.7818608E-02  0.1529504E+00
          2   -1    0    0  502    0  0.00000000000E+00  0.00000000000E+00  0.13271672818E+04  0.13271672818E+04  0.00000000000E+00 0. -1.
          1   -1    0    0  501    0 -0.00000000000E+00 -0.00000000000E+00 -0.59721000895E+03  0.59721000895E+03  0.00000000000E+00 0. -1.
         25    2    1    2    0    0  0.72477543518E+01 -0.19637709063E+02  0.14508818787E+01  0.12674063522E+03  0.12499165571E+03 0.  0.
          2    1    1    2  501    0  0.30848575811E+02  0.19606825615E+02 -0.53365255556E+03  0.53490289988E+03  0.00000000000E+00 0. -1.
          1    1    1    2  502    0 -0.38096330163E+02  0.30883447910E-01  0.12621589466E+04  0.12627337557E+04  0.00000000000E+00 0. -1.
         22    1    3    3    0    0 -0.39451198671E+02  0.36385270615E+02  0.34521137389E+01  0.53779197499E+02  0.00000000000E+00 0. -1.
         22    1    3    3    0    0  0.46698953023E+02 -0.56022979679E+02 -0.20012318602E+01  0.72961437722E+02  0.00000000000E+00 0. -1.
</event>
<event>
 7    1  0.6888431E-006  0.9886974E+02  0.7818608E-02  0.1314147E+00
          2   -1    0    0  502    0  0.00000000000E+00  0.00000000000E+00  0.19284228683E+04  0.19284228683E+04  0.00000000000E+00 0. -1.
          1   -1    0    0  501    0 -0.00000000000E+00 -0.00000000000E+00 -0.70296639143E+03  0.70296639143E+03  0.00000000000E+00 0. -1.
         25    2    1    2    0    0  0.81976830228E+02  0.58508916623E+02 -0.72787602450E+02  0.17625184126E+03  0.12499272962E+03 0.  0.
          2    1    1    2  501    0 -0.99992557217E+02  0.13189205028E+02 -0.57331491105E+03  0.58211893446E+03  0.00000000000E+00 0. -1.
          1    1    1    2  502    0  0.18015726989E+02 -0.71698121651E+02  0.18715589904E+04  0.18730184840E+04  0.00000000000E+00 0. -1.
         22    1    3    3    0    0  0.40161784239E+02  0.79008918741E+02 -0.90271463341E+02  0.12650816277E+03  0.00000000000E+00 0.  1.
         22    1    3    3    0    0  0.41815045990E+02 -0.20500002118E+02  0.17483860892E+02  0.49743678489E+02  0.00000000000E+00 0.  1.
</event>
<event>
 7    1  0.6888431E-006  0.2862076E+02  0.7818608E-02  0.1670870E+00
          2   -1    0    0  502    0  0.00000000000E+00  0.00000000000E+00  0.16004042193E+04  0.16004042193E+04  0.00000000000E+00 0. -1.
          1   -1    0    0  501    0 -0.00000000000E+00 -0.00000000000E+00 -0.39247113723E+02  0.39247113723E+02  0.00000000000E+00 0. -1.
         25    2    1    2    0    0 -0.37714861630E+02  0.13623725537E+02  0.17074410081E+03  0.21537532540E+03  0.12499986458E+03 0.  0.
          2    1    1    2  501    0  0.27837676300E+02  0.45409315430E+01 -0.50548529976E+01  0.28654978972E+02  0.00000000000E+00 0. -1.
          1    1    1    2  502    0  0.98771853304E+01 -0.18164657080E+02  0.13954678578E+04  0.13956210287E+04  0.00000000000E+00 0. -1.
         22    1    3    3    0    0 -0.19741509815E+02  0.65691190868E+02  0.12956470430E+03  0.14660174749E+03  0.00000000000E+00 0.  1.
         22    1    3    3    0    0 -0.17973351815E+02 -0.52067465331E+02  0.41179396512E+02  0.68773577911E+02  0.00000000000E+00 0.  1.
</event>
<event>
 7    1  0.6888431E-006  0.6706772E+02  0.7818608E-02  0.1405617E+00
          2   -1    0    0  502    0  0.00000000000E+00  0.00000000000E+00  0.78723671751E+02  0.78723671751E+02  0.00000000000E+00 0. -1.
          1   -1    0    0  501    0 -0.00000000000E+00 -0.00000000000E+00 -0.21204563773E+04  0.21204563773E+04  0.00000000000E+00 0. -1.
         25    2    1    2    0    0 -0.40834956549E+02 -0.67997752045E+02 -0.15316947614E+04  0.15388326783E+04  0.12500392712E+03 0.  0.
          2    1    1    2  501    0 -0.22322287812E+02  0.45271715003E+02 -0.56886216310E+03  0.57109716626E+03  0.00000000000E+00 0. -1.
          1    1    1    2  502    0  0.63157244361E+02  0.22726037042E+02  0.58824218908E+02  0.89250204510E+02  0.00000000000E+00 0. -1.
         22    1    3    3    0    0 -0.28206239688E+01 -0.63110420233E+02 -0.30180244663E+03  0.30834331167E+03  0.00000000000E+00 0.  1.
         22    1    3    3    0    0 -0.38014332580E+02 -0.48873318125E+01 -0.12298923148E+04  0.12304893667E+04  0.00000000000E+00 0.  1.
</event>
<event>
 7    1  0.7907793E-006  0.1843382E+03  0.7818608E-02  0.1343503E+00
          2   -1    0    0  502    0  0.00000000000E+00  0.00000000000E+00  0.13311823917E+04  0.13311823917E+04  0.00000000000E+00 0. -1.
          1   -1    0    0  501    0 -0.00000000000E+00 -0.00000000000E+00 -0.15597650098E+04  0.15597650098E+04  0.00000000000E+00 0. -1.
         25    2    1    2    0    0 -0.82600071219E+02 -0.19325666555E+03 -0.73065509332E+03  0.77048891233E+03  0.12500155234E+03 0.  0.
          2    1    1    2  501    0 -0.33505704813E+01  0.30427622073E+02 -0.80243635355E+03  0.80302002964E+03  0.00000000000E+00 0. -1.
          1    1    1    2  502    0  0.85950641700E+02  0.16282904347E+03  0.13045088288E+04  0.13174384595E+04  0.00000000000E+00 0. -1.
         22    1    3    3    0    0 -0.13589658507E+02 -0.14712034562E+03 -0.57951547742E+03  0.59805289355E+03  0.00000000000E+00 0.  1.
         22    1    3    3    0    0 -0.69010412711E+02 -0.46136319926E+02 -0.15113961590E+03  0.17243601878E+03  0.00000000000E+00 0.  1.
</event>
<event>
 7    1  0.6888431E-006  0.9028989E+02  0.7818608E-02  0.1433455E+00
          2   -1    0    0  502    0  0.00000000000E+00  0.00000000000E+00  0.69094424915E+03  0.69094424915E+03  0.00000000000E+00 0. -1.
          1   -1    0    0  501    0 -0.00000000000E+00 -0.00000000000E+00 -0.14588551568E+04  0.14588551568E+04  0.00000000000E+00 0. -1.
         25    2    1    2    0    0 -0.42503075111E+02 -0.65738016819E+02  0.90324893220E+02  0.17294891013E+03  0.12499896372E+03 0.  0.
          2    1    1    2  501    0  0.71124929675E+02  0.55907499655E+02 -0.14156888894E+04  0.14185765527E+04  0.00000000000E+00 0. -1.
          1    1    1    2  502    0 -0.28621854563E+02  0.98305171631E+01  0.55745308857E+03  0.55827394313E+03  0.00000000000E+00 0. -1.
         22    1    3    3    0    0  0.15607294301E+02 -0.77596333944E+02  0.80388382637E+02  0.11281431975E+03  0.00000000000E+00 0.  1.
         22    1    3    3    0    0 -0.58110369412E+02  0.11858317126E+02  0.99365105834E+01  0.60134590386E+02  0.00000000000E+00 0.  1.
</event>
<event>
 7    1  0.6888431E-006  0.1254887E+03  0.7818608E-02  0.1321223E+00
          2   -1    0    0  502    0  0.00000000000E+00  0.00000000000E+00  0.12276844913E+04  0.12276844913E+04  0.00000000000E+00 0. -1.
          1   -1    0    0  501    0 -0.00000000000E+00 -0.00000000000E+00 -0.78732965390E+03  0.78732965390E+03  0.00000000000E+00 0. -1.
         25    2    1    2    0    0 -0.17532114403E+03 -0.35296735823E+02  0.15880632385E+03  0.26986709243E+03  0.12500174392E+03 0.  0.
          2    1    1    2  501    0  0.12181598179E+03  0.24095768500E+02 -0.72578509863E+03  0.73633127658E+03  0.00000000000E+00 0. -1.
          1    1    1    2  502    0  0.53505162233E+02  0.11200967323E+02  0.10073336122E+04  0.10088157762E+04  0.00000000000E+00 0. -1.
         22    1    3    3    0    0 -0.10247962613E+02  0.23012723059E+02  0.68277892301E+02  0.72776897003E+02  0.00000000000E+00 0.  1.
         22    1    3    3    0    0 -0.16507318141E+03 -0.58309458883E+02  0.90528431546E+02  0.19709019543E+03  0.00000000000E+00 0.  1.
</event>
<event>
 7    1  0.6888431E-006  0.5203010E+02  0.7818608E-02  0.1464189E+00
          2   -1    0    0  502    0  0.00000000000E+00  0.00000000000E+00  0.17333166763E+03  0.17333166763E+03  0.00000000000E+00 0. -1.
          1   -1    0    0  501    0 -0.00000000000E+00 -0.00000000000E+00 -0.62728439986E+03  0.62728439986E+03  0.00000000000E+00 0. -1.
         25    2    1    2    0    0  0.14753232123E+02  0.78014598460E+01 -0.85094351689E+02  0.15213107090E+03  0.12499717361E+03 0.  0.
          2    1    1    2  501    0 -0.52813785118E+02  0.96211531579E+01 -0.50408116386E+03  0.50693163468E+03  0.00000000000E+00 0. -1.
          1    1    1    2  502    0  0.38060552995E+02 -0.17422613004E+02  0.13522278332E+03  0.14155336191E+03  0.00000000000E+00 0. -1.
         22    1    3    3    0    0  0.59201402753E+02  0.62878550548E+01 -0.40328529447E+01  0.59670822954E+02  0.00000000000E+00 0.  1.
         22    1    3    3    0    0 -0.44448170631E+02  0.15136047912E+01 -0.81061498744E+02  0.92460247948E+02  0.00000000000E+00 0.  1.
</event>
<event>
 7    1  0.6888431E-006  0.9121387E+02  0.7818608E-02  0.1328200E+00
          2   -1    0    0  502    0  0.00000000000E+00  0.00000000000E+00  0.64391800081E+03  0.64391800081E+03  0.00000000000E+00 0. -1.
          1   -1    0    0  501    0 -0.00000000000E+00 -0.00000000000E+00 -0.55254045561E+03  0.55254045561E+03  0.00000000000E+00 0. -1.
         25    2    1    2    0    0 -0.82076235453E+02  0.59670530224E+02  0.13726791479E+02  0.16158977057E+03  0.12500299415E+03 0.  0.
          2    1    1    2  501    0 -0.93303046743E+01 -0.70075133517E+02 -0.47215568873E+03  0.47741865624E+03  0.00000000000E+00 0. -1.
          1    1    1    2  502    0  0.91406540128E+02  0.10404603293E+02  0.54980644245E+03  0.55745002961E+03  0.00000000000E+00 0. -1.
         22    1    3    3    0    0  0.60906115770E+01  0.52028654915E+02  0.43633173003E+02  0.68175730784E+02  0.00000000000E+00 0. -1.
         22    1    3    3    0    0 -0.88166847030E+02  0.76418753091E+01 -0.29906381524E+02  0.93414039787E+02  0.00000000000E+00 0. -1.
</event>
<event>
 7    1  0.6888431E-006  0.9573529E+02  0.7818608E-02  0.1324378E+00
          2   -1    0    0  502    0  0.00000000000E+00  0.00000000000E+00  0.14080023131E+03  0.14080023131E+03  0.00000000000E+00 0. -1.
          1   -1    0    0  501    0 -0.00000000000E+00 -0.00000000000E+00 -0.77723157407E+03  0.77723157407E+03  0.00000000000E+00 0. -1.
         25    2    1    2    0    0 -0.34870441283E+02 -0.11299652637E+03 -0.54409820213E+02  0.18046977369E+03  0.12499899214E+03 0.  0.
          2    1    1    2  501    0 -0.31063867950E+02  0.90485577631E+02 -0.63988406791E+03  0.64699630913E+03  0.00000000000E+00 0. -1.
          1    1    1    2  502    0  0.65934309233E+02  0.22510948734E+02  0.57862545370E+02  0.90565722565E+02  0.00000000000E+00 0. -1.
         22    1    3    3    0    0 -0.69107903628E+02 -0.11675051885E+03 -0.32048156462E+02  0.13940469981E+03  0.00000000000E+00 0.  1.
         22    1    3    3    0    0  0.34237462345E+02  0.37539924877E+01 -0.22361663751E+02  0.41065073884E+02  0.00000000000E+00 0.  1.
</event>
<event>
 7    1  0.6888431E-006  0.9022838E+02  0.7818608E-02  0.1377172E+00
          2   -1    0    0  502    0  0.00000000000E+00  0.00000000000E+00  0.31572153246E+04  0.31572153246E+04  0.00000000000E+00 0. -1.
          1   -1    0    0  501    0 -0.00000000000E+00 -0.00000000000E+00 -0.45429787444E+03  0.45429787444E+03  0.00000000000E+00 0. -1.
         25    2    1    2    0    0 -0.31257663044E+02  0.10030113242E+03  0.64365738203E+03  0.66404488632E+03  0.12499370759E+03 0.  0.
          2    1    1    2  501    0  0.45681936732E+02 -0.11606106643E+02 -0.44204446644E+03  0.44455016744E+03  0.00000000000E+00 0. -1.
          1    1    1    2  502    0 -0.14424273688E+02 -0.88695025773E+02  0.25013045346E+04  0.25029181453E+04  0.00000000000E+00 0. -1.
         22    1    3    3    0    0 -0.64744523762E+02  0.30703579670E+02  0.44801442860E+03  0.45370859745E+03  0.00000000000E+00 0.  1.
         22    1    3    3    0    0  0.33486860718E+02  0.69597552746E+02  0.19564295343E+03  0.21033628887E+03  0.00000000000E+00 0.  1.
</event>
<event>
 7    1  0.6888431E-006  0.2571294E+03  0.7818608E-02  0.1211147E+00
          2   -1    0    0  502    0  0.00000000000E+00  0.00000000000E+00  0.28813081394E+04  0.28813081394E+04  0.00000000000E+00 0. -1.
          1   -1    0    0  501    0 -0.00000000000E+00 -0.00000000000E+00 -0.28839360086E+03  0.28839360086E+03  0.00000000000E+00 0. -1.
         25    2    1    2    0    0 -0.25038751385E+03  0.69865582399E+02  0.85934090762E+03  0.90645883521E+03  0.12500287091E+03 0.  0.
          2    1    1    2  501    0  0.21633354636E+03 -0.14005723432E+03 -0.20116586317E+03  0.32693108856E+03  0.00000000000E+00 0. -1.
          1    1    1    2  502    0  0.34053967488E+02  0.70191651916E+02  0.19347394941E+04  0.19363118165E+04  0.00000000000E+00 0. -1.
         22    1    3    3    0    0 -0.18014504698E+03  0.17935884942E+02  0.40246825049E+03  0.44131012516E+03  0.00000000000E+00 0.  1.
         22    1    3    3    0    0 -0.70242466875E+02  0.51929697458E+02  0.45687265713E+03  0.46514871005E+03  0.00000000000E+00 0.  1.
</event>
<event>
 7    1  0.6888431E-006  0.1090015E+03  0.7818608E-02  0.1369530E+00
          2   -1    0    0  502    0  0.00000000000E+00  0.00000000000E+00  0.27941434320E+03  0.27941434320E+03  0.00000000000E+00 0. -1.
          1   -1    0    0  501    0 -0.00000000000E+00 -0.00000000000E+00 -0.25002186249E+04  0.25002186249E+04  0.00000000000E+00 0. -1.
         25    2    1    2    0    0 -0.66593282368E+02  0.57592942976E+02  0.10989655940E+03  0.18828967960E+03  0.12499654930E+03 0.  0.
          2    1    1    2  501    0  0.10273021020E+03 -0.37086184256E+02 -0.24564656832E+04  0.24588925421E+04  0.00000000000E+00 0. -1.
          1    1    1    2  502    0 -0.36136927830E+02 -0.20506758720E+02  0.12576484208E+03  0.13245074636E+03  0.00000000000E+00 0. -1.
         22    1    3    3    0    0 -0.19224916435E+02  0.85914790419E+02  0.33840249472E+02  0.94319197987E+02  0.00000000000E+00 0.  1.
         22    1    3    3    0    0 -0.47368365933E+02 -0.28321847442E+02  0.76056309929E+02  0.93970481608E+02  0.00000000000E+00 0.  1.
</event>
<event>
 7    1  0.6888431E-006  0.5890092E+02  0.7818608E-02  0.1413863E+00
          2   -1    0    0  502    0  0.00000000000E+00  0.00000000000E+00  0.24407307950E+03  0.24407307950E+03  0.00000000000E+00 0. -1.
          1   -1    0    0  501    0 -0.00000000000E+00 -0.00000000000E+00 -0.41094699246E+03  0.41094699246E+03  0.00000000000E+00 0. -1.
         25    2    1    2    0    0 -0.12883568681E+02  0.40098537070E+02 -0.11373426749E+03  0.17416759040E+03  0.12499994771E+03 0.  0.
          2    1    1    2  501    0  0.53752945757E+02  0.38661122620E+01 -0.25996513387E+03  0.26549236680E+03  0.00000000000E+00 0. -1.
          1    1    1    2  502    0 -0.40869377076E+02 -0.43964649332E+02  0.20682548840E+03  0.21536011475E+03  0.00000000000E+00 0. -1.
         22    1    3    3    0    0  0.24885636768E+02  0.43261128656E+02  0.44004865823E+01  0.50101741009E+02  0.00000000000E+00 0.  1.
         22    1    3    3    0    0 -0.37769205449E+02 -0.31625915861E+01 -0.11813475407E+03  0.12406584939E+03  0.00000000000E+00 0.  1.
</event>
<event>
 7    1  0.6888431E-006  0.8130337E+02  0.7818608E-02  0.1480708E+00
          2   -1    0    0  502    0  0.00000000000E+00  0.00000000000E+00  0.24373571910E+03  0.24373571910E+03  0.00000000000E+00 0. -1.
          1   -1    0    0  501    0 -0.00000000000E+00 -0.00000000000E+00 -0.32080763546E+03  0.32080763546E+03  0.00000000000E+00 0. -1.
         25    2    1    2    0    0  0.87378495146E+02 -0.31542586968E+02  0.14677295544E+03  0.21400709227E+03  0.12500719534E+03 0.  0.
          2    1    1    2  501    0 -0.23118779473E+02 -0.56862166618E+01 -0.26470453142E+03  0.26577302342E+03  0.00000000000E+00 0. -1.
          1    1    1    2  502    0 -0.64259715673E+02  0.37228803629E+02  0.40859659629E+02  0.84763238866E+02  0.00000000000E+00 0. -1.
         22    1    3    3    0    0  0.40208124996E+02 -0.19989542802E+02  0.15791989317E+03  0.16417968143E+03  0.00000000000E+00 0. -1.
         22    1    3    3    0    0  0.47170370150E+02 -0.11553044165E+02 -0.11146937734E+02  0.49827410834E+02  0.00000000000E+00 0. -1.
</event>
<event>
 7    1  0.6888431E-006  0.2887342E+02  0.7818608E-02  0.1617780E+00
          2   -1    0    0  502    0  0.00000000000E+00  0.00000000000E+00  0.12885178503E+04  0.12885178503E+04  0.00000000000E+00 0. -1.
          1   -1    0    0  501    0 -0.00000000000E+00 -0.00000000000E+00 -0.11200380463E+03  0.11200380463E+03  0.00000000000E+00 0. -1.
         25    2    1    2    0    0  0.15135305285E+01  0.22816864660E+01  0.77786444837E+00  0.12503118888E+03  0.12499878500E+03 0.  0.
          2    1    1    2  501    0 -0.14810508328E+02  0.23433298066E+02 -0.45840545721E+02  0.53570759255E+02  0.00000000000E+00 0. -1.
          1    1    1    2  502    0  0.13296977799E+02 -0.25714984532E+02  0.12215767270E+04  0.12219197068E+04  0.00000000000E+00 0. -1.
         22    1    3    3    0    0  0.54326906417E+02 -0.96406352473E+01  0.30730059274E+02  0.63156085627E+02  0.00000000000E+00 0. -1.
         22    1    3    3    0    0 -0.52813375888E+02  0.11922321713E+02 -0.29952194826E+02  0.61875103253E+02  0.00000000000E+00 0. -1.
</event>
<event>
 7    1  0.6888431E-006  0.7699170E+02  0.7818608E-02  0.1447523E+00
          2   -1    0    0  502    0  0.00000000000E+00  0.00000000000E+00  0.15458132530E+03  0.15458132530E+03  0.00000000000E+00 0. -1.
          1   -1    0    0  501    0 -0.00000000000E+00 -0.00000000000E+00 -0.24131455675E+03  0.24131455675E+03  0.00000000000E+00 0. -1.
         25    2    1    2    0    0  0.65247489614E+02 -0.16025676084E+02 -0.26309261942E+02  0.14432845479E+03  0.12499787359E+03 0.  0.
          2    1    1    2  501    0 -0.63486478629E+02  0.47927823696E+02 -0.14266226091E+03  0.16334053367E+03  0.00000000000E+00 0. -1.
          1    1    1    2  502    0 -0.17610109857E+01 -0.31902147613E+02  0.82238291391E+02  0.88226893593E+02  0.00000000000E+00 0. -1.
         22    1    3    3    0    0 -0.12875234839E+02  0.25618349360E+02 -0.45465012947E+02  0.53750710678E+02  0.00000000000E+00 0.  1.
         22    1    3    3    0    0  0.78122724453E+02 -0.41644025444E+02  0.19155751005E+02  0.90577744108E+02  0.00000000000E+00 0.  1.
</event>
<event>
 7    1  0.6888431E-006  0.1606941E+03  0.7818608E-02  0.1225057E+00
          2   -1    0    0  502    0  0.00000000000E+00  0.00000000000E+00  0.91810516210E+02  0.91810516210E+02  0.00000000000E+00 0. -1.
          1   -1    0    0  501    0 -0.00000000000E+00 -0.00000000000E+00 -0.30469128357E+04  0.30469128357E+04  0.00000000000E+00 0. -1.
         25    2    1    2    0    0  0.16131833207E+03  0.19001397043E+03 -0.11663752439E+04  0.11992436788E+04  0.12500111345E+03 0.  0.
          2    1    1    2  501    0 -0.76083520550E+02 -0.12397882452E+03 -0.18211017228E+04  0.18269020050E+04  0.00000000000E+00 0. -1.
          1    1    1    2  502    0 -0.85234811519E+02 -0.66035145903E+02  0.32374647165E+02  0.11257766816E+03  0.00000000000E+00 0. -1.
         22    1    3    3    0    0  0.45988286223E+01  0.39685768143E+02 -0.42061972030E+03  0.42251279096E+03  0.00000000000E+00 0. -1.
         22    1    3    3    0    0  0.15671950345E+03  0.15032820228E+03 -0.74575552357E+03  0.77673088782E+03  0.00000000000E+00 0. -1.
</event>
<event>
 7    1  0.6888431E-006  0.8202598E+02  0.7818608E-02  0.1441667E+00
          2   -1    0    0  502    0  0.00000000000E+00  0.00000000000E+00  0.20917345844E+04  0.20917345844E+04  0.00000000000E+00 0. -1.
          1   -1    0    0  501    0 -0.00000000000E+00 -0.00000000000E+00 -0.74847254475E+03  0.74847254475E+03  0.00000000000E+00 0. -1.
         25    2    1    2    0    0 -0.25460017283E+02  0.47523953835E+02  0.38425391160E+03  0.40765576519E+03  0.12500166258E+03 0.  0.
          2    1    1    2  501    0 -0.21334351568E+02  0.22933145476E+02 -0.73538336908E+03  0.73605012277E+03  0.00000000000E+00 0. -1.
          1    1    1    2  502    0  0.46794368852E+02 -0.70457099311E+02  0.16943914972E+04  0.16965012412E+04  0.00000000000E+00 0. -1.
         22    1    3    3    0    0  0.26516518249E+02 -0.31170529160E+02  0.95761768057E+02  0.10413954028E+03  0.00000000000E+00 0. -1.
         22    1    3    3    0    0 -0.51976535532E+02  0.78694482996E+02  0.28849214354E+03  0.30351622491E+03  0.00000000000E+00 0. -1.
</event>
<event>
 7    1  0.6888431E-006  0.5503632E+02  0.7818608E-02  0.1473754E+00
          2   -1    0    0  502    0  0.00000000000E+00  0.00000000000E+00  0.11702144495E+03  0.11702144495E+03  0.00000000000E+00 0. -1.
          1   -1    0    0  501    0 -0.00000000000E+00 -0.00000000000E+00 -0.29855873118E+03  0.29855873118E+03  0.00000000000E+00 0. -1.
         25    2    1    2    0    0  0.24208256475E+02  0.80971495483E+02 -0.48508540952E+02  0.15850557599E+03  0.12501406446E+03 0.  0.
          2    1    1    2  501    0  0.22117831929E+00 -0.53251931729E+02 -0.18544794136E+03  0.19294236473E+03  0.00000000000E+00 0. -1.
          1    1    1    2  502    0 -0.24429434795E+02 -0.27719563754E+02  0.52419196086E+02  0.64132235400E+02  0.00000000000E+00 0. -1.
         22    1    3    3    0    0 -0.51194683993E+02  0.32980364691E+02 -0.26756367796E+02  0.66516940263E+02  0.00000000000E+00 0.  1.
         22    1    3    3    0    0  0.75402940469E+02  0.47991130792E+02 -0.21752173156E+02  0.91988635728E+02  0.00000000000E+00 0.  1.
</event>
<event>
 7    1  0.6888431E-006  0.1655312E+03  0.7818608E-02  0.1206836E+00
          2   -1    0    0  502    0  0.00000000000E+00  0.00000000000E+00  0.19231120090E+04  0.19231120090E+04  0.00000000000E+00 0. -1.
          1   -1    0    0  501    0 -0.00000000000E+00 -0.00000000000E+00 -0.12105393841E+04  0.12105393841E+04  0.00000000000E+00 0. -1.
         25    2    1    2    0    0  0.21620859789E+03  0.35455141652E+02  0.49519300745E+01  0.25229500357E+03  0.12500008938E+03 0.  0.
          2    1    1    2  501    0 -0.11762435662E+03 -0.11536883903E+03 -0.10783593876E+04  0.10908732406E+04  0.00000000000E+00 0. -1.
          1    1    1    2  502    0 -0.98584241274E+02  0.79913697376E+02  0.17859800824E+04  0.17904831489E+04  0.00000000000E+00 0. -1.
         22    1    3    3    0    0  0.66302819527E+02 -0.36565588486E+02  0.34795097796E+02  0.83329496393E+02  0.00000000000E+00 0.  1.
         22    1    3    3    0    0  0.14990577837E+03  0.72020730138E+02 -0.29843167721E+02  0.16896550718E+03  0.00000000000E+00 0.  1.
</event>
<event>
 7    1  0.6888431E-006  0.6090704E+02  0.7818608E-02  0.1402412E+00
          2   -1    0    0  502    0  0.00000000000E+00  0.00000000000E+00  0.43409103876E+02  0.43409103876E+02  0.00000000000E+00 0. -1.
          1   -1    0    0  501    0 -0.00000000000E+00 -0.00000000000E+00 -0.81324427306E+03  0.81324427306E+03  0.00000000000E+00 0. -1.
         25    2    1    2    0    0 -0.89759344854E+02  0.47994320888E+02 -0.18566729800E+03  0.24588111680E+03  0.12499993291E+03 0.  0.
          2    1    1    2  501    0  0.59264150147E+02  0.16407326644E+00 -0.52601005299E+03  0.52933811715E+03  0.00000000000E+00 0. -1.
          1    1    1    2  502    0  0.30495194707E+02 -0.48158394155E+02 -0.58157818193E+02  0.81434142992E+02  0.00000000000E+00 0. -1.
         22    1    3    3    0    0 -0.94799614709E+02  0.42533109873E+02 -0.59978324455E+02  0.11997262933E+03  0.00000000000E+00 0. -1.
         22    1    3    3    0    0  0.50402698552E+01  0.54612110155E+01 -0.12568897354E+03  0.12590848747E+03  0.00000000000E+00 0. -1.
</event>
<event>
 7    1  0.6888431E-006  0.4786642E+02  0.7818608E-02  0.1476734E+00
          2   -1    0    0  502    0  0.00000000000E+00  0.00000000000E+00  0.15418210976E+04  0.15418210976E+04  0.00000000000E+00 0. -1.
          1   -1    0    0  501    0 -0.00000000000E+00 -0.00000000000E+00 -0.12830603600E+03  0.12830603600E+03  0.00000000000E+00 0. -1.
         25    2    1    2    0    0  0.16565228178E+02 -0.42248888197E+02  0.69347897182E+03  0.70611506585E+03  0.12500410605E+03 0.  0.
          2    1    1    2  501    0 -0.41578454531E+02 -0.10585142171E+01 -0.11767520753E+03  0.12480922563E+03  0.00000000000E+00 0. -1.
          1    1    1    2  502    0  0.25013226353E+02  0.43307402414E+02  0.83771129734E+03  0.83920284216E+03  0.00000000000E+00 0. -1.
         22    1    3    3    0    0 -0.43140230447E+02  0.13722960231E+02  0.15580888932E+03  0.16225230079E+03  0.00000000000E+00 0. -1.
         22    1    3    3    0    0  0.59705458625E+02 -0.55971848427E+02  0.53767008250E+03  0.54386276506E+03  0.00000000000E+00 0. -1.
</event>
<event>
 7    1  0.6888431E-006  0.5409026E+02  0.7818608E-02  0.1438081E+00
          2   -1    0    0  502    0  0.00000000000E+00  0.00000000000E+00  0.14177482939E+04  0.14177482939E+04  0.00000000000E+00 0. -1.
          1   -1    0    0  501    0 -0.00000000000E+00 -0.00000000000E+00 -0.95707416278E+03  0.95707416278E+03  0.00000000000E+00 0. -1.
         25    2    1    2    0    0  0.51476974623E+02  0.50668513152E+02  0.89538073084E+03  0.90694491962E+03  0.12500102767E+03 0.  0.
          2    1    1    2  501    0 -0.28026413054E+01 -0.54018286551E+02 -0.94936851274E+03  0.95090819908E+03  0.00000000000E+00 0. -1.
          1    1    1    2  502    0 -0.48674333317E+02  0.33497733990E+01  0.51466191301E+03  0.51696933798E+03  0.00000000000E+00 0. -1.
         22    1    3    3    0    0 -0.41020231331E+01  0.35393884107E+02  0.74568217588E+03  0.74653296046E+03  0.00000000000E+00 0. -1.
         22    1    3    3    0    0  0.55578997756E+02  0.15274629045E+02  0.14969855496E+03  0.16041195916E+03  0.00000000000E+00 0. -1.
</event>
<event>
 7    1  0.6888431E-006  0.8885846E+02  0.7818608E-02  0.1365181E+00
          2   -1    0    0  502    0  0.00000000000E+00  0.00000000000E+00  0.32701550454E+03  0.32701550454E+03  0.00000000000E+00 0. -1.
          1   -1    0    0  501    0 -0.00000000000E+00 -0.00000000000E+00 -0.30355295606E+04  0.30355295606E+04  0.00000000000E+00 0. -1.
         25    2    1    2    0    0  0.19661394755E+02 -0.11074010645E+03 -0.23494241556E+03  0.28891885670E+03  0.12500490194E+03 0.  0.
          2    1    1    2  501    0  0.34113028631E+02  0.40359408886E+02 -0.27668041017E+04  0.27673087139E+04  0.00000000000E+00 0. -1.
          1    1    1    2  502    0 -0.53774423386E+02  0.70380697562E+02  0.29323246119E+03  0.30631749459E+03  0.00000000000E+00 0. -1.
         22    1    3    3    0    0 -0.12553257385E+02 -0.12783389413E+03 -0.20410612505E+03  0.24116052547E+03  0.00000000000E+00 0. -1.
         22    1    3    3    0    0  0.32214652139E+02  0.17093787687E+02 -0.30836290511E+02  0.47758331236E+02  0.00000000000E+00 0. -1.
</event>
<event>
 7    1  0.6888431E-006  0.3972675E+02  0.7818608E-02  0.1541665E+00
          2   -1    0    0  502    0  0.00000000000E+00  0.00000000000E+00  0.87524675877E+02  0.87524675877E+02  0.00000000000E+00 0. -1.
          1   -1    0    0  501    0 -0.00000000000E+00 -0.00000000000E+00 -0.38563629093E+03  0.38563629093E+03  0.00000000000E+00 0. -1.
         25    2    1    2    0    0  0.61699885969E+02  0.23231974323E+02 -0.21328318095E+03  0.25587311116E+03  0.12503892664E+03 0.  0.
          2    1    1    2  501    0 -0.22537488621E+02 -0.23067266013E+02 -0.14331592464E+03  0.14689959636E+03  0.00000000000E+00 0. -1.
          1    1    1    2  502    0 -0.39162397348E+02 -0.16470831002E+00  0.58487490546E+02  0.70388259285E+02  0.00000000000E+00 0. -1.
         22    1    3    3    0    0  0.25533372632E+02 -0.43623389227E+02 -0.33386678105E+02  0.60577417248E+02  0.00000000000E+00 0.  1.
         22    1    3    3    0    0  0.36166513337E+02  0.66855363550E+02 -0.17989650285E+03  0.19529569391E+03  0.00000000000E+00 0.  1.
</event>
<event>
 7    1  0.6888431E-006  0.3871480E+02  0.7818608E-02  0.1550917E+00
          2   -1    0    0  502    0  0.00000000000E+00  0.00000000000E+00  0.34926239254E+03  0.34926239254E+03  0.00000000000E+00 0. -1.
          1   -1    0    0  501    0 -0.00000000000E+00 -0.00000000000E+00 -0.59249743682E+03  0.59249743682E+03  0.00000000000E+00 0. -1.
         25    2    1    2    0    0 -0.52646951361E+02 -0.36800125527E+02  0.29326967075E+03  0.32520410657E+03  0.12499864167E+03 0.  0.
          2    1    1    2  501    0  0.37465946369E+02  0.95721406849E+01 -0.56970369204E+03  0.57101455300E+03  0.00000000000E+00 0. -1.
          1    1    1    2  502    0  0.15181004991E+02  0.27227984842E+02  0.33198977012E+02  0.45541169789E+02  0.00000000000E+00 0. -1.
         22    1    3    3    0    0  0.14849205217E+02  0.37300580784E+02  0.90942235951E+02  0.99409871252E+02  0.00000000000E+00 0. -1.
         22    1    3    3    0    0 -0.67496156578E+02 -0.74100706311E+02  0.20232743480E+03  0.22579423532E+03  0.00000000000E+00 0. -1.
</event>
<event>
 7    1  0.6888431E-006  0.1188986E+03  0.7818608E-02  0.1370631E+00
          2   -1    0    0  502    0  0.00000000000E+00  0.00000000000E+00  0.23592703707E+03  0.23592703707E+03  0.00000000000E+00 0. -1.
          1   -1    0    0  501    0 -0.00000000000E+00 -0.00000000000E+00 -0.10476350512E+04  0.10476350512E+04  0.00000000000E+00 0. -1.
         25    2    1    2    0    0  0.39801842457E+02 -0.72216490332E+02 -0.45841003943E+03  0.48224851295E+03  0.12499782340E+03 0.  0.
          2    1    1    2  501    0  0.20302249504E+02 -0.31820818955E+02 -0.56051390680E+03  0.56178339738E+03  0.00000000000E+00 0. -1.
          1    1    1    2  502    0 -0.60104091962E+02  0.10403730929E+03  0.20721593214E+03  0.23953017790E+03  0.00000000000E+00 0. -1.
         22    1    3    3    0    0  0.59774463819E+01 -0.13547702070E+02  0.36509523229E+01  0.15251214689E+02  0.00000000000E+00 0.  1.
         22    1    3    3    0    0  0.33824396075E+02 -0.58668788262E+02 -0.46206099175E+03  0.46699729826E+03  0.00000000000E+00 0.  1.
</event>
<event>
 7    1  0.6888431E-006  0.2702115E+02  0.7818608E-02  0.1653920E+00
          2   -1    0    0  502    0  0.00000000000E+00  0.00000000000E+00  0.34649880502E+02  0.34649880502E+02  0.00000000000E+00 0. -1.
          1   -1    0    0  501    0 -0.00000000000E+00 -0.00000000000E+00 -0.68381914379E+03  0.68381914379E+03  0.00000000000E+00 0. -1.
         25    2    1    2    0    0  0.28189617523E+02  0.40449316223E+02 -0.27819948169E+03  0.30895042492E+03  0.12499844690E+03 0.  0.
          2    1    1    2  501    0 -0.19167666311E+02 -0.18139759478E+02 -0.38209598538E+03  0.38300625628E+03  0.00000000000E+00 0. -1.
          1    1    1    2  502    0 -0.90219512126E+01 -0.22309556745E+02  0.11126203779E+02  0.26512343095E+02  0.00000000000E+00 0. -1.
         22    1    3    3    0    0 -0.22796528468E+02  0.53571628604E+01 -0.22815764666E+03  0.22935625702E+03  0.00000000000E+00 0.  1.
         22    1    3    3    0    0  0.50986145991E+02  0.35092153363E+02 -0.50041835026E+02  0.79594167899E+02  0.00000000000E+00 0.  1.
</event>
<event>
 7    1  0.6888431E-006  0.6839593E+02  0.7818608E-02  0.1371486E+00
          2   -1    0    0  502    0  0.00000000000E+00  0.00000000000E+00  0.20990802914E+04  0.20990802914E+04  0.00000000000E+00 0. -1.
          1   -1    0    0  501    0 -0.00000000000E+00 -0.00000000000E+00 -0.22093220636E+03  0.22093220636E+03  0.00000000000E+00 0. -1.
         25    2    1    2    0    0  0.62004716278E+02  0.85743606066E+02 -0.48828167792E+02  0.17087890654E+03  0.12497543723E+03 0.  0.
          2    1    1    2  501    0  0.31032388153E+01 -0.65081059867E+02 -0.10089944737E+03  0.12010775547E+03  0.00000000000E+00 0. -1.
          1    1    1    2  502    0 -0.65107955093E+02 -0.20662546199E+02  0.20278757002E+04  0.20290258357E+04  0.00000000000E+00 0. -1.
         22    1    3    3    0    0  0.59898429919E+02  0.86166757734E+02 -0.84752271387E+02  0.13489062069E+03  0.00000000000E+00 0.  1.
         22    1    3    3    0    0  0.21062863583E+01 -0.42315166776E+00  0.35924103595E+02  0.35988285853E+02  0.00000000000E+00 0.  1.
</event>
<event>
 7    1  0.6888431E-006  0.5629168E+02  0.7818608E-02  0.1466640E+00
          2   -1    0    0  502    0  0.00000000000E+00  0.00000000000E+00  0.11392331453E+04  0.11392331453E+04  0.00000000000E+00 0. -1.
          1   -1    0    0  501    0 -0.00000000000E+00 -0.00000000000E+00 -0.66545318131E+03  0.66545318131E+03  0.00000000000E+00 0. -1.
         25    2    1    2    0    0  0.25615961387E+02  0.57168755208E+02  0.94448644346E+02  0.16873016512E+03  0.12499951261E+03 0.  0.
          2    1    1    2  501    0 -0.37952925122E+02 -0.21181032490E+01 -0.62694667052E+03  0.62809795300E+03  0.00000000000E+00 0. -1.
          1    1    1    2  502    0  0.12336963734E+02 -0.55050651959E+02  0.10062779902E+04  0.10078582085E+04  0.00000000000E+00 0. -1.
         22    1    3    3    0    0  0.59097626399E+01 -0.32992332984E+02 -0.40380939577E+01  0.33759821282E+02  0.00000000000E+00 0.  1.
         22    1    3    3    0    0  0.19706198747E+02  0.90161088192E+02  0.98486738304E+02  0.13497034383E+03  0.00000000000E+00 0.  1.
</event>
<event>
 7    1  0.6888431E-006  0.1880929E+03  0.7818608E-02  0.1256944E+00
          2   -1    0    0  502    0  0.00000000000E+00  0.00000000000E+00  0.33411864923E+04  0.33411864923E+04  0.00000000000E+00 0. -1.
          1   -1    0    0  501    0 -0.00000000000E+00 -0.00000000000E+00 -0.44763380326E+03  0.44763380326E+03  0.00000000000E+00 0. -1.
         25    2    1    2    0    0  0.17359305861E+03 -0.13562805390E+03  0.32176571268E+02  0.25534197256E+03  0.12503868286E+03 0.  0.
          2    1    1    2  501    0 -0.64495224229E+02 -0.16881780455E+02 -0.32996520932E+03  0.33663283830E+03  0.00000000000E+00 0. -1.
          1    1    1    2  502    0 -0.10909783438E+03  0.15250983435E+03  0.31913413271E+04  0.31968454847E+04  0.00000000000E+00 0. -1.
         22    1    3    3    0    0  0.10561630966E+03 -0.12372125877E+03  0.69486838120E+02  0.17689029202E+03  0.00000000000E+00 0. -1.
         22    1    3    3    0    0  0.67976748950E+02 -0.11906795128E+02 -0.37310266852E+02  0.78451680546E+02  0.00000000000E+00 0. -1.
</event>
<event>
 7    1  0.6888431E-006  0.2755968E+03  0.7818608E-02  0.1215064E+00
          2   -1    0    0  502    0  0.00000000000E+00  0.00000000000E+00  0.16263873793E+04  0.16263873793E+04  0.00000000000E+00 0. -1.
          1   -1    0    0  501    0 -0.00000000000E+00 -0.00000000000E+00 -0.99926461594E+03  0.99926461594E+03  0.00000000000E+00 0. -1.
         25    2    1    2    0    0 -0.32970127536E+03  0.59931344306E+02  0.20657142633E+03  0.41302704166E+03  0.12499954385E+03 0.  0.
          2    1    1    2  501    0  0.63741363371E+02 -0.28498160953E+02 -0.88102225460E+03  0.88378465685E+03  0.00000000000E+00 0. -1.
          1    1    1    2  502    0  0.26595991199E+03 -0.31433183353E+02  0.13015735916E+04  0.13288402967E+04  0.00000000000E+00 0. -1.
         22    1    3    3    0    0 -0.11992276055E+03  0.57094190031E+02  0.13985991321E+03  0.19287822675E+03  0.00000000000E+00 0. -1.
         22    1    3    3    0    0 -0.20977851482E+03  0.28371542744E+01  0.66711513115E+02  0.22014881491E+03  0.00000000000E+00 0. -1.
</event>
<event>
 7    1  0.6888431E-006  0.1633607E+03  0.7818608E-02  0.1194275E+00
          2   -1    0    0  502    0  0.00000000000E+00  0.00000000000E+00  0.21423627986E+04  0.21423627986E+04  0.00000000000E+00 0. -1.
          1   -1    0    0  501    0 -0.00000000000E+00 -0.00000000000E+00 -0.95130352243E+02  0.95130352243E+02  0.00000000000E+00 0. -1.
         25    2    1    2    0    0 -0.44458291970E+02  0.18929688730E+02  0.21936717454E+03  0.25706430084E+03  0.12500089862E+03 0.  0.
          2    1    1    2  501    0  0.19116044491E+03 -0.90799055388E+02  0.82035435446E+02  0.22697267859E+03  0.00000000000E+00 0. -1.
          1    1    1    2  502    0 -0.14670215294E+03  0.71869366659E+02  0.17458298364E+04  0.17534561715E+04  0.00000000000E+00 0. -1.
         22    1    3    3    0    0 -0.13136677758E+01 -0.46831941399E+02  0.12910311210E+03  0.13734107183E+03  0.00000000000E+00 0.  1.
         22    1    3    3    0    0 -0.43144624194E+02  0.65761630129E+02  0.90264062444E+02  0.11972322900E+03  0.00000000000E+00 0.  1.
</event>
<event>
 7    1  0.6888431E-006  0.2242380E+03  0.7818608E-02  0.1303896E+00
          2   -1    0    0  502    0  0.00000000000E+00  0.00000000000E+00  0.17981740744E+04  0.17981740744E+04  0.00000000000E+00 0. -1.
          1   -1    0    0  501    0 -0.00000000000E+00 -0.00000000000E+00 -0.33547899506E+03  0.33547899506E+03  0.00000000000E+00 0. -1.
         25    2    1    2    0    0 -0.27397592240E+00 -0.19226809355E+03 -0.10670604342E+03  0.25294018442E+03  0.12500184931E+03 0.  0.
          2    1    1    2  501    0  0.14124772646E+02 -0.32871914343E+02 -0.14611469124E+03  0.15043129645E+03  0.00000000000E+00 0. -1.
          1    1    1    2  502    0 -0.13850796724E+02  0.22514000789E+03  0.17155158140E+04  0.17302815886E+04  0.00000000000E+00 0. -1.
         22    1    3    3    0    0 -0.35919202135E+02 -0.97918965939E+02 -0.11058051479E+03  0.15200777356E+03  0.00000000000E+00 0.  1.
         22    1    3    3    0    0  0.35645226213E+02 -0.94349127608E+02  0.38744713656E+01  0.10093241085E+03  0.00000000000E+00 0.  1.
</event>
<event>
 7    1  0.6888431E-006  0.1050540E+03  0.7818608E-02  0.1362353E+00
          2   -1    0    0  502    0  0.00000000000E+00  0.00000000000E+00  0.14381253451E+04  0.14381253451E+04  0.00000000000E+00 0. -1.
          1   -1    0    0  501    0 -0.00000000000E+00 -0.00000000000E+00 -0.60843771941E+03  0.60843771941E+03  0.00000000000E+00 0. -1.
         25    2    1    2    0    0 -0.12819745677E+03  0.59440605790E+02 -0.97747673034E+02  0.21247779850E+03  0.12499773491E+03 0.  0.
          2    1    1    2  501    0  0.25828163921E+02 -0.37782408929E+02 -0.45018076398E+03  0.45250118755E+03  0.00000000000E+00 0. -1.
          1    1    1    2  502    0  0.10236929285E+03 -0.21658196861E+02  0.13776160627E+04  0.13815840784E+04  0.00000000000E+00 0. -1.
         22    1    3    3    0    0 -0.41194919212E+01 -0.32617621862E+02 -0.27035703868E+02  0.42565346860E+02  0.00000000000E+00 0. -1.
         22    1    3    3    0    0 -0.12407796485E+03  0.92058227652E+02 -0.70711969166E+02  0.16991245165E+03  0.00000000000E+00 0. -1.
</event>
<event>
 7    1  0.6888431E-006  0.9408787E+02  0.7818608E-02  0.1337172E+00
          2   -1    0    0  502    0  0.00000000000E+00  0.00000000000E+00  0.11219505949E+04  0.11219505949E+04  0.00000000000E+00 0. -1.
          1   -1    0    0  501    0 -0.00000000000E+00 -0.00000000000E+00 -0.55213332831E+03  0.55213332831E+03  0.00000000000E+00 0. -1.
         25    2    1    2    0    0 -0.12159315585E+02 -0.11133677473E+03  0.37687870537E+03  0.41255176943E+03  0.12497070673E+03 0.  0.
          2    1    1    2  501    0  0.61322872805E+02  0.71379178701E+02 -0.52875478930E+03  0.53706341254E+03  0.00000000000E+00 0. -1.
          1    1    1    2  502    0 -0.49163557220E+02  0.39957596028E+02  0.72169335053E+03  0.72446874125E+03  0.00000000000E+00 0. -1.
         22    1    3    3    0    0  0.12024202453E+02 -0.11910107063E+03  0.36571394822E+03  0.38480688454E+03  0.00000000000E+00 0. -1.
         22    1    3    3    0    0 -0.24183518037E+02  0.77642959000E+01  0.11164757149E+02  0.27744884892E+02  0.00000000000E+00 0. -1.
</event>
<event>
 7    1  0.6888431E-006  0.5986554E+02  0.7818608E-02  0.1499123E+00
          2   -1    0    0  502    0  0.00000000000E+00  0.00000000000E+00  0.72355809123E+03  0.72355809123E+03  0.00000000000E+00 0. -1.
          1   -1    0    0  501    0 -0.00000000000E+00 -0.00000000000E+00 -0.21544825906E+03  0.21544825906E+03  0.00000000000E+00 0. -1.
         25    2    1    2    0    0  0.42394841145E+02  0.62230573582E+02  0.13075022875E+03  0.19593513992E+03  0.12499995957E+03 0.  0.
          2    1    1    2  501    0 -0.28056263589E+02 -0.46562736236E+01 -0.18016622937E+03  0.18239710802E+03  0.00000000000E+00 0. -1.
          1    1    1    2  502    0 -0.14338577557E+02 -0.57574299958E+02  0.55752583279E+03  0.56067410235E+03  0.00000000000E+00 0. -1.
         22    1    3    3    0    0 -0.19078427963E+02  0.34453077808E+02 -0.93172293129E+01  0.40469886904E+02  0.00000000000E+00 0. -1.
         22    1    3    3    0    0  0.61473269108E+02  0.27777495774E+02  0.14006745806E+03  0.15546525301E+03  0.00000000000E+00 0. -1.
</event>
<event>
 7    1  0.6888431E-006  0.1737246E+03  0.7818608E-02  0.1189789E+00
          2   -1    0    0  502    0  0.00000000000E+00  0.00000000000E+00  0.15498761457E+04  0.15498761457E+04  0.00000000000E+00 0. -1.
          1   -1    0    0  501    0 -0.00000000000E+00 -0.00000000000E+00 -0.78341150360E+02  0.78341150360E+02  0.00000000000E+00 0. -1.
         25    2    1    2    0    0  0.22003867870E+02 -0.23284335077E+02  0.49227173731E+03  0.50889914149E+03  0.12498216829E+03 0.  0.
          2    1    1    2  501    0 -0.16494381860E+03 -0.75449703189E+02  0.71311777264E+02  0.19489610202E+03  0.00000000000E+00 0. -1.
          1    1    1    2  502    0  0.14293995073E+03  0.98734038266E+02  0.90795148079E+03  0.92442205258E+03  0.00000000000E+00 0. -1.
         22    1    3    3    0    0  0.12391160446E+02  0.41205737554E+02  0.34710225959E+03  0.34975910606E+03  0.00000000000E+00 0.  1.
         22    1    3    3    0    0  0.96127074241E+01 -0.64490072632E+02  0.14516947773E+03  0.15914003543E+03  0.00000000000E+00 0.  1.
</event>
<event>
 7    1  0.6888431E-006  0.9007728E+02  0.7818608E-02  0.1466324E+00
          2   -1    0    0  502    0  0.00000000000E+00  0.00000000000E+00  0.18393978967E+04  0.18393978967E+04  0.00000000000E+00 0. -1.
          1   -1    0    0  501    0 -0.00000000000E+00 -0.00000000000E+00 -0.50502027327E+02  0.50502027327E+02  0.00000000000E+00 0. -1.
         25    2    1    2    0    0  0.58697166681E+02  0.84584184302E+02  0.18858595182E+03  0.24856604900E+03  0.12498231027E+03 0.  0.
          2    1    1    2  501    0 -0.36048011284E+02 -0.77244142662E+02  0.68541188576E+02  0.10938012262E+03  0.00000000000E+00 0. -1.
          1    1    1    2  502    0 -0.22649155398E+02 -0.73400416400E+01  0.15317687290E+04  0.15319537524E+04  0.00000000000E+00 0. -1.
         22    1    3    3    0    0  0.77919160302E+02  0.74782987864E+02  0.71532715058E+02  0.12954080492E+03  0.00000000000E+00 0.  1.
         22    1    3    3    0    0 -0.19221993621E+02  0.98011964379E+01  0.11705323677E+03  0.11902524408E+03  0.00000000000E+00 0.  1.
</event>
<event>
 7    1  0.6888431E-006  0.1260980E+03  0.7818608E-02  0.1296211E+00
          2   -1    0    0  502    0  0.00000000000E+00  0.00000000000E+00  0.28273303917E+03  0.28273303917E+03  0.00000000000E+00 0. -1.
          1   -1    0    0  501    0 -0.00000000000E+00 -0.00000000000E+00 -0.11016180277E+04  0.11016180277E+04  0.00000000000E+00 0. -1.
         25    2    1    2    0    0  0.51436859797E+02  0.61500160280E+02 -0.20925344240E+03  0.25659383459E+03  0.12500149012E+03 0.  0.
          2    1    1    2  501    0 -0.21365347639E+02  0.64865794791E+02 -0.85095752236E+03  0.85369359508E+03  0.00000000000E+00 0. -1.
          1    1    1    2  502    0 -0.30071512159E+02 -0.12636595507E+03  0.24132597621E+03  0.27406363721E+03  0.00000000000E+00 0. -1.
         22    1    3    3    0    0 -0.21162003925E+01 -0.34990082313E+02 -0.30222925061E+02  0.46284007644E+02  0.00000000000E+00 0.  1.
         22    1    3    3    0    0  0.53553060190E+02  0.96490242593E+02 -0.17903051734E+03  0.21030982695E+03  0.00000000000E+00 0.  1.
</event>
<event>
 7    1  0.6888431E-006  0.1007585E+03  0.7818608E-02  0.1346978E+00
          2   -1    0    0  502    0  0.00000000000E+00  0.00000000000E+00  0.52254944141E+03  0.52254944141E+03  0.00000000000E+00 0. -1.
          1   -1    0    0  501    0 -0.00000000000E+00 -0.00000000000E+00 -0.48094524925E+03  0.48094524925E+03  0.00000000000E+00 0. -1.
         25    2    1    2    0    0 -0.30997639275E+02  0.45573149499E+02 -0.52461082366E+02  0.14633789949E+03  0.12499940027E+03 0.  0.
          2    1    1    2  501    0  0.73008044042E+02 -0.80065508284E+02 -0.37224227625E+03  0.38769185230E+03  0.00000000000E+00 0. -1.
          1    1    1    2  502    0 -0.42010404767E+02  0.34492358785E+02  0.46630755077E+03  0.46946493887E+03  0.00000000000E+00 0. -1.
         22    1    3    3    0    0 -0.20481308462E+02 -0.29838395844E+02 -0.59742030238E+02  0.69849295199E+02  0.00000000000E+00 0. -1.
         22    1    3    3    0    0 -0.10516330813E+02  0.75411545343E+02  0.72809478716E+01  0.76488604293E+02  0.00000000000E+00 0. -1.
</event>
<event>
 7    1  0.6888431E-006  0.1491896E+03  0.7818608E-02  0.1295557E+00
          2   -1    0    0  502    0  0.00000000000E+00  0.00000000000E+00  0.52396579460E+03  0.52396579460E+03  0.00000000000E+00 0. -1.
          1   -1    0    0  501    0 -0.00000000000E+00 -0.00000000000E+00 -0.11653662457E+04  0.11653662457E+04  0.00000000000E+00 0. -1.
         25    2    1    2    0    0  0.18978289411E+03  0.54226619669E+02 -0.39334331660E+03  0.45749624782E+03  0.12500311550E+03 0.  0.
          2    1    1    2  501    0 -0.42504414781E+02 -0.39573419285E+02 -0.72762983227E+03  0.72994373317E+03  0.00000000000E+00 0. -1.
          1    1    1    2  502    0 -0.14727847933E+03 -0.14653200384E+02  0.47957269777E+03  0.50189205931E+03  0.00000000000E+00 0. -1.
         22    1    3    3    0    0  0.93376332290E+01 -0.30564876517E+02 -0.34803361891E+02  0.47251212363E+02  0.00000000000E+00 0. -1.
         22    1    3    3    0    0  0.18044526088E+03  0.84791496186E+02 -0.35853995470E+03  0.41024503546E+03  0.00000000000E+00 0. -1.
</event>
<event>
 7    1  0.6888431E-006  0.1057147E+03  0.7818608E-02  0.1336398E+00
          2   -1    0    0  502    0  0.00000000000E+00  0.00000000000E+00  0.32926814736E+03  0.32926814736E+03  0.00000000000E+00 0. -1.
          1   -1    0    0  501    0 -0.00000000000E+00 -0.00000000000E+00 -0.11904832273E+04  0.11904832273E+04  0.00000000000E+00 0. -1.
         25    2    1    2    0    0 -0.30514711942E+02 -0.40775998973E+02  0.80952752710E+02  0.15739865264E+03  0.12500863148E+03 0.  0.
          2    1    1    2  501    0  0.74673330322E+02  0.76448491397E+02 -0.11458935059E+04  0.11508659371E+04  0.00000000000E+00 0. -1.
          1    1    1    2  502    0 -0.44158618379E+02 -0.35672492424E+02  0.20372567325E+03  0.21148678501E+03  0.00000000000E+00 0. -1.
         22    1    3    3    0    0 -0.49992071228E+02  0.14637480531E+02  0.83713165339E+02  0.98596942513E+02  0.00000000000E+00 0. -1.
         22    1    3    3    0    0  0.19477359285E+02 -0.55413479505E+02 -0.27604126292E+01  0.58801710123E+02  0.00000000000E+00 0. -1.
</event>
<event>
 7    1  0.6888431E-006  0.6350835E+02  0.7818608E-02  0.1391426E+00
          2   -1    0    0  502    0  0.00000000000E+00  0.00000000000E+00  0.22465870845E+03  0.22465870845E+03  0.00000000000E+00 0. -1.
          1   -1    0    0  501    0 -0.00000000000E+00 -0.00000000000E+00 -0.11329087699E+03  0.11329087699E+03  0.00000000000E+00 0. -1.
         25    2    1    2    0    0  0.47541907918E+01 -0.34837686608E+02 -0.36616975439E+02  0.13491070348E+03  0.12499531305E+03 0.  0.
          2    1    1    2  501    0 -0.63069497413E+02  0.74531324483E+01  0.33824230601E+02  0.71954077459E+02  0.00000000000E+00 0. -1.
          1    1    1    2  502    0  0.58315306621E+02  0.27384554159E+02  0.11416057630E+03  0.13108480451E+03  0.00000000000E+00 0. -1.
         22    1    3    3    0    0  0.11718741813E+02 -0.80439418834E+02 -0.10675964069E+02  0.81986616108E+02  0.00000000000E+00 0. -1.
         22    1    3    3    0    0 -0.69645510213E+01  0.45601732226E+02 -0.25941011369E+02  0.52924087369E+02  0.00000000000E+00 0. -1.
</event>
<event>
 7    1  0.6888431E-006  0.1203821E+03  0.7818608E-02  0.1386963E+00
          2   -1    0    0  502    0  0.00000000000E+00  0.00000000000E+00  0.20669909359E+03  0.20669909359E+03  0.00000000000E+00 0. -1.
          1   -1    0    0  501    0 -0.00000000000E+00 -0.00000000000E+00 -0.21574632879E+04  0.21574632879E+04  0.00000000000E+00 0. -1.
         25    2    1    2    0    0  0.12352889991E+03  0.67947942867E+02  0.17958507942E+02  0.18927814329E+03  0.12500958149E+03 0.  0.
          2    1    1    2  501    0 -0.11435173472E+03 -0.36641601755E+02 -0.20674357418E+04  0.20709199580E+04  0.00000000000E+00 0. -1.
          1    1    1    2  502    0 -0.91771651953E+01 -0.31306341112E+02  0.98713039582E+02  0.10396428011E+03  0.00000000000E+00 0. -1.
         22    1    3    3    0    0  0.99660043765E+02  0.73653080513E+02 -0.36800159581E+02  0.12927162232E+03  0.00000000000E+00 0. -1.
         22    1    3    3    0    0  0.23868856150E+02 -0.57051376455E+01  0.54758667523E+02  0.60006520965E+02  0.00000000000E+00 0. -1.
</event>
<event>
 7    1  0.6888431E-006  0.1166866E+03  0.7818608E-02  0.1451991E+00
          2   -1    0    0  502    0  0.00000000000E+00  0.00000000000E+00  0.11291608790E+04  0.11291608790E+04  0.00000000000E+00 0. -1.
          1   -1    0    0  501    0 -0.00000000000E+00 -0.00000000000E+00 -0.30584440234E+03  0.30584440234E+03  0.00000000000E+00 0. -1.
         25    2    1    2    0    0 -0.12080685953E+03  0.19564006999E+02  0.19584568737E+03  0.26259875541E+03  0.12500210158E+03 0.  0.
          2    1    1    2  501    0  0.11039268834E+03 -0.37104054100E+02 -0.25990047520E+03  0.28480083124E+03  0.00000000000E+00 0. -1.
          1    1    1    2  502    0  0.10414171195E+02  0.17540047101E+02  0.88737126450E+03  0.88760569471E+03  0.00000000000E+00 0. -1.
         22    1    3    3    0    0 -0.12024587931E+03  0.10506950084E+02  0.76491327183E+02  0.14289993221E+03  0.00000000000E+00 0. -1.
         22    1    3    3    0    0 -0.56098022292E+00  0.90570569151E+01  0.11935436019E+03  0.11969882320E+03  0.00000000000E+00 0. -1.
</event>
<event>
 7    1  0.6888431E-006  0.3385913E+02  0.7818608E-02  0.1596687E+00
          2   -1    0    0  502    0  0.00000000000E+00  0.00000000000E+00  0.95436037094E+03  0.95436037094E+03  0.00000000000E+00 0. -1.
          1   -1    0    0  501    0 -0.00000000000E+00 -0.00000000000E+00 -0.65308814848E+03  0.65308814848E+03  0.00000000000E+00 0. -1.
         25    2    1    2    0    0 -0.66497392184E+01 -0.35334701514E+02 -0.14796778815E+03  0.19700869389E+03  0.12500079591E+03 0.  0.
          2    1    1    2  501    0  0.25772382209E+02  0.73742518073E+01 -0.47991723122E+03  0.48066531402E+03  0.00000000000E+00 0. -1.
          1    1    1    2  502    0 -0.19122642991E+02  0.27960449706E+02  0.92915724182E+03  0.92977451151E+03  0.00000000000E+00 0. -1.
         22    1    3    3    0    0  0.35371312193E+02 -0.62546573090E+02 -0.11944030086E+03  0.13938862580E+03  0.00000000000E+00 0. -1.
         22    1    3    3    0    0 -0.42021051412E+02  0.27211871576E+02 -0.28527487284E+02  0.57620068094E+02  0.00000000000E+00 0. -1.
</event>
<event>
 7    1  0.6888431E-006  0.7214066E+02  0.7818608E-02  0.1462493E+00
          2   -1    0    0  502    0  0.00000000000E+00  0.00000000000E+00  0.34524820843E+04  0.34524820843E+04  0.00000000000E+00 0. -1.
          1   -1    0    0  501    0 -0.00000000000E+00 -0.00000000000E+00 -0.82778618313E+03  0.82778618313E+03  0.00000000000E+00 0. -1.
         25    2    1    2    0    0  0.55537019490E+02  0.11002764231E+02  0.14042001455E+04  0.14108892896E+04  0.12500047078E+03 0.  0.
          2    1    1    2  501    0 -0.59140516207E+02 -0.41351707661E+02 -0.82274799551E+03  0.82590667058E+03  0.00000000000E+00 0. -1.
          1    1    1    2  502    0  0.36034967167E+01  0.30348943430E+02  0.20432437513E+04  0.20434723073E+04  0.00000000000E+00 0. -1.
         22    1    3    3    0    0  0.40805188343E+02  0.66535308215E+02  0.69609585065E+03  0.70045802439E+03  0.00000000000E+00 0. -1.
         22    1    3    3    0    0  0.14731831147E+02 -0.55532543984E+02  0.70810429481E+03  0.71043126523E+03  0.00000000000E+00 0. -1.
</event>
<event>
 7    1  0.6888431E-006  0.8991321E+02  0.7818608E-02  0.1392196E+00
          2   -1    0    0  502    0  0.00000000000E+00  0.00000000000E+00  0.67807619090E+03  0.67807619090E+03  0.00000000000E+00 0. -1.
          1   -1    0    0  501    0 -0.00000000000E+00 -0.00000000000E+00 -0.19914734923E+03  0.19914734923E+03  0.00000000000E+00 0. -1.
         25    2    1    2    0    0  0.45637626632E+02  0.48786020753E+02 -0.67379539846E+02  0.15693368412E+03  0.12500124014E+03 0.  0.
          2    1    1    2  501    0 -0.63411733921E+02 -0.86706528159E+02 -0.52816988616E+02  0.11970256602E+03  0.00000000000E+00 0. -1.
          1    1    1    2  502    0  0.17774107289E+02  0.37920507406E+02  0.59912537013E+03  0.60058728999E+03  0.00000000000E+00 0. -1.
         22    1    3    3    0    0 -0.40049859301E+01  0.18480542208E+02 -0.91891941646E+02  0.93817372016E+02  0.00000000000E+00 0.  1.
         22    1    3    3    0    0  0.49642612562E+02  0.30305478545E+02  0.24512401800E+02  0.63116312106E+02  0.00000000000E+00 0.  1.
</event>
<event>
 7    1  0.6888431E-006  0.1011650E+03  0.7818608E-02  0.1461874E+00
          2   -1    0    0  502    0  0.00000000000E+00  0.00000000000E+00  0.16822067248E+04  0.16822067248E+04  0.00000000000E+00 0. -1.
          1   -1    0    0  501    0 -0.00000000000E+00 -0.00000000000E+00 -0.40786843234E+03  0.40786843234E+03  0.00000000000E+00 0. -1.
         25    2    1    2    0    0 -0.33995451482E+02 -0.10343573020E+03  0.17702105809E+03  0.24252087898E+03  0.12500112291E+03 0.  0.
          2    1    1    2  501    0  0.49522008436E+02  0.88002696971E+02 -0.36823950440E+03  0.38183404326E+03  0.00000000000E+00 0. -1.
          1    1    1    2  502    0 -0.15526556954E+02  0.15433033225E+02  0.14655567388E+04  0.14657202349E+04  0.00000000000E+00 0. -1.
         22    1    3    3    0    0 -0.16108130807E+02 -0.40066103726E+02 -0.99326328987E+01  0.44310515029E+02  0.00000000000E+00 0. -1.
         22    1    3    3    0    0 -0.17887320675E+02 -0.63369626470E+02  0.18695369099E+03  0.19821036395E+03  0.00000000000E+00 0. -1.
</event>
<event>
 7    1  0.6888431E-006  0.6385132E+02  0.7818608E-02  0.1442656E+00
          2   -1    0    0  502    0  0.00000000000E+00  0.00000000000E+00  0.30594145950E+04  0.30594145950E+04  0.00000000000E+00 0. -1.
          1   -1    0    0  501    0 -0.00000000000E+00 -0.00000000000E+00 -0.64526712515E+01  0.64526712515E+01  0.00000000000E+00 0. -1.
         25    2    1    2    0    0 -0.52971765932E+02  0.22221072110E+02  0.12503557309E+04  0.12579006971E+04  0.12499970342E+03 0.  0.
          2    1    1    2  501    0  0.68113265574E+02  0.14740393709E+02  0.50954826058E+03  0.51429186851E+03  0.00000000000E+00 0. -1.
          1    1    1    2  502    0 -0.15141499642E+02 -0.36961465819E+02  0.12930579323E+04  0.12936747007E+04  0.00000000000E+00 0. -1.
         22    1    3    3    0    0  0.48307401214E+01  0.64411317090E+01  0.10151852302E+04  0.10152171570E+04  0.00000000000E+00 0.  1.
         22    1    3    3    0    0 -0.57802506054E+02  0.15779940401E+02  0.23517050068E+03  0.24268354006E+03  0.00000000000E+00 0.  1.
</event>
<event>
 7    1  0.6888431E-006  0.9045917E+02  0.7818608E-02  0.1451686E+00
          2   -1    0    0  502    0  0.00000000000E+00  0.00000000000E+00  0.20718595611E+04  0.20718595611E+04  0.00000000000E+00 0. -1.
          1   -1    0    0  501    0 -0.00000000000E+00 -0.00000000000E+00 -0.27872144316E+02  0.27872144316E+02  0.00000000000E+00 0. -1.
         25    2    1    2    0    0 -0.93010858345E+02  0.51066370834E+02  0.89243745265E+03  0.90737436805E+03  0.12499937166E+03 0.  0.
          2    1    1    2  501    0  0.85122975369E+02 -0.25901555320E+02  0.77536082775E+02  0.11801972562E+03  0.00000000000E+00 0. -1.
          1    1    1    2  502    0  0.78878829762E+01 -0.25164815514E+02  0.10740138814E+04  0.10743376118E+04  0.00000000000E+00 0. -1.
         22    1    3    3    0    0 -0.55736122039E+02 -0.33018984307E+02  0.50661268914E+03  0.51073788329E+03  0.00000000000E+00 0. -1.
         22    1    3    3    0    0 -0.37274736306E+02  0.84085355141E+02  0.38582476350E+03  0.39663648477E+03  0.00000000000E+00 0. -1.
</event>
<event>
 7    1  0.6888431E-006  0.5635133E+02  0.7818608E-02  0.1422566E+00
          2   -1    0    0  502    0  0.00000000000E+00  0.00000000000E+00  0.12341938469E+04  0.12341938469E+04  0.00000000000E+00 0. -1.
          1   -1    0    0  501    0 -0.00000000000E+00 -0.00000000000E+00 -0.54580213080E+03  0.54580213080E+03  0.00000000000E+00 0. -1.
         25    2    1    2    0    0 -0.45330602880E+01  0.83142766033E+01  0.26292350223E+02  0.12808515042E+03  0.12499936899E+03 0.  0.
          2    1    1    2  501    0 -0.52433907149E+02 -0.50247872111E+01 -0.49279776439E+03  0.49560488264E+03  0.00000000000E+00 0. -1.
          1    1    1    2  502    0  0.56966967437E+02 -0.32894893922E+01  0.11548971303E+04  0.11563059447E+04  0.00000000000E+00 0. -1.
         22    1    3    3    0    0  0.12629095725E+02  0.54105127647E+02  0.49081822743E+02  0.74134231097E+02  0.00000000000E+00 0. -1.
         22    1    3    3    0    0 -0.17162156013E+02 -0.45790851044E+02 -0.22789472520E+02  0.53950919326E+02  0.00000000000E+00 0. -1.
</event>
<event>
 7    1  0.6888431E-006  0.5917074E+02  0.7818608E-02  0.1528470E+00
          2   -1    0    0  502    0  0.00000000000E+00  0.00000000000E+00  0.89413122279E+03  0.89413122279E+03  0.00000000000E+00 0. -1.
          1   -1    0    0  501    0 -0.00000000000E+00 -0.00000000000E+00 -0.13787254857E+03  0.13787254857E+03  0.00000000000E+00 0. -1.
         25    2    1    2    0    0  0.73939916159E+02 -0.24737320316E+02  0.39725330474E+02  0.15261235124E+03  0.12503352211E+03 0.  0.
          2    1    1    2  501    0 -0.56640260651E+02  0.86738930841E+01 -0.71149835083E+02  0.91354554239E+02  0.00000000000E+00 0. -1.
          1    1    1    2  502    0 -0.17299655508E+02  0.16063427232E+02  0.78768317883E+03  0.78803686588E+03  0.00000000000E+00 0. -1.
         22    1    3    3    0    0  0.38247240732E+02 -0.38315910581E+02 -0.37910835995E+02  0.66092298440E+02  0.00000000000E+00 0.  1.
         22    1    3    3    0    0  0.35692675427E+02  0.13578590264E+02  0.77636166470E+02  0.86520052802E+02  0.00000000000E+00 0.  1.
</event>
<event>
 7    1  0.6888431E-006  0.5259734E+02  0.7818608E-02  0.1465973E+00
          2   -1    0    0  502    0  0.00000000000E+00  0.00000000000E+00  0.85430450826E+03  0.85430450826E+03  0.00000000000E+00 0. -1.
          1   -1    0    0  501    0 -0.00000000000E+00 -0.00000000000E+00 -0.86868561462E+02  0.86868561462E+02  0.00000000000E+00 0. -1.
         25    2    1    2    0    0  0.94559058115E+01  0.42607145129E+02  0.23789090769E+03  0.27225108593E+03  0.12499514735E+03 0.  0.
          2    1    1    2  501    0  0.31414885902E+02 -0.43360057900E+02 -0.58588233865E+02  0.79369835736E+02  0.00000000000E+00 0. -1.
          1    1    1    2  502    0 -0.40870791713E+02  0.75291277050E+00  0.58813327298E+03  0.58955214806E+03  0.00000000000E+00 0. -1.
         22    1    3    3    0    0  0.49225326293E+02  0.68213051133E+02  0.13593486413E+03  0.15985756278E+03  0.00000000000E+00 0.  1.
         22    1    3    3    0    0 -0.39769420482E+02 -0.25605906004E+02  0.10195604356E+03  0.11239352315E+03  0.00000000000E+00 0.  1.
</event>
<event>
 7    1  0.6888431E-006  0.6062363E+02  0.7818608E-02  0.1501778E+00
          2   -1    0    0  502    0  0.00000000000E+00  0.00000000000E+00  0.17716098380E+04  0.17716098380E+04  0.00000000000E+00 0. -1.
          1   -1    0    0  501    0 -0.00000000000E+00 -0.00000000000E+00 -0.29792984415E+02  0.29792984415E+02  0.00000000000E+00 0. -1.
         25    2    1    2    0    0  0.52074894163E+02 -0.64678159329E+02  0.56959820574E+03  0.58903571478E+03  0.12500359360E+03 0.  0.
          2    1    1    2  501    0 -0.24622477599E+02  0.12418324151E+02 -0.95057762611E+01  0.29169178257E+02  0.00000000000E+00 0. -1.
          1    1    1    2  502    0 -0.27452416564E+02  0.52259835178E+02  0.11817244241E+04  0.11831979293E+04  0.00000000000E+00 0. -1.
         22    1    3    3    0    0 -0.32647567881E+02 -0.53968475729E+02  0.28527916894E+03  0.29216889686E+03  0.00000000000E+00 0.  1.
         22    1    3    3    0    0  0.84722462044E+02 -0.10709683600E+02  0.28431903680E+03  0.29686681792E+03  0.00000000000E+00 0.  1.
</event>
<event>
 7    1  0.6888431E-006  0.1093847E+03  0.7818608E-02  0.1277924E+00
          2   -1    0    0  502    0  0.00000000000E+00  0.00000000000E+00  0.34298652691E+03  0.34298652691E+03  0.00000000000E+00 0. -1.
          1   -1    0    0  501    0 -0.00000000000E+00 -0.00000000000E+00 -0.47154995562E+03  0.47154995562E+03  0.00000000000E+00 0. -1.
         25    2    1    2    0    0  0.58054973630E+02  0.43741536047E+02  0.97101389122E+02  0.17417640855E+03  0.12500015834E+03 0.  0.
          2    1    1    2  501    0  0.47029074136E+02 -0.98758646735E+02 -0.40823824731E+03  0.42263869994E+03  0.00000000000E+00 0. -1.
          1    1    1    2  502    0 -0.10508404777E+03  0.55017110687E+02  0.18257342948E+03  0.21772137404E+03  0.00000000000E+00 0. -1.
         22    1    3    3    0    0  0.74287304278E+02  0.76889403902E+02  0.64047128703E+02  0.12462992700E+03  0.00000000000E+00 0.  1.
         22    1    3    3    0    0 -0.16232330648E+02 -0.33147867855E+02  0.33054260418E+02  0.49546481544E+02  0.00000000000E+00 0.  1.
</event>
<event>
 7    1  0.6888431E-006  0.9432688E+02  0.7818608E-02  0.1299998E+00
          2   -1    0    0  502    0  0.00000000000E+00  0.00000000000E+00  0.28649062049E+04  0.28649062049E+04  0.00000000000E+00 0. -1.
          1   -1    0    0  501    0 -0.00000000000E+00 -0.00000000000E+00 -0.67928797109E+03  0.67928797109E+03  0.00000000000E+00 0. -1.
         25    2    1    2    0    0 -0.10723250921E+03  0.10031175076E+03  0.69598387126E+03  0.72220524910E+03  0.12500245761E+03 0.  0.
          2    1    1    2  501    0  0.19453643534E+02 -0.92173401327E+02 -0.66193981953E+03  0.66860953092E+03  0.00000000000E+00 0. -1.
          1    1    1    2  502    0  0.87778865672E+02 -0.81383494318E+01  0.21515741821E+04  0.21533793960E+04  0.00000000000E+00 0. -1.
         22    1    3    3    0    0 -0.11016896685E+03  0.11765334280E+03  0.67858625400E+03  0.69746599519E+03  0.00000000000E+00 0. -1.
         22    1    3    3    0    0  0.29364576454E+01 -0.17341592037E+02  0.17397617256E+02  0.24739253911E+02  0.00000000000E+00 0. -1.
</event>
<event>
 7    1  0.6888431E-006  0.5913566E+02  0.7818608E-02  0.1462334E+00
          2   -1    0    0  502    0  0.00000000000E+00  0.00000000000E+00  0.11332786396E+04  0.11332786396E+04  0.00000000000E+00 0. -1.
          1   -1    0    0  501    0 -0.00000000000E+00 -0.00000000000E+00 -0.56448914993E+02  0.56448914993E+02  0.00000000000E+00 0. -1.
         25    2    1    2    0    0 -0.54096980016E+02 -0.59373113554E+02  0.11888022690E+03  0.19028635291E+03  0.12499895158E+03 0.  0.
          2    1    1    2  501    0 -0.40702086647E+00  0.37324162778E+02 -0.22964520472E+01  0.37396958233E+02  0.00000000000E+00 0. -1.
          1    1    1    2  502    0  0.54504000882E+02  0.22048950776E+02  0.96024594978E+03  0.96204424347E+03  0.00000000000E+00 0. -1.
         22    1    3    3    0    0 -0.37937457300E+02 -0.83796705297E+02  0.30073932827E+02  0.96775926349E+02  0.00000000000E+00 0.  1.
         22    1    3    3    0    0 -0.16159522716E+02  0.24423591743E+02  0.88806294077E+02  0.93510426561E+02  0.00000000000E+00 0.  1.
</event>
<event>
 7    1  0.6888431E-006  0.6335653E+02  0.7818608E-02  0.1391193E+00
          2   -1    0    0  502    0  0.00000000000E+00  0.00000000000E+00  0.39282613799E+03  0.39282613799E+03  0.00000000000E+00 0. -1.
          1   -1    0    0  501    0 -0.00000000000E+00 -0.00000000000E+00 -0.26997000121E+03  0.26997000121E+03  0.00000000000E+00 0. -1.
         25    2    1    2    0    0  0.21107597470E+02  0.94648355202E+02  0.11115511283E+03  0.19334992017E+03  0.12499956284E+03 0.  0.
          2    1    1    2  501    0  0.25496182733E+02 -0.54217858801E+02 -0.22085903946E+03  0.22884131371E+03  0.00000000000E+00 0. -1.
          1    1    1    2  502    0 -0.46603780203E+02 -0.40430496402E+02  0.23256006341E+03  0.24060490532E+03  0.00000000000E+00 0. -1.
         22    1    3    3    0    0  0.33152850726E+02  0.81102712425E+02  0.72954731691E+01  0.87920335547E+02  0.00000000000E+00 0.  1.
         22    1    3    3    0    0 -0.12045253256E+02  0.13545642778E+02  0.10385963966E+03  0.10542958463E+03  0.00000000000E+00 0.  1.
</event>
<event>
 7    1  0.6888431E-006  0.1269244E+03  0.7818608E-02  0.1429817E+00
          2   -1    0    0  502    0  0.00000000000E+00  0.00000000000E+00  0.25026835946E+03  0.25026835946E+03  0.00000000000E+00 0. -1.
          1   -1    0    0  501    0 -0.00000000000E+00 -0.00000000000E+00 -0.39861676311E+03  0.39861676311E+03  0.00000000000E+00 0. -1.
         25    2    1    2    0    0  0.78059308427E+02  0.89096048061E+02 -0.48052992791E+02  0.17879826869E+03  0.12501347670E+03 0.  0.
          2    1    1    2  501    0 -0.99211653298E+02 -0.82596003770E+02 -0.26982648882E+03  0.29911767928E+03  0.00000000000E+00 0. -1.
          1    1    1    2  502    0  0.21152344871E+02 -0.65000442914E+01  0.16953107796E+03  0.17096917460E+03  0.00000000000E+00 0. -1.
         22    1    3    3    0    0 -0.20198305964E+02  0.37665386831E+02 -0.52632409360E+02  0.67799877905E+02  0.00000000000E+00 0. -1.
         22    1    3    3    0    0  0.98257614391E+02  0.51430661230E+02  0.45794165686E+01  0.11099839078E+03  0.00000000000E+00 0. -1.
</event>
<event>
 7    1  0.6888431E-006  0.3317181E+02  0.7818608E-02  0.1642584E+00
          2   -1    0    0  502    0  0.00000000000E+00  0.00000000000E+00  0.14015356883E+04  0.14015356883E+04  0.00000000000E+00 0. -1.
          1   -1    0    0  501    0 -0.00000000000E+00 -0.00000000000E+00 -0.53638748376E+02  0.53638748376E+02  0.00000000000E+00 0. -1.
         25    2    1    2    0    0  0.44117016751E+02 -0.42035469571E+01  0.27943632407E+03  0.30931152955E+03  0.12499992850E+03 0.  0.
          2    1    1    2  501    0 -0.16091478684E+02 -0.13339265557E+02 -0.35613420427E+02  0.41293914883E+02  0.00000000000E+00 0. -1.
          1    1    1    2  502    0 -0.28025538067E+02  0.17542812514E+02  0.11040740362E+04  0.11045689922E+04  0.00000000000E+00 0. -1.
         22    1    3    3    0    0  0.33861919418E+02  0.37962790553E+02  0.36701141590E+02  0.62727799637E+02  0.00000000000E+00 0.  1.
         22    1    3    3    0    0  0.10255097333E+02 -0.42166337510E+02  0.24273518248E+03  0.24658372991E+03  0.00000000000E+00 0.  1.
</event>
<event>
 7    1  0.6888431E-006  0.9852224E+02  0.7818608E-02  0.1368468E+00
          2   -1    0    0  502    0  0.00000000000E+00  0.00000000000E+00  0.85930119368E+03  0.85930119368E+03  0.00000000000E+00 0. -1.
          1   -1    0    0  501    0 -0.00000000000E+00 -0.00000000000E+00 -0.35082526050E+02  0.35082526050E+02  0.00000000000E+00 0. -1.
         25    2    1    2    0    0 -0.58594833761E+02 -0.38138208847E+02  0.35303102570E+03  0.38097724582E+03  0.12499951684E+03 0.  0.
          2    1    1    2  501    0  0.10497027158E+03  0.37918625206E+02  0.14026868520E+03  0.17925368644E+03  0.00000000000E+00 0. -1.
          1    1    1    2  502    0 -0.46375437822E+02  0.21958364089E+00  0.33091895673E+03  0.33415278747E+03  0.00000000000E+00 0. -1.
         22    1    3    3    0    0  0.34438170394E+02  0.63002676879E+01  0.13996224303E+03  0.14427442749E+03  0.00000000000E+00 0.  1.
         22    1    3    3    0    0 -0.93033004155E+02 -0.44438476535E+02  0.21306878267E+03  0.23670281834E+03  0.00000000000E+00 0.  1.
</event>
<event>
 7    1  0.6888431E-006  0.1069963E+03  0.7818608E-02  0.1295420E+00
          2   -1    0    0  502    0  0.00000000000E+00  0.00000000000E+00  0.40649196517E+03  0.40649196517E+03  0.00000000000E+00 0. -1.
          1   -1    0    0  501    0 -0.00000000000E+00 -0.00000000000E+00 -0.57117211220E+03  0.57117211220E+03  0.00000000000E+00 0. -1.
         25    2    1    2    0    0  0.22765154129E+02  0.11866112007E+03 -0.92443047366E+02  0.19688150379E+03  0.12497158025E+03 0.  0.
          2    1    1    2  501    0  0.62085844472E+02 -0.52145282012E+02 -0.41428540909E+03  0.42214474141E+03  0.00000000000E+00 0. -1.
          1    1    1    2  502    0 -0.84850998601E+02 -0.66515838063E+02  0.34204830942E+03  0.35863783216E+03  0.00000000000E+00 0. -1.
         22    1    3    3    0    0 -0.25819852219E+02  0.12181084752E+03 -0.73817247495E+02  0.14475335357E+03  0.00000000000E+00 0. -1.
         22    1    3    3    0    0  0.48585006348E+02 -0.31497274478E+01 -0.18625799871E+02  0.52128150223E+02  0.00000000000E+00 0. -1.
</event>
<event>
 7    1  0.6888431E-006  0.3039460E+02  0.7818608E-02  0.1603563E+00
          2   -1    0    0  502    0  0.00000000000E+00  0.00000000000E+00  0.23204527858E+04  0.23204527858E+04  0.00000000000E+00 0. -1.
          1   -1    0    0  501    0 -0.00000000000E+00 -0.00000000000E+00 -0.25233614693E+03  0.25233614693E+03  0.00000000000E+00 0. -1.
         25    2    1    2    0    0  0.57857346804E+02  0.96813987974E+01  0.88091294798E+03  0.89166934715E+03  0.12500160264E+03 0.  0.
          2    1    1    2  501    0 -0.30312114312E+02 -0.17941658837E+01 -0.24588080546E+03  0.24774869082E+03  0.00000000000E+00 0. -1.
          1    1    1    2  502    0 -0.27545232492E+02 -0.78872329137E+01  0.14330844964E+04  0.14333708948E+04  0.00000000000E+00 0. -1.
         22    1    3    3    0    0  0.75641760022E+02 -0.58467545746E+01  0.27434088237E+03  0.28463798085E+03  0.00000000000E+00 0. -1.
         22    1    3    3    0    0 -0.17784413218E+02  0.15528153372E+02  0.60657206561E+03  0.60703136630E+03  0.00000000000E+00 0. -1.
</event>
<event>
 7    1  0.6888431E-006  0.8584579E+02  0.7818608E-02  0.1321445E+00
          2   -1    0    0  502    0  0.00000000000E+00  0.00000000000E+00  0.13237453501E+03  0.13237453501E+03  0.00000000000E+00 0. -1.
          1   -1    0    0  501    0 -0.00000000000E+00 -0.00000000000E+00 -0.10829002107E+04  0.10829002107E+04  0.00000000000E+00 0. -1.
         25    2    1    2    0    0  0.15616328110E+03  0.43566207677E+02 -0.69447083195E+02  0.21617775813E+03  0.12499976372E+03 0.  0.
          2    1    1    2  501    0 -0.77117233632E+02 -0.32987870228E+02 -0.91030389508E+03  0.91415996888E+03  0.00000000000E+00 0. -1.
          1    1    1    2  502    0 -0.79046047468E+02 -0.10578337449E+02  0.29225302541E+02  0.84937018739E+02  0.00000000000E+00 0. -1.
         22    1    3    3    0    0 -0.82922262000E+01  0.39201117230E+02 -0.10488691588E+02  0.41418610052E+02  0.00000000000E+00 0.  1.
         22    1    3    3    0    0  0.16445550730E+03  0.43650904471E+01 -0.58958391606E+02  0.17475914808E+03  0.00000000000E+00 0.  1.
</event>
<event>
 7    1  0.6888431E-006  0.8983145E+02  0.7818608E-02  0.1370612E+00
          2   -1    0    0  502    0  0.00000000000E+00  0.00000000000E+00  0.71618513701E+03  0.71618513701E+03  0.00000000000E+00 0. -1.
          1   -1    0    0  501    0 -0.00000000000E+00 -0.00000000000E+00 -0.14994868307E+03  0.14994868307E+03  0.00000000000E+00 0. -1.
         25    2    1    2    0    0  0.36282261730E+02  0.87310416060E+02  0.87071955232E+02  0.17929284180E+03  0.12499954586E+03 0.  0.
          2    1    1    2  501    0  0.13618317113E+02 -0.89891458452E+02 -0.82613542496E+02  0.12284514751E+03  0.00000000000E+00 0. -1.
          1    1    1    2  502    0 -0.49900578843E+02  0.25810423921E+01  0.56177804120E+03  0.56399583077E+03  0.00000000000E+00 0. -1.
         22    1    3    3    0    0  0.53011306270E+02  0.51365880762E+02 -0.99502725842E+01  0.74482616921E+02  0.00000000000E+00 0.  1.
         22    1    3    3    0    0 -0.16729044539E+02  0.35944535299E+02  0.97022227816E+02  0.10481022488E+03  0.00000000000E+00 0.  1.
</event>
<event>
 7    1  0.6888431E-006  0.7666380E+02  0.7818608E-02  0.1358795E+00
          2   -1    0    0  502    0  0.00000000000E+00  0.00000000000E+00  0.14906677944E+03  0.14906677944E+03  0.00000000000E+00 0. -1.
          1   -1    0    0  501    0 -0.00000000000E+00 -0.00000000000E+00 -0.10174529181E+04  0.10174529181E+04  0.00000000000E+00 0. -1.
         25    2    1    2    0    0  0.84873883820E+02 -0.22799453873E+02 -0.16680283558E+02  0.15371790016E+03  0.12501027845E+03 0.  0.
          2    1    1    2  501    0 -0.16597007080E+02  0.62449273464E+02 -0.91148312403E+03  0.91377068118E+03  0.00000000000E+00 0. -1.
          1    1    1    2  502    0 -0.68276876739E+02 -0.39649819591E+02  0.59777268940E+02  0.99031116185E+02  0.00000000000E+00 0. -1.
         22    1    3    3    0    0  0.11120107942E+03 -0.22019013200E+02  0.12922133683E+02  0.11409425290E+03  0.00000000000E+00 0. -1.
         22    1    3    3    0    0 -0.26327195597E+02 -0.78044067228E+00 -0.29602417241E+02  0.39623647259E+02  0.00000000000E+00 0. -1.
</event>
<event>
 7    1  0.6888431E-006  0.5467626E+02  0.7818608E-02  0.1483224E+00
          2   -1    0    0  502    0  0.00000000000E+00  0.00000000000E+00  0.33695046150E+03  0.33695046150E+03  0.00000000000E+00 0. -1.
          1   -1    0    0  501    0 -0.00000000000E+00 -0.00000000000E+00 -0.46691258829E+03  0.46691258829E+03  0.00000000000E+00 0. -1.
         25    2    1    2    0    0  0.23326264492E+02 -0.51250439436E+01  0.32224365692E+02  0.13133295382E+03  0.12505820375E+03 0.  0.
          2    1    1    2  501    0  0.25617061088E+02 -0.23525106440E+02 -0.41346803496E+03  0.41492828343E+03  0.00000000000E+00 0. -1.
          1    1    1    2  502    0 -0.48943325580E+02  0.28650150384E+02  0.25128154248E+03  0.25760181255E+03  0.00000000000E+00 0. -1.
         22    1    3    3    0    0  0.21220975843E+02  0.14368304161E+02  0.77696461430E+02  0.81813923626E+02  0.00000000000E+00 0. -1.
         22    1    3    3    0    0  0.21052886489E+01 -0.19493348105E+02 -0.45472095739E+02  0.49519030196E+02  0.00000000000E+00 0. -1.
</event>
<event>
 7    1  0.6888431E-006  0.1090550E+03  0.7818608E-02  0.1320683E+00
          2   -1    0    0  502    0  0.00000000000E+00  0.00000000000E+00  0.42122709992E+03  0.42122709992E+03  0.00000000000E+00 0. -1.
          1   -1    0    0  501    0 -0.00000000000E+00 -0.00000000000E+00 -0.52565639433E+03  0.52565639433E+03  0.00000000000E+00 0. -1.
         25    2    1    2    0    0  0.12004597511E+03  0.11043185923E+02 -0.98454039813E+01  0.17393607423E+03  0.12499535128E+03 0.  0.
          2    1    1    2  501    0 -0.21772354855E+02 -0.59337664618E+02 -0.42251575427E+03  0.42721722401E+03  0.00000000000E+00 0. -1.
          1    1    1    2  502    0 -0.98273620259E+02  0.48294478695E+02  0.32793186384E+03  0.34573019601E+03  0.00000000000E+00 0. -1.
         22    1    3    3    0    0  0.11534494283E+03 -0.18247627561E+02 -0.47439150079E+02  0.12604723206E+03  0.00000000000E+00 0. -1.
         22    1    3    3    0    0  0.47010322811E+01  0.29290813485E+02  0.37593746098E+02  0.47888842174E+02  0.00000000000E+00 0. -1.
</event>
<event>
 7    1  0.6888431E-006  0.8526306E+02  0.7818608E-02  0.1480968E+00
          2   -1    0    0  502    0  0.00000000000E+00  0.00000000000E+00  0.16043797934E+03  0.16043797934E+03  0.00000000000E+00 0. -1.
          1   -1    0    0  501    0 -0.00000000000E+00 -0.00000000000E+00 -0.23150022558E+03  0.23150022558E+03  0.00000000000E+00 0. -1.
         25    2    1    2    0    0 -0.35352349990E+01 -0.89326943244E+02 -0.69221096392E+02  0.16854736361E+03  0.12499941167E+03 0.  0.
          2    1    1    2  501    0  0.24599109455E+02  0.80971558803E+02 -0.95168347520E+02  0.12735196854E+03  0.00000000000E+00 0. -1.
          1    1    1    2  502    0 -0.21063874456E+02  0.83553844417E+01  0.93327197674E+02  0.96038872765E+02  0.00000000000E+00 0. -1.
         22    1    3    3    0    0 -0.23546089898E+02  0.23515653869E+02  0.24677330497E+01  0.33369058015E+02  0.00000000000E+00 0.  1.
         22    1    3    3    0    0  0.20010854899E+02 -0.11284259711E+03 -0.71688829442E+02  0.13517830560E+03  0.00000000000E+00 0.  1.
</event>
<event>
 7    1  0.6888431E-006  0.5032206E+02  0.7818608E-02  0.1459638E+00
          2   -1    0    0  502    0  0.00000000000E+00  0.00000000000E+00  0.15983579195E+04  0.15983579195E+04  0.00000000000E+00 0. -1.
          1   -1    0    0  501    0 -0.00000000000E+00 -0.00000000000E+00 -0.21334959103E+03  0.21334959103E+03  0.00000000000E+00 0. -1.
         25    2    1    2    0    0 -0.87868867853E+02 -0.30539578521E+02  0.38425942563E+03  0.41464838878E+03  0.12499750533E+03 0.  0.
          2    1    1    2  501    0  0.43726563936E+02  0.94214903374E+01 -0.19512409339E+03  0.20018538582E+03  0.00000000000E+00 0. -1.
          1    1    1    2  502    0  0.44142303918E+02  0.21118088184E+02  0.11958729963E+04  0.11968737360E+04  0.00000000000E+00 0. -1.
         22    1    3    3    0    0 -0.95405887742E+02 -0.51597891619E+02  0.37512044986E+03  0.39048684708E+03  0.00000000000E+00 0.  1.
         22    1    3    3    0    0  0.75370198890E+01  0.21058313097E+02  0.91389757660E+01  0.24161541701E+02  0.00000000000E+00 0.  1.
</event>
<event>
 7    1  0.6888431E-006  0.2444671E+03  0.7818608E-02  0.1240698E+00
          2   -1    0    0  502    0  0.00000000000E+00  0.00000000000E+00  0.51598248319E+03  0.51598248319E+03  0.00000000000E+00 0. -1.
          1   -1    0    0  501    0 -0.00000000000E+00 -0.00000000000E+00 -0.13654897226E+04  0.13654897226E+04  0.00000000000E+00 0. -1.
         25    2    1    2    0    0  0.12642973817E+03  0.18692011077E+03  0.15704877600E+03  0.30201507438E+03  0.12500072241E+03 0.  0.
          2    1    1    2  501    0 -0.84828097552E+02 -0.23064259133E+03 -0.12779856262E+04  0.13013988904E+04  0.00000000000E+00 0. -1.
          1    1    1    2  502    0 -0.41601640618E+02  0.43722480560E+02  0.27142961078E+03  0.27805824105E+03  0.00000000000E+00 0. -1.
         22    1    3    3    0    0 -0.18443757163E+01 -0.12926455229E+02  0.29943248121E+02  0.32666390597E+02  0.00000000000E+00 0.  1.
         22    1    3    3    0    0  0.12827411389E+03  0.19984656600E+03  0.12710552788E+03  0.26934868378E+03  0.00000000000E+00 0.  1.
</event>
<event>
 7    1  0.6888431E-006  0.2311522E+03  0.7818608E-02  0.1278860E+00
          2   -1    0    0  502    0  0.00000000000E+00  0.00000000000E+00  0.18403100740E+04  0.18403100740E+04  0.00000000000E+00 0. -1.
          1   -1    0    0  501    0 -0.00000000000E+00 -0.00000000000E+00 -0.81345088289E+03  0.81345088289E+03  0.00000000000E+00 0. -1.
         25    2    1    2    0    0 -0.21207799720E+03  0.26795461073E+02 -0.14799463864E+02  0.24807059051E+03  0.12499968045E+03 0.  0.
          2    1    1    2  501    0 -0.96412376586E+01  0.42784305713E+02 -0.67346714254E+03  0.67489365263E+03  0.00000000000E+00 0. -1.
          1    1    1    2  502    0  0.22171923486E+03 -0.69579766786E+02  0.17151257975E+04  0.17307967137E+04  0.00000000000E+00 0. -1.
         22    1    3    3    0    0 -0.21021686061E+03  0.46442825044E+02  0.11025451160E+02  0.21556814481E+03  0.00000000000E+00 0. -1.
         22    1    3    3    0    0 -0.18611365942E+01 -0.19647363972E+02 -0.25824915024E+02  0.32502445699E+02  0.00000000000E+00 0. -1.
</event>
<event>
 7    1  0.6888431E-006  0.3311586E+02  0.7818608E-02  0.1616717E+00
          2   -1    0    0  502    0  0.00000000000E+00  0.00000000000E+00  0.17852682615E+04  0.17852682615E+04  0.00000000000E+00 0. -1.
          1   -1    0    0  501    0 -0.00000000000E+00 -0.00000000000E+00 -0.20548901792E+03  0.20548901792E+03  0.00000000000E+00 0. -1.
         25    2    1    2    0    0  0.21669479883E+02  0.67067964805E+01  0.73921417879E+03  0.75004384938E+03  0.12495449732E+03 0.  0.
          2    1    1    2  501    0 -0.28707413216E+02  0.16574320670E+02 -0.19855788672E+03  0.20130588182E+03  0.00000000000E+00 0. -1.
          1    1    1    2  502    0  0.70379333337E+01 -0.23281117151E+02  0.10391229515E+04  0.10394075482E+04  0.00000000000E+00 0. -1.
         22    1    3    3    0    0  0.51674100724E+02  0.49439693071E+02  0.34080969783E+03  0.34823231623E+03  0.00000000000E+00 0. -1.
         22    1    3    3    0    0 -0.30004620841E+02 -0.42732896590E+02  0.39840448096E+03  0.40181153315E+03  0.00000000000E+00 0. -1.
</event>
<event>
 7    1  0.6888431E-006  0.2229381E+02  0.7818608E-02  0.1704996E+00
          2   -1    0    0  502    0  0.00000000000E+00  0.00000000000E+00  0.50362696110E+03  0.50362696110E+03  0.00000000000E+00 0. -1.
          1   -1    0    0  501    0 -0.00000000000E+00 -0.00000000000E+00 -0.21654177572E+02  0.21654177572E+02  0.00000000000E+00 0. -1.
         25    2    1    2    0    0  0.63793293050E+01 -0.21037775865E+02  0.29036870530E+03  0.31689527845E+03  0.12500139451E+03 0.  0.
          2    1    1    2  501    0  0.15666829480E+02  0.15860777028E+02  0.84568955738E+01  0.23843927458E+02  0.00000000000E+00 0. -1.
          1    1    1    2  502    0 -0.22046158785E+02  0.51769988371E+01  0.18314718266E+03  0.18454193277E+03  0.00000000000E+00 0. -1.
         22    1    3    3    0    0  0.10675400777E+01 -0.27444884577E+02  0.10799841928E+01  0.27486864083E+02  0.00000000000E+00 0. -1.
         22    1    3    3    0    0  0.53117892273E+01  0.64071087118E+01  0.28928872110E+03  0.28940841436E+03  0.00000000000E+00 0. -1.
</event>
<event>
 7    1  0.6888431E-006  0.3186876E+02  0.7818608E-02  0.1597007E+00
          2   -1    0    0  502    0  0.00000000000E+00  0.00000000000E+00  0.15968813481E+03  0.15968813481E+03  0.00000000000E+00 0. -1.
          1   -1    0    0  501    0 -0.00000000000E+00 -0.00000000000E+00 -0.13431849934E+04  0.13431849934E+04  0.00000000000E+00 0. -1.
         25    2    1    2    0    0 -0.22930977877E+02  0.33138462133E+02  0.20382943932E+02  0.13290867089E+03  0.12500105190E+03 0.  0.
          2    1    1    2  501    0  0.31311538260E+02 -0.59762098452E+01 -0.12842859933E+04  0.12846815326E+04  0.00000000000E+00 0. -1.
          1    1    1    2  502    0 -0.83805603832E+01 -0.27162252288E+02  0.80406190771E+02  0.85282924762E+02  0.00000000000E+00 0. -1.
         22    1    3    3    0    0 -0.35443123820E+02  0.13254856836E+01  0.66580560585E+02  0.75438338968E+02  0.00000000000E+00 0.  1.
         22    1    3    3    0    0  0.12512145943E+02  0.31812976449E+02 -0.46197616653E+02  0.57470331921E+02  0.00000000000E+00 0.  1.
</event>
<event>
 7    1  0.6888431E-006  0.8531756E+02  0.7818608E-02  0.1486054E+00
          2   -1    0    0  502    0  0.00000000000E+00  0.00000000000E+00  0.17827254008E+03  0.17827254008E+03  0.00000000000E+00 0. -1.
          1   -1    0    0  501    0 -0.00000000000E+00 -0.00000000000E+00 -0.57467345014E+03  0.57467345014E+03  0.00000000000E+00 0. -1.
         25    2    1    2    0    0 -0.31892444339E+02  0.71531482256E+02 -0.32334517402E+01  0.14754217881E+03  0.12499743340E+03 0.  0.
          2    1    1    2  501    0  0.14368857188E+02 -0.84584356515E+02 -0.49442586968E+03  0.50181462517E+03  0.00000000000E+00 0. -1.
          1    1    1    2  502    0  0.17523587152E+02  0.13052874259E+02  0.10125841136E+03  0.10358918623E+03  0.00000000000E+00 0. -1.
         22    1    3    3    0    0 -0.31948196605E+02 -0.19527570206E+02 -0.34848406676E+02  0.51150999133E+02  0.00000000000E+00 0.  1.
         22    1    3    3    0    0  0.55752265564E-01  0.91059052462E+02  0.31614954935E+02  0.96391179675E+02  0.00000000000E+00 0.  1.
</event>
<event>
 7    1  0.6888431E-006  0.2161316E+03  0.7818608E-02  0.1257136E+00
          2   -1    0    0  502    0  0.00000000000E+00  0.00000000000E+00  0.65503923024E+03  0.65503923024E+03  0.00000000000E+00 0. -1.
          1   -1    0    0  501    0 -0.00000000000E+00 -0.00000000000E+00 -0.33461840182E+03  0.33461840182E+03  0.00000000000E+00 0. -1.
         25    2    1    2    0    0 -0.76328236649E+02 -0.23252616623E+03  0.69799288964E+02  0.28353422616E+03  0.12500119589E+03 0.  0.
          2    1    1    2  501    0  0.10400213890E+03  0.18165711865E+03 -0.17728903231E+03  0.27431214817E+03  0.00000000000E+00 0. -1.
          1    1    1    2  502    0 -0.27673902254E+02  0.50869047580E+02  0.42791057177E+03  0.43181125773E+03  0.00000000000E+00 0. -1.
         22    1    3    3    0    0 -0.58051504914E+01 -0.12451153766E+03 -0.20159019018E+02  0.12626642004E+03  0.00000000000E+00 0.  1.
         22    1    3    3    0    0 -0.70523086157E+02 -0.10801462857E+03  0.89958307982E+02  0.15726780612E+03  0.00000000000E+00 0.  1.
</event>
<event>
 7    1  0.6888431E-006  0.2040555E+03  0.7818608E-02  0.1186439E+00
          2   -1    0    0  502    0  0.00000000000E+00  0.00000000000E+00  0.76180094143E+03  0.76180094143E+03  0.00000000000E+00 0. -1.
          1   -1    0    0  501    0 -0.00000000000E+00 -0.00000000000E+00 -0.32893545688E+03  0.32893545688E+03  0.00000000000E+00 0. -1.
         25    2    1    2    0    0  0.17660630873E+03  0.10694793279E+03  0.28003072315E+02  0.24297685978E+03  0.12500373482E+03 0.  0.
          2    1    1    2  501    0  0.32069486433E+02 -0.12457625250E+03 -0.18301169079E+03  0.22369839877E+03  0.00000000000E+00 0. -1.
          1    1    1    2  502    0 -0.20867579516E+03  0.17628319716E+02  0.58787410303E+03  0.62406113976E+03  0.00000000000E+00 0. -1.
         22    1    3    3    0    0  0.12340095936E+03  0.19279495249E+01  0.19435529545E+02  0.12493699840E+03  0.00000000000E+00 0. -1.
         22    1    3    3    0    0  0.53205349372E+02  0.10501998326E+03  0.85675427704E+01  0.11803986138E+03  0.00000000000E+00 0. -1.
</event>
<event>
 7    1  0.6888431E-006  0.2753106E+02  0.7818608E-02  0.1656532E+00
          2   -1    0    0  502    0  0.00000000000E+00  0.00000000000E+00  0.91075325492E+03  0.91075325492E+03  0.00000000000E+00 0. -1.
          1   -1    0    0  501    0 -0.00000000000E+00 -0.00000000000E+00 -0.17178864308E+04  0.17178864308E+04  0.00000000000E+00 0. -1.
         25    2    1    2    0    0 -0.72342555393E+00  0.17585621414E+02 -0.93563639196E+03  0.94411330781E+03  0.12499881037E+03 0.  0.
          2    1    1    2  501    0 -0.22995393196E+02 -0.36000111518E+01 -0.77762832104E+03  0.77797657669E+03  0.00000000000E+00 0. -1.
          1    1    1    2  502    0  0.23718818750E+02 -0.13985610263E+02  0.90613153709E+03  0.90654980126E+03  0.00000000000E+00 0. -1.
         22    1    3    3    0    0 -0.46692137387E+02  0.17428733305E+02 -0.17148726397E+03  0.17858274873E+03  0.00000000000E+00 0.  1.
         22    1    3    3    0    0  0.45968711833E+02  0.15688810920E+00 -0.76414912799E+03  0.76553055908E+03  0.00000000000E+00 0.  1.
</event>
<event>
 7    1  0.6888431E-006  0.9491676E+02  0.7818608E-02  0.1476674E+00
          2   -1    0    0  502    0  0.00000000000E+00  0.00000000000E+00  0.85083536345E+03  0.85083536345E+03  0.00000000000E+00 0. -1.
          1   -1    0    0  501    0 -0.00000000000E+00 -0.00000000000E+00 -0.32221999883E+03  0.32221999883E+03  0.00000000000E+00 0. -1.
         25    2    1    2    0    0 -0.40484300581E+02  0.66129507276E+02  0.22373127003E+03  0.26775506054E+03  0.12500000373E+03 0.  0.
          2    1    1    2  501    0 -0.65127128211E+01  0.19947387542E+02 -0.29586031192E+03  0.29660350279E+03  0.00000000000E+00 0. -1.
          1    1    1    2  502    0  0.46997013402E+02 -0.86076894818E+02  0.60074440652E+03  0.60869679895E+03  0.00000000000E+00 0. -1.
         22    1    3    3    0    0 -0.72920063758E+02  0.82904430325E+02  0.17353166859E+03  0.20567868210E+03  0.00000000000E+00 0.  1.
         22    1    3    3    0    0  0.32435763177E+02 -0.16774923049E+02  0.50199601439E+02  0.62076378445E+02  0.00000000000E+00 0.  1.
</event>
<event>
 7    1  0.6888431E-006  0.3030269E+03  0.7818608E-02  0.1288348E+00
          2   -1    0    0  502    0  0.00000000000E+00  0.00000000000E+00  0.19741683989E+04  0.19741683989E+04  0.00000000000E+00 0. -1.
          1   -1    0    0  501    0 -0.00000000000E+00 -0.00000000000E+00 -0.23348707060E+04  0.23348707060E+04  0.00000000000E+00 0. -1.
         25    2    1    2    0    0  0.27237857699E+03 -0.18766720151E+02 -0.69082540441E+03  0.75326318130E+03  0.12499360760E+03 0.  0.
          2    1    1    2  501    0  0.30246418918E+02 -0.45207002702E+01 -0.16008258206E+04  0.16011179189E+04  0.00000000000E+00 0. -1.
          1    1    1    2  502    0 -0.30262499590E+03  0.23287420421E+02  0.19309489179E+04  0.19546580047E+04  0.00000000000E+00 0. -1.
         22    1    3    3    0    0  0.20809504175E+03 -0.79906720770E+00 -0.62807337527E+03  0.66164971823E+03  0.00000000000E+00 0. -1.
         22    1    3    3    0    0  0.64283535238E+02 -0.17967652943E+02 -0.62752029138E+02  0.91613463071E+02  0.00000000000E+00 0. -1.
</event>
<event>
 7    1  0.6888431E-006  0.6461605E+02  0.7818608E-02  0.1418393E+00
          2   -1    0    0  502    0  0.00000000000E+00  0.00000000000E+00  0.35511264153E+03  0.35511264153E+03  0.00000000000E+00 0. -1.
          1   -1    0    0  501    0 -0.00000000000E+00 -0.00000000000E+00 -0.43061888582E+03  0.43061888582E+03  0.00000000000E+00 0. -1.
         25    2    1    2    0    0 -0.59285799084E+02  0.78507602455E+02 -0.13927140964E+03  0.21142291917E+03  0.12499950236E+03 0.  0.
          2    1    1    2  501    0  0.32340672900E+01 -0.47323503091E+02 -0.24979315737E+03  0.25425694603E+03  0.00000000000E+00 0. -1.
          1    1    1    2  502    0  0.56051731794E+02 -0.31184099364E+02  0.31355832273E+03  0.32005166214E+03  0.00000000000E+00 0. -1.
         22    1    3    3    0    0 -0.46766769573E+02  0.10365384996E+03 -0.14341619739E+03  0.18302856887E+03  0.00000000000E+00 0.  1.
         22    1    3    3    0    0 -0.12519029510E+02 -0.25146247507E+02  0.41447877473E+01  0.28394350302E+02  0.00000000000E+00 0.  1.
</event>
<event>
 7    1  0.6888431E-006  0.8837429E+02  0.7818608E-02  0.1353895E+00
          2   -1    0    0  502    0  0.00000000000E+00  0.00000000000E+00  0.27419743793E+04  0.27419743793E+04  0.00000000000E+00 0. -1.
          1   -1    0    0  501    0 -0.00000000000E+00 -0.00000000000E+00 -0.39953944605E+03  0.39953944605E+03  0.00000000000E+00 0. -1.
         25    2    1    2    0    0  0.12631834654E+03 -0.22935424307E+02  0.15864772990E+04  0.15965645120E+04  0.12500264957E+03 0.  0.
          2    1    1    2  501    0 -0.73776464738E+02  0.48483659304E+02 -0.38880256619E+03  0.39869921926E+03  0.00000000000E+00 0. -1.
          1    1    1    2  502    0 -0.52541881805E+02 -0.25548234996E+02  0.11447602004E+04  0.11462500941E+04  0.00000000000E+00 0. -1.
         22    1    3    3    0    0 -0.24888066213E+02 -0.18777307976E+01  0.15903512188E+03  0.16098171233E+03  0.00000000000E+00 0.  1.
         22    1    3    3    0    0  0.15120641276E+03 -0.21057693510E+02  0.14274421771E+04  0.14355827997E+04  0.00000000000E+00 0.  1.
</event>
<event>
 7    1  0.6888431E-006  0.3383279E+02  0.7818608E-02  0.1584852E+00
          2   -1    0    0  502    0  0.00000000000E+00  0.00000000000E+00  0.48025291352E+02  0.48025291352E+02  0.00000000000E+00 0. -1.
          1   -1    0    0  501    0 -0.00000000000E+00 -0.00000000000E+00 -0.13459858993E+04  0.13459858993E+04  0.00000000000E+00 0. -1.
         25    2    1    2    0    0  0.12134085080E+02 -0.59812104972E+01 -0.26863411911E+03  0.29660809389E+03  0.12501624101E+03 0.  0.
          2    1    1    2  501    0  0.18540655093E+02  0.22079912645E+02 -0.10543019894E+04  0.10546961474E+04  0.00000000000E+00 0. -1.
          1    1    1    2  502    0 -0.30674740173E+02 -0.16098702147E+02  0.24975500573E+02  0.42706949369E+02  0.00000000000E+00 0. -1.
         22    1    3    3    0    0  0.27853430856E+02  0.48271732482E+02 -0.66678486520E+02  0.86902211318E+02  0.00000000000E+00 0. -1.
         22    1    3    3    0    0 -0.15719345776E+02 -0.54252942980E+02 -0.20195563259E+03  0.20970588258E+03  0.00000000000E+00 0. -1.
</event>
<event>
 7    1  0.6888431E-006  0.4764424E+02  0.7818608E-02  0.1458545E+00
          2   -1    0    0  502    0  0.00000000000E+00  0.00000000000E+00  0.70812917437E+03  0.70812917437E+03  0.00000000000E+00 0. -1.
          1   -1    0    0  501    0 -0.00000000000E+00 -0.00000000000E+00 -0.41393414917E+03  0.41393414917E+03  0.00000000000E+00 0. -1.
         25    2    1    2    0    0 -0.97884569252E+01 -0.35944886064E+01 -0.79912283546E+02  0.14871856615E+03  0.12499001807E+03 0.  0.
          2    1    1    2  501    0  0.19878096105E+02 -0.43299364453E+02 -0.29686305837E+03  0.30066201804E+03  0.00000000000E+00 0. -1.
          1    1    1    2  502    0 -0.10089639180E+02  0.46893853059E+02  0.67097036712E+03  0.67268273935E+03  0.00000000000E+00 0. -1.
         22    1    3    3    0    0 -0.44180531271E+02  0.19081826299E+02  0.10594517363E+02  0.49277573362E+02  0.00000000000E+00 0. -1.
         22    1    3    3    0    0  0.34392074346E+02 -0.22676314905E+02 -0.90506800909E+02  0.99440992786E+02  0.00000000000E+00 0. -1.
</event>
<event>
 7    1  0.6888431E-006  0.1192493E+03  0.7818608E-02  0.1398529E+00
          2   -1    0    0  502    0  0.00000000000E+00  0.00000000000E+00  0.62281948723E+03  0.62281948723E+03  0.00000000000E+00 0. -1.
          1   -1    0    0  501    0 -0.00000000000E+00 -0.00000000000E+00 -0.84365710514E+03  0.84365710514E+03  0.00000000000E+00 0. -1.
         25    2    1    2    0    0 -0.91627714281E+02  0.26527999376E+02  0.14059385934E+03  0.21095861342E+03  0.12505011201E+03 0.  0.
          2    1    1    2  501    0  0.10824273437E+03 -0.51533443590E+02 -0.80351858340E+03  0.81241264097E+03  0.00000000000E+00 0. -1.
          1    1    1    2  502    0 -0.16615020085E+02  0.25005444214E+02  0.44208710613E+03  0.44310533798E+03  0.00000000000E+00 0. -1.
         22    1    3    3    0    0 -0.34830745878E+02 -0.40367782670E+02  0.10987272309E+02  0.54437660575E+02  0.00000000000E+00 0. -1.
         22    1    3    3    0    0 -0.56796968403E+02  0.66895782046E+02  0.12960658704E+03  0.15652095284E+03  0.00000000000E+00 0. -1.
</event>
<event>
 7    1  0.8967128E-006  0.7255941E+02  0.7818608E-02  0.1434729E+00
          2   -1    0    0  502    0  0.00000000000E+00  0.00000000000E+00  0.84358295579E+03  0.84358295579E+03  0.00000000000E+00 0. -1.
          1   -1    0    0  501    0 -0.00000000000E+00 -0.00000000000E+00 -0.14314620763E+04  0.14314620763E+04  0.00000000000E+00 0. -1.
         25    2    1    2    0    0 -0.10259229614E+03  0.22258009961E+02 -0.38182316696E+03  0.41525046243E+03  0.12499366978E+03 0.  0.
          2    1    1    2  501    0  0.36539749862E+02  0.74829627519E+01 -0.10310008493E+04  0.10316752877E+04  0.00000000000E+00 0. -1.
          1    1    1    2  502    0  0.66052546278E+02 -0.29740972713E+02  0.82494489568E+03  0.82811928201E+03  0.00000000000E+00 0. -1.
         22    1    3    3    0    0 -0.42355050031E+02 -0.25155184121E+02 -0.35952072613E+02  0.60985941630E+02  0.00000000000E+00 0.  1.
         22    1    3    3    0    0 -0.60237246110E+02  0.47413194083E+02 -0.34587109435E+03  0.35426452080E+03  0.00000000000E+00 0.  1.
</event>
<event>
 7    1  0.6888431E-006  0.7883713E+02  0.7818608E-02  0.1375520E+00
          2   -1    0    0  502    0  0.00000000000E+00  0.00000000000E+00  0.31838699861E+03  0.31838699861E+03  0.00000000000E+00 0. -1.
          1   -1    0    0  501    0 -0.00000000000E+00 -0.00000000000E+00 -0.18558046380E+03  0.18558046380E+03  0.00000000000E+00 0. -1.
         25    2    1    2    0    0 -0.87271089434E+02  0.35818326713E+02  0.17411400590E+02  0.15756774725E+03  0.12500097009E+03 0.  0.
          2    1    1    2  501    0  0.45146209702E+02  0.30848000829E+02 -0.10167697220E+03  0.11544689724E+03  0.00000000000E+00 0. -1.
          1    1    1    2  502    0  0.42124879732E+02 -0.66666327543E+02  0.21707210642E+03  0.23095281792E+03  0.00000000000E+00 0. -1.
         22    1    3    3    0    0  0.14810904711E+02 -0.23593906111E+02  0.27348375179E+02  0.39038044634E+02  0.00000000000E+00 0.  1.
         22    1    3    3    0    0 -0.10208199415E+03  0.59412232824E+02 -0.99369745897E+01  0.11852970261E+03  0.00000000000E+00 0.  1.
</event>
<event>
 7    1  0.6888431E-006  0.1266169E+03  0.7818608E-02  0.1277880E+00
          2   -1    0    0  502    0  0.00000000000E+00  0.00000000000E+00  0.45445423625E+03  0.45445423625E+03  0.00000000000E+00 0. -1.
          1   -1    0    0  501    0 -0.00000000000E+00 -0.00000000000E+00 -0.17846195674E+04  0.17846195674E+04  0.00000000000E+00 0. -1.
         25    2    1    2    0    0 -0.46294633533E+02 -0.10535083794E+03 -0.41309690740E+03  0.44666320156E+03  0.12496787017E+03 0.  0.
          2    1    1    2  501    0 -0.30938473320E+02  0.12915342902E+03 -0.13477167578E+04  0.13542445335E+04  0.00000000000E+00 0. -1.
          1    1    1    2  502    0  0.77233106852E+02 -0.23802591082E+02  0.43064833398E+03  0.43816606863E+03  0.00000000000E+00 0. -1.
         22    1    3    3    0    0 -0.60797489361E+02 -0.36671897877E+01 -0.21580700265E+03  0.22423747543E+03  0.00000000000E+00 0.  1.
         22    1    3    3    0    0  0.14502855829E+02 -0.10168364815E+03 -0.19728990475E+03  0.22242572613E+03  0.00000000000E+00 0.  1.
</event>
<event>
 7    1  0.6888431E-006  0.6656854E+02  0.7818608E-02  0.1408380E+00
          2   -1    0    0  502    0  0.00000000000E+00  0.00000000000E+00  0.18703070868E+04  0.18703070868E+04  0.00000000000E+00 0. -1.
          1   -1    0    0  501    0 -0.00000000000E+00 -0.00000000000E+00 -0.23605505424E+03  0.23605505424E+03  0.00000000000E+00 0. -1.
         25    2    1    2    0    0  0.15744263294E+02  0.51549955088E+02  0.46529076271E+03  0.48479978066E+03  0.12502021342E+03 0.  0.
          2    1    1    2  501    0 -0.60187856979E+02 -0.29158919107E+02 -0.22090423241E+03  0.23080619703E+03  0.00000000000E+00 0. -1.
          1    1    1    2  502    0  0.44443593685E+02 -0.22391035981E+02  0.13898655022E+04  0.13907561633E+04  0.00000000000E+00 0. -1.
         22    1    3    3    0    0 -0.44504471118E+02  0.59798859321E+02  0.23000749378E+03  0.24178502584E+03  0.00000000000E+00 0.  1.
         22    1    3    3    0    0  0.60248734412E+02 -0.82489042333E+01  0.23528326893E+03  0.24301475482E+03  0.00000000000E+00 0.  1.
</event>
<event>
 7    1  0.6888431E-006  0.9928175E+02  0.7818608E-02  0.1330655E+00
          2   -1    0    0  502    0  0.00000000000E+00  0.00000000000E+00  0.10442834802E+04  0.10442834802E+04  0.00000000000E+00 0. -1.
          1   -1    0    0  501    0 -0.00000000000E+00 -0.00000000000E+00 -0.62760388154E+03  0.62760388154E+03  0.00000000000E+00 0. -1.
         25    2    1    2    0    0  0.34832733483E+02  0.15221629075E+02  0.88455082755E+02  0.15777789597E+03  0.12499818190E+03 0.  0.
          2    1    1    2  501    0 -0.90161716813E+02 -0.46503138680E+02 -0.58749357135E+03  0.59618820305E+03  0.00000000000E+00 0. -1.
          1    1    1    2  502    0  0.55328983330E+02  0.31281509605E+02  0.91571808725E+03  0.91792126272E+03  0.00000000000E+00 0. -1.
         22    1    3    3    0    0 -0.37718402399E+02 -0.18247593948E+02  0.49273445280E+01  0.42189231903E+02  0.00000000000E+00 0.  1.
         22    1    3    3    0    0  0.72551135882E+02  0.33469223023E+02  0.83527738227E+02  0.11558866407E+03  0.00000000000E+00 0.  1.
</event>
<event>
 7    1  0.6888431E-006  0.1007991E+03  0.7818608E-02  0.1320210E+00
          2   -1    0    0  502    0  0.00000000000E+00  0.00000000000E+00  0.40083734616E+03  0.40083734616E+03  0.00000000000E+00 0. -1.
          1   -1    0    0  501    0 -0.00000000000E+00 -0.00000000000E+00 -0.77215550166E+03  0.77215550166E+03  0.00000000000E+00 0. -1.
         25    2    1    2    0    0  0.19012204007E+02  0.70094874305E+02 -0.39976209536E+03  0.42509941783E+03  0.12500010739E+03 0.  0.
          2    1    1    2  501    0 -0.65657493861E+02  0.20124054464E+02 -0.34968392459E+03  0.35636320122E+03  0.00000000000E+00 0. -1.
          1    1    1    2  502    0  0.46645289854E+02 -0.90218928769E+02  0.37812786445E+03  0.39153022878E+03  0.00000000000E+00 0. -1.
         22    1    3    3    0    0 -0.38627955922E+02  0.76612103616E+02 -0.21673389238E+03  0.23309893502E+03  0.00000000000E+00 0.  1.
         22    1    3    3    0    0  0.57640159929E+02 -0.65172293109E+01 -0.18302820298E+03  0.19200048281E+03  0.00000000000E+00 0.  1.
</event>
<event>
 7    1  0.6888431E-006  0.3878412E+02  0.7818608E-02  0.1558362E+00
          2   -1    0    0  502    0  0.00000000000E+00  0.00000000000E+00  0.65616308546E+03  0.65616308546E+03  0.00000000000E+00 0. -1.
          1   -1    0    0  501    0 -0.00000000000E+00 -0.00000000000E+00 -0.65846455241E+03  0.65846455241E+03  0.00000000000E+00 0. -1.
         25    2    1    2    0    0 -0.17499208995E+02 -0.41936441237E+01  0.46369002064E+02  0.13452620481E+03  0.12499362568E+03 0.  0.
          2    1    1    2  501    0  0.32590946122E+02 -0.21356113829E+02 -0.61337820897E+03  0.61461457890E+03  0.00000000000E+00 0. -1.
          1    1    1    2  502    0 -0.15091737127E+02  0.25549757952E+02  0.56470773996E+03  0.56548685416E+03  0.00000000000E+00 0. -1.
         22    1    3    3    0    0  0.33560473197E+02 -0.36719037361E+02 -0.11193600219E+02  0.50989114052E+02  0.00000000000E+00 0.  1.
         22    1    3    3    0    0 -0.51059682191E+02  0.32525393238E+02  0.57562602283E+02  0.83537090758E+02  0.00000000000E+00 0.  1.
</event>
<event>
 7    1  0.7080424E-006  0.9057644E+02  0.7818608E-02  0.1404324E+00
          2   -1    0    0  502    0  0.00000000000E+00  0.00000000000E+00  0.17708454664E+04  0.17708454664E+04  0.00000000000E+00 0. -1.
          1   -1    0    0  501    0 -0.00000000000E+00 -0.00000000000E+00 -0.11386577382E+04  0.11386577382E+04  0.00000000000E+00 0. -1.
         25    2    1    2    0    0  0.66655319890E+02 -0.10510539495E+03 -0.10313299349E+03  0.20433572379E+03  0.12500639165E+03 0.  0.
          2    1    1    2  501    0 -0.72623900410E+01  0.37051904606E+02 -0.98337513808E+03  0.98409971453E+03  0.00000000000E+00 0. -1.
          1    1    1    2  502    0 -0.59392929849E+02  0.68053490345E+02  0.17186958598E+04  0.17210677662E+04  0.00000000000E+00 0. -1.
         22    1    3    3    0    0  0.12302200859E+01  0.22907504261E+02  0.61515320715E+01  0.23750969238E+02  0.00000000000E+00 0.  1.
         22    1    3    3    0    0  0.65425099804E+02 -0.12801289921E+03 -0.10928452556E+03  0.18058475455E+03  0.00000000000E+00 0.  1.
</event>
<event>
 7    1  0.6888431E-006  0.7804947E+02  0.7818608E-02  0.1491348E+00
          2   -1    0    0  502    0  0.00000000000E+00  0.00000000000E+00  0.98501764026E+02  0.98501764026E+02  0.00000000000E+00 0. -1.
          1   -1    0    0  501    0 -0.00000000000E+00 -0.00000000000E+00 -0.32834202976E+03  0.32834202976E+03  0.00000000000E+00 0. -1.
         25    2    1    2    0    0 -0.51834460772E+02  0.79180627380E+02 -0.13822181687E+03  0.20900914584E+03  0.12499267702E+03 0.  0.
          2    1    1    2  501    0  0.32731883378E+02 -0.66336431186E+02 -0.14329570550E+03  0.16126238714E+03  0.00000000000E+00 0. -1.
          1    1    1    2  502    0  0.19102577395E+02 -0.12844196194E+02  0.51677256640E+02  0.56572260807E+02  0.00000000000E+00 0. -1.
         22    1    3    3    0    0 -0.21328532254E+02  0.10084483141E+03 -0.13716612762E+03  0.17157835783E+03  0.00000000000E+00 0. -1.
         22    1    3    3    0    0 -0.30505928519E+02 -0.21664204028E+02 -0.10556892551E+01  0.37430788006E+02  0.00000000000E+00 0. -1.
</event>
<event>
 7    1  0.6888431E-006  0.6781098E+02  0.7818608E-02  0.1523363E+00
          2   -1    0    0  502    0  0.00000000000E+00  0.00000000000E+00  0.12374348669E+04  0.12374348669E+04  0.00000000000E+00 0. -1.
          1   -1    0    0  501    0 -0.00000000000E+00 -0.00000000000E+00 -0.70307940250E+03  0.70307940250E+03  0.00000000000E+00 0. -1.
         25    2    1    2    0    0  0.32551511092E+02 -0.50713873317E+02  0.26440052242E+03  0.29860415749E+03  0.12500123516E+03 0.  0.
          2    1    1    2  501    0 -0.17327646920E+02  0.65624242816E+02 -0.68417941661E+03  0.68753782638E+03  0.00000000000E+00 0. -1.
          1    1    1    2  502    0 -0.15223864171E+02 -0.14910369499E+02  0.95413435857E+03  0.95437228552E+03  0.00000000000E+00 0. -1.
         22    1    3    3    0    0 -0.43894558274E+02  0.38158144468E+01  0.69986069518E+02  0.82700318092E+02  0.00000000000E+00 0.  1.
         22    1    3    3    0    0  0.76446069366E+02 -0.54529687764E+02  0.19441445290E+03  0.21590383939E+03  0.00000000000E+00 0.  1.
</event>
<event>
 7    1  0.6888431E-006  0.1487703E+03  0.7818608E-02  0.1302235E+00
          2   -1    0    0  502    0  0.00000000000E+00  0.00000000000E+00  0.21620494805E+04  0.21620494805E+04  0.00000000000E+00 0. -1.
          1   -1    0    0  501    0 -0.00000000000E+00 -0.00000000000E+00 -0.12868733241E+03  0.12868733241E+03  0.00000000000E+00 0. -1.
         25    2    1    2    0    0  0.11031931955E+03 -0.47880144596E+02  0.70208602376E+02  0.18712840229E+03  0.12499972233E+03 0.  0.
          2    1    1    2  501    0 -0.16495182202E+03  0.51545304862E+02  0.37072877249E+02  0.17674959765E+03  0.00000000000E+00 0. -1.
          1    1    1    2  502    0  0.54632502474E+02 -0.36651602665E+01  0.19260806685E+04  0.19268588130E+04  0.00000000000E+00 0. -1.
         22    1    3    3    0    0  0.10374261228E+03  0.18283277057E+02  0.55355222665E+02  0.11900003571E+03  0.00000000000E+00 0. -1.
         22    1    3    3    0    0  0.65767072621E+01 -0.66163421653E+02  0.14853379711E+02  0.68128366574E+02  0.00000000000E+00 0. -1.
</event>
<event>
 7    1  0.6888431E-006  0.8408183E+02  0.7818608E-02  0.1328335E+00
          2   -1    0    0  502    0  0.00000000000E+00  0.00000000000E+00  0.19610022095E+03  0.19610022095E+03  0.00000000000E+00 0. -1.
          1   -1    0    0  501    0 -0.00000000000E+00 -0.00000000000E+00 -0.95572951464E+03  0.95572951464E+03  0.00000000000E+00 0. -1.
         25    2    1    2    0    0  0.55301832617E+02 -0.45897251077E+02 -0.54228260761E+03  0.56112315823E+03  0.12499568726E+03 0.  0.
          2    1    1    2  501    0 -0.89379958443E+02 -0.30969100126E+02 -0.38858830567E+03  0.39993591167E+03  0.00000000000E+00 0. -1.
          1    1    1    2  502    0  0.34078125825E+02  0.76866351203E+02  0.17124161960E+03  0.19077066570E+03  0.00000000000E+00 0. -1.
         22    1    3    3    0    0 -0.38872601790E+02 -0.12662889146E+00 -0.17064363803E+03  0.17501527478E+03  0.00000000000E+00 0. -1.
         22    1    3    3    0    0  0.94174434407E+02 -0.45770622186E+02 -0.37163896958E+03  0.38610788345E+03  0.00000000000E+00 0. -1.
</event>
<event>
 7    1  0.6888431E-006  0.7368742E+02  0.7818608E-02  0.1489327E+00
          2   -1    0    0  502    0  0.00000000000E+00  0.00000000000E+00  0.10456644496E+03  0.10456644496E+03  0.00000000000E+00 0. -1.
          1   -1    0    0  501    0 -0.00000000000E+00 -0.00000000000E+00 -0.13346235089E+04  0.13346235089E+04  0.00000000000E+00 0. -1.
         25    2    1    2    0    0 -0.44322493496E+01 -0.56219508729E+02 -0.29765124201E+03  0.32771979709E+03  0.12499490205E+03 0.  0.
          2    1    1    2  501    0  0.17742929694E+02 -0.17222909772E+02 -0.10062039006E+04  0.10065076899E+04  0.00000000000E+00 0. -1.
          1    1    1    2  502    0 -0.13310680345E+02  0.73442418501E+02  0.73798078665E+02  0.10496246692E+03  0.00000000000E+00 0. -1.
         22    1    3    3    0    0  0.13278150547E+02 -0.66843961892E+02 -0.65078371132E+02  0.94231729861E+02  0.00000000000E+00 0.  1.
         22    1    3    3    0    0 -0.17710399897E+02  0.10624453163E+02 -0.23257287088E+03  0.23348806723E+03  0.00000000000E+00 0.  1.
</event>
<event>
 7    1  0.6888431E-006  0.1106474E+03  0.7818608E-02  0.1393254E+00
          2   -1    0    0  502    0  0.00000000000E+00  0.00000000000E+00  0.17076514516E+04  0.17076514516E+04  0.00000000000E+00 0. -1.
          1   -1    0    0  501    0 -0.00000000000E+00 -0.00000000000E+00 -0.15139038521E+04  0.15139038521E+04  0.00000000000E+00 0. -1.
         25    2    1    2    0    0 -0.57243796572E+02  0.56862603019E+02  0.11713661693E+03  0.18935994465E+03  0.12500397491E+03 0.  0.
          2    1    1    2  501    0 -0.31531508388E+02  0.12020021398E+02 -0.14755683708E+04  0.14759541774E+04  0.00000000000E+00 0. -1.
          1    1    1    2  502    0  0.88775304960E+02 -0.68882624417E+02  0.15521793534E+04  0.15562411817E+04  0.00000000000E+00 0. -1.
         22    1    3    3    0    0 -0.74914710325E+02 -0.12045656543E+02  0.74954894903E+02  0.10665621376E+03  0.00000000000E+00 0. -1.
         22    1    3    3    0    0  0.17670913753E+02  0.68908259561E+02  0.42181722031E+02  0.82703730884E+02  0.00000000000E+00 0. -1.
</event>
<event>
 7    1  0.6888431E-006  0.7492109E+02  0.7818608E-02  0.1346050E+00
          2   -1    0    0  502    0  0.00000000000E+00  0.00000000000E+00  0.28861864241E+03  0.28861864241E+03  0.00000000000E+00 0. -1.
          1   -1    0    0  501    0 -0.00000000000E+00 -0.00000000000E+00 -0.24437471509E+04  0.24437471509E+04  0.00000000000E+00 0. -1.
         25    2    1    2    0    0 -0.11594477622E+03  0.46432185598E+02 -0.34669001805E+03  0.38912499353E+03  0.12500061193E+03 0.  0.
          2    1    1    2  501    0  0.43481256332E+02 -0.59797448390E+02 -0.20700908768E+04  0.20714107735E+04  0.00000000000E+00 0. -1.
          1    1    1    2  502    0  0.72463519888E+02  0.13365262792E+02  0.26165238628E+03  0.27183002632E+03  0.00000000000E+00 0. -1.
         22    1    3    3    0    0 -0.69179649168E+01  0.59683186602E+02 -0.75156661268E+02  0.96220916305E+02  0.00000000000E+00 0.  1.
         22    1    3    3    0    0 -0.10902681130E+03 -0.13251001005E+02 -0.27153335679E+03  0.29290407723E+03  0.00000000000E+00 0.  1.
</event>
<event>
 7    1  0.6888431E-006  0.1347338E+03  0.7818608E-02  0.1382809E+00
          2   -1    0    0  502    0  0.00000000000E+00  0.00000000000E+00  0.11092674758E+04  0.11092674758E+04  0.00000000000E+00 0. -1.
          1   -1    0    0  501    0 -0.00000000000E+00 -0.00000000000E+00 -0.34755529000E+03  0.34755529000E+03  0.00000000000E+00 0. -1.
         25    2    1    2    0    0  0.98473748528E+02 -0.12493588655E+03 -0.24094389230E+02  0.20376576910E+03  0.12503557161E+03 0.  0.
          2    1    1    2  501    0 -0.28003933793E+02  0.11160097033E+02 -0.22823744112E+03  0.23021967250E+03  0.00000000000E+00 0. -1.
          1    1    1    2  502    0 -0.70469814735E+02  0.11377578951E+03  0.10140440161E+04  0.10228373242E+04  0.00000000000E+00 0. -1.
         22    1    3    3    0    0 -0.32069783172E+00 -0.77594500266E+02 -0.48530866344E+02  0.91521878842E+02  0.00000000000E+00 0. -1.
         22    1    3    3    0    0  0.98794446360E+02 -0.47341386282E+02  0.24436477114E+02  0.11224389026E+03  0.00000000000E+00 0. -1.
</event>
<event>
 7    1  0.6888431E-006  0.9307110E+02  0.7818608E-02  0.1398228E+00
          2   -1    0    0  502    0  0.00000000000E+00  0.00000000000E+00  0.63224060296E+03  0.63224060296E+03  0.00000000000E+00 0. -1.
          1   -1    0    0  501    0 -0.00000000000E+00 -0.00000000000E+00 -0.87212866422E+03  0.87212866422E+03  0.00000000000E+00 0. -1.
         25    2    1    2    0    0  0.10140106237E+03  0.82334452382E+02  0.68379695598E+02  0.19329094636E+03  0.12499787868E+03 0.  0.
          2    1    1    2  501    0 -0.73965623392E+02 -0.55241064216E+02 -0.80629394611E+03  0.81156171432E+03  0.00000000000E+00 0. -1.
          1    1    1    2  502    0 -0.27435438974E+02 -0.27093388166E+02  0.49802618925E+03  0.49951660650E+03  0.00000000000E+00 0. -1.
         22    1    3    3    0    0  0.13095989846E+02  0.29473791626E+02 -0.34876764513E+02  0.47503663498E+02  0.00000000000E+00 0.  1.
         22    1    3    3    0    0  0.88305072520E+02  0.52860660756E+02  0.10325646011E+03  0.14578728286E+03  0.00000000000E+00 0.  1.
</event>
<event>
 7    1  0.6888431E-006  0.6395703E+02  0.7818608E-02  0.1404397E+00
          2   -1    0    0  502    0  0.00000000000E+00  0.00000000000E+00  0.62043731226E+03  0.62043731226E+03  0.00000000000E+00 0. -1.
          1   -1    0    0  501    0 -0.00000000000E+00 -0.00000000000E+00 -0.13539197711E+04  0.13539197711E+04  0.00000000000E+00 0. -1.
         25    2    1    2    0    0  0.10081876621E+03 -0.44047184330E+02 -0.12981862938E+03  0.21115377707E+03  0.12501385112E+03 0.  0.
          2    1    1    2  501    0 -0.47432784299E+02  0.41624685334E+02 -0.11813581064E+04  0.11830424586E+04  0.00000000000E+00 0. -1.
          1    1    1    2  502    0 -0.53385981911E+02  0.24224989954E+01  0.57769427691E+03  0.58016084765E+03  0.00000000000E+00 0. -1.
         22    1    3    3    0    0  0.78529532871E+02  0.21946214220E+02 -0.11325845425E+03  0.13955644489E+03  0.00000000000E+00 0.  1.
         22    1    3    3    0    0  0.22289233338E+02 -0.65993398550E+02 -0.16560175123E+02  0.71597332179E+02  0.00000000000E+00 0.  1.
</event>
<event>
 7    1  0.6888431E-006  0.3945674E+02  0.7818608E-02  0.1577878E+00
          2   -1    0    0  502    0  0.00000000000E+00  0.00000000000E+00  0.27655577408E+03  0.27655577408E+03  0.00000000000E+00 0. -1.
          1   -1    0    0  501    0 -0.00000000000E+00 -0.00000000000E+00 -0.55162379049E+03  0.55162379049E+03  0.00000000000E+00 0. -1.
         25    2    1    2    0    0 -0.30450105658E+02  0.54903784965E+02  0.13698945754E+03  0.19578647241E+03  0.12499838704E+03 0.  0.
          2    1    1    2  501    0  0.13062336637E+02 -0.22258470538E+02 -0.51879097544E+03  0.51943251760E+03  0.00000000000E+00 0. -1.
          1    1    1    2  502    0  0.17387769021E+02 -0.32645314427E+02  0.10673350149E+03  0.11296057456E+03  0.00000000000E+00 0. -1.
         22    1    3    3    0    0 -0.30489314849E+02  0.93805372271E+02  0.81125628438E+02  0.12771223033E+03  0.00000000000E+00 0. -1.
         22    1    3    3    0    0  0.39209191452E-01 -0.38901587306E+02  0.55863829099E+02  0.68074242073E+02  0.00000000000E+00 0. -1.
</event>
<event>
 7    1  0.6888431E-006  0.1121134E+03  0.7818608E-02  0.1361542E+00
          2   -1    0    0  502    0  0.00000000000E+00  0.00000000000E+00  0.59008736781E+03  0.59008736781E+03  0.00000000000E+00 0. -1.
          1   -1    0    0  501    0 -0.00000000000E+00 -0.00000000000E+00 -0.45739964250E+03  0.45739964250E+03  0.00000000000E+00 0. -1.
         25    2    1    2    0    0 -0.91854698925E+02 -0.64546728240E+02 -0.36970827992E+02  0.17202883105E+03  0.12499404285E+03 0.  0.
          2    1    1    2  501    0  0.11017352313E+03  0.25447944191E+02 -0.34291110308E+03  0.36107316112E+03  0.00000000000E+00 0. -1.
          1    1    1    2  502    0 -0.18318824206E+02  0.39098784048E+02  0.51256965639E+03  0.51438501814E+03  0.00000000000E+00 0. -1.
         22    1    3    3    0    0  0.39035258803E+01 -0.37290617664E+00  0.35599232182E+02  0.35814548794E+02  0.00000000000E+00 0. -1.
         22    1    3    3    0    0 -0.95758224805E+02 -0.64173822063E+02 -0.72570060175E+02  0.13621428225E+03  0.00000000000E+00 0. -1.
</event>
<event>
 7    1  0.6888431E-006  0.1895493E+03  0.7818608E-02  0.1244316E+00
          2   -1    0    0  502    0  0.00000000000E+00  0.00000000000E+00  0.49533600223E+03  0.49533600223E+03  0.00000000000E+00 0. -1.
          1   -1    0    0  501    0 -0.00000000000E+00 -0.00000000000E+00 -0.17801571289E+04  0.17801571289E+04  0.00000000000E+00 0. -1.
         25    2    1    2    0    0  0.46394003935E+01  0.11629093681E+03 -0.72861948167E+03  0.74836900239E+03  0.12499883461E+03 0.  0.
          2    1    1    2  501    0  0.30733253997E+01  0.74977775654E+02 -0.10213624466E+04  0.10241154034E+04  0.00000000000E+00 0. -1.
          1    1    1    2  502    0 -0.77127257932E+01 -0.19126871247E+03  0.46516080155E+03  0.50300872538E+03  0.00000000000E+00 0. -1.
         22    1    3    3    0    0 -0.26711491431E+02  0.13260341221E+03 -0.56315258453E+03  0.57917009779E+03  0.00000000000E+00 0. -1.
         22    1    3    3    0    0  0.31350891825E+02 -0.16312475399E+02 -0.16546689714E+03  0.16919890461E+03  0.00000000000E+00 0. -1.
</event>
<event>
 7    1  0.6888431E-006  0.4855182E+02  0.7818608E-02  0.1468158E+00
          2   -1    0    0  502    0  0.00000000000E+00  0.00000000000E+00  0.45250787083E+03  0.45250787083E+03  0.00000000000E+00 0. -1.
          1   -1    0    0  501    0 -0.00000000000E+00 -0.00000000000E+00 -0.14035229837E+04  0.14035229837E+04  0.00000000000E+00 0. -1.
         25    2    1    2    0    0  0.77439722984E+02  0.47085190473E+02  0.16484950157E+02  0.15527200961E+03  0.12499487001E+03 0.  0.
          2    1    1    2  501    0 -0.34304475727E+02 -0.26899913492E+02 -0.13322248364E+04  0.13329378895E+04  0.00000000000E+00 0. -1.
          1    1    1    2  502    0 -0.43135247257E+02 -0.20185276980E+02  0.36472477338E+03  0.36782095546E+03  0.00000000000E+00 0. -1.
         22    1    3    3    0    0  0.17728594643E+02  0.47046100468E+02 -0.46499381726E+02  0.68482341799E+02  0.00000000000E+00 0.  1.
         22    1    3    3    0    0  0.59711128341E+02  0.39090004491E-01  0.62984331884E+02  0.86789667810E+02  0.00000000000E+00 0.  1.
</event>
<event>
 7    1  0.6888431E-006  0.6669415E+02  0.7818608E-02  0.1402719E+00
          2   -1    0    0  502    0  0.00000000000E+00  0.00000000000E+00  0.19622847257E+04  0.19622847257E+04  0.00000000000E+00 0. -1.
          1   -1    0    0  501    0 -0.00000000000E+00 -0.00000000000E+00 -0.74638094926E+03  0.74638094926E+03  0.00000000000E+00 0. -1.
         25    2    1    2    0    0  0.10827760693E+03 -0.40678994085E+02  0.37312358046E+03  0.41015179871E+03  0.12499788385E+03 0.  0.
          2    1    1    2  501    0 -0.56681774136E+02  0.34800076902E+02 -0.72591683053E+03  0.72895755275E+03  0.00000000000E+00 0. -1.
          1    1    1    2  502    0 -0.51595832797E+02  0.58789171830E+01  0.15686970265E+04  0.15695563235E+04  0.00000000000E+00 0. -1.
         22    1    3    3    0    0  0.12758231868E+02  0.26873473430E+02  0.19359607273E+03  0.19586831146E+03  0.00000000000E+00 0. -1.
         22    1    3    3    0    0  0.95519375065E+02 -0.67552467514E+02  0.17952750773E+03  0.21428348726E+03  0.00000000000E+00 0. -1.
</event>
<event>
 7    1  0.6888431E-006  0.1500368E+03  0.7818608E-02  0.1383332E+00
          2   -1    0    0  502    0  0.00000000000E+00  0.00000000000E+00  0.90184946590E+03  0.90184946590E+03  0.00000000000E+00 0. -1.
          1   -1    0    0  501    0 -0.00000000000E+00 -0.00000000000E+00 -0.13143113036E+04  0.13143113036E+04  0.00000000000E+00 0. -1.
         25    2    1    2    0    0  0.14766450593E+03  0.46348464098E+02 -0.41146535747E+01  0.19898387681E+03  0.12499866568E+03 0.  0.
          2    1    1    2  501    0 -0.13308446692E+03 -0.69021500449E+02 -0.12079009214E+04  0.12171688785E+04  0.00000000000E+00 0. -1.
          1    1    1    2  502    0 -0.14580039006E+02  0.22673036351E+02  0.79955373723E+03  0.80000801423E+03  0.00000000000E+00 0. -1.
         22    1    3    3    0    0 -0.64051893336E+01  0.42312506480E+02 -0.12650269378E+02  0.44625149528E+02  0.00000000000E+00 0.  1.
         22    1    3    3    0    0  0.15406969526E+03  0.40359576178E+01  0.85356158030E+01  0.15435872728E+03  0.00000000000E+00 0.  1.
</event>
<event>
 7    1  0.6888431E-006  0.3667022E+02  0.7818608E-02  0.1603517E+00
          2   -1    0    0  502    0  0.00000000000E+00  0.00000000000E+00  0.48037126473E+03  0.48037126473E+03  0.00000000000E+00 0. -1.
          1   -1    0    0  501    0 -0.00000000000E+00 -0.00000000000E+00 -0.39732822409E+02  0.39732822409E+02  0.00000000000E+00 0. -1.
         25    2    1    2    0    0  0.15707530453E+02  0.43115082630E+02  0.21638892194E+03  0.25407503103E+03  0.12499727593E+03 0.  0.
          2    1    1    2  501    0 -0.28298235275E+02 -0.22970925632E+02 -0.38910398706E+01  0.36655064252E+02  0.00000000000E+00 0. -1.
          1    1    1    2  502    0  0.12590704821E+02 -0.20144156998E+02  0.22814056025E+03  0.22937399185E+03  0.00000000000E+00 0. -1.
         22    1    3    3    0    0  0.38235234551E+02  0.69523823035E+02  0.77496797057E+02  0.11091099443E+03  0.00000000000E+00 0.  1.
         22    1    3    3    0    0 -0.22527704097E+02 -0.26408740405E+02  0.13889212489E+03  0.14316403661E+03  0.00000000000E+00 0.  1.
</event>
<event>
 7    1  0.6888431E-006  0.7780717E+02  0.7818608E-02  0.1391552E+00
          2   -1    0    0  502    0  0.00000000000E+00  0.00000000000E+00  0.83436672716E+03  0.83436672716E+03  0.00000000000E+00 0. -1.
          1   -1    0    0  501    0 -0.00000000000E+00 -0.00000000000E+00 -0.49637186194E+02  0.49637186194E+02  0.00000000000E+00 0. -1.
         25    2    1    2    0    0 -0.50671693029E+02 -0.40092187878E+02  0.54659029232E+03  0.56441177939E+03  0.12499882020E+03 0.  0.
          2    1    1    2  501    0 -0.42923549464E+02  0.22890823469E+02 -0.13562888192E+02  0.50501216162E+02  0.00000000000E+00 0. -1.
          1    1    1    2  502    0  0.93595242493E+02  0.17201364410E+02  0.25170213683E+03  0.26909091779E+03  0.00000000000E+00 0. -1.
         22    1    3    3    0    0 -0.29917245730E+01 -0.56317180533E+02  0.98521070978E+02  0.11352082041E+03  0.00000000000E+00 0. -1.
         22    1    3    3    0    0 -0.47679968456E+02  0.16224992655E+02  0.44806922135E+03  0.45089095899E+03  0.00000000000E+00 0. -1.
</event>
<event>
 7    1  0.6888431E-006  0.2112697E+03  0.7818608E-02  0.1149136E+00
          2   -1    0    0  502    0  0.00000000000E+00  0.00000000000E+00  0.30371469509E+04  0.30371469509E+04  0.00000000000E+00 0. -1.
          1   -1    0    0  501    0 -0.00000000000E+00 -0.00000000000E+00 -0.11335914468E+04  0.11335914468E+04  0.00000000000E+00 0. -1.
         25    2    1    2    0    0 -0.16231910654E+03 -0.35403454199E+03 -0.13199848989E+03  0.42980990294E+03  0.12500000825E+03 0.  0.
          2    1    1    2  501    0  0.36514077664E+02  0.18716157288E+03 -0.83818402820E+03  0.85960176673E+03  0.00000000000E+00 0. -1.
          1    1    1    2  502    0  0.12580502887E+03  0.16687296910E+03  0.28737380222E+04  0.28813267280E+04  0.00000000000E+00 0. -1.
         22    1    3    3    0    0 -0.15039319582E+03 -0.30323906139E+03 -0.64631692466E+02  0.34460019932E+03  0.00000000000E+00 0.  1.
         22    1    3    3    0    0 -0.11925910721E+02 -0.50795480599E+02 -0.67366797424E+02  0.85209703620E+02  0.00000000000E+00 0.  1.
</event>
<event>
 7    1  0.6888431E-006  0.1467869E+03  0.7818608E-02  0.1326056E+00
          2   -1    0    0  502    0  0.00000000000E+00  0.00000000000E+00  0.22761898501E+04  0.22761898501E+04  0.00000000000E+00 0. -1.
          1   -1    0    0  501    0 -0.00000000000E+00 -0.00000000000E+00 -0.56383291804E+03  0.56383291804E+03  0.00000000000E+00 0. -1.
         25    2    1    2    0    0 -0.17696530552E+01 -0.10482372798E+03  0.15783105895E+02  0.16390103901E+03  0.12499319397E+03 0.  0.
          2    1    1    2  501    0 -0.13840500195E+02 -0.42576158257E+02 -0.48623219732E+03  0.48828888827E+03  0.00000000000E+00 0. -1.
          1    1    1    2  502    0  0.15610153250E+02  0.14739988624E+03  0.21828060235E+04  0.21878328409E+04  0.00000000000E+00 0. -1.
         22    1    3    3    0    0  0.43626233808E+01 -0.12779195535E+03  0.35843635751E+02  0.13279526558E+03  0.00000000000E+00 0. -1.
         22    1    3    3    0    0 -0.61322764360E+01  0.22968227373E+02 -0.20060529857E+02  0.31105773436E+02  0.00000000000E+00 0. -1.
</event>
<event>
 7    1  0.6888431E-006  0.6437497E+02  0.7818608E-02  0.1384876E+00
          2   -1    0    0  502    0  0.00000000000E+00  0.00000000000E+00  0.45913391636E+02  0.45913391636E+02  0.00000000000E+00 0. -1.
          1   -1    0    0  501    0 -0.00000000000E+00 -0.00000000000E+00 -0.13746222882E+04  0.13746222882E+04  0.00000000000E+00 0. -1.
         25    2    1    2    0    0  0.40779069586E+01  0.22659347183E+02 -0.62888581869E+03  0.64160066866E+03  0.12499587886E+03 0.  0.
          2    1    1    2  501    0 -0.66021543817E+02 -0.40184276895E+02 -0.70962193257E+03  0.71381853965E+03  0.00000000000E+00 0. -1.
          1    1    1    2  502    0  0.61943636859E+02  0.17524929712E+02  0.97988547159E+01  0.65116471514E+02  0.00000000000E+00 0. -1.
         22    1    3    3    0    0  0.50339194223E+02 -0.26073154779E+02 -0.21767117680E+03  0.22493240114E+03  0.00000000000E+00 0.  1.
         22    1    3    3    0    0 -0.46261287264E+02  0.48732501962E+02 -0.41121464190E+03  0.41666826752E+03  0.00000000000E+00 0.  1.
</event>
<event>
 7    1  0.6888431E-006  0.6148278E+02  0.7818608E-02  0.1508859E+00
          2   -1    0    0  502    0  0.00000000000E+00  0.00000000000E+00  0.59927067730E+03  0.59927067730E+03  0.00000000000E+00 0. -1.
          1   -1    0    0  501    0 -0.00000000000E+00 -0.00000000000E+00 -0.92160218790E+03  0.92160218790E+03  0.00000000000E+00 0. -1.
         25    2    1    2    0    0  0.31308077925E+02  0.52278214713E+02 -0.54745215123E+03  0.56483843876E+03  0.12500158616E+03 0.  0.
          2    1    1    2  501    0  0.19281164041E+02 -0.17307048324E+02 -0.36339331872E+03  0.36431579886E+03  0.00000000000E+00 0. -1.
          1    1    1    2  502    0 -0.50589241966E+02 -0.34971166388E+02  0.58851395934E+03  0.59171862758E+03  0.00000000000E+00 0. -1.
         22    1    3    3    0    0 -0.45151098132E+01 -0.13708929142E+02 -0.23909688259E+01  0.14630026889E+02  0.00000000000E+00 0.  1.
         22    1    3    3    0    0  0.35823187738E+02  0.65987143855E+02 -0.54506118240E+03  0.55020841187E+03  0.00000000000E+00 0.  1.
</event>
<event>
 7    1  0.6888431E-006  0.6268115E+02  0.7818608E-02  0.1446415E+00
          2   -1    0    0  502    0  0.00000000000E+00  0.00000000000E+00  0.21280538235E+03  0.21280538235E+03  0.00000000000E+00 0. -1.
          1   -1    0    0  501    0 -0.00000000000E+00 -0.00000000000E+00 -0.27523019907E+03  0.27523019907E+03  0.00000000000E+00 0. -1.
         25    2    1    2    0    0  0.14101623600E+02  0.30210088924E+02  0.20334350710E+02  0.13096301427E+03  0.12500527999E+03 0.  0.
          2    1    1    2  501    0  0.37016589033E+02  0.13979587233E+02 -0.20962896215E+03  0.21333063188E+03  0.00000000000E+00 0. -1.
          1    1    1    2  502    0 -0.51118212633E+02 -0.44189676157E+02  0.12686979473E+03  0.14374193527E+03  0.00000000000E+00 0. -1.
         22    1    3    3    0    0  0.25192515263E+01 -0.47723642242E+02 -0.53594785963E+01  0.48089673194E+02  0.00000000000E+00 0.  1.
         22    1    3    3    0    0  0.11582372073E+02  0.77933731166E+02  0.25693829306E+02  0.82873341073E+02  0.00000000000E+00 0.  1.
</event>
<event>
 7    1  0.6888431E-006  0.9094328E+02  0.7818608E-02  0.1328348E+00
          2   -1    0    0  502    0  0.00000000000E+00  0.00000000000E+00  0.40063304429E+03  0.40063304429E+03  0.00000000000E+00 0. -1.
          1   -1    0    0  501    0 -0.00000000000E+00 -0.00000000000E+00 -0.69552661620E+03  0.69552661620E+03  0.00000000000E+00 0. -1.
         25    2    1    2    0    0 -0.30324874593E+02  0.38975835586E+02  0.73007523767E+02  0.15295324522E+03  0.12500353162E+03 0.  0.
          2    1    1    2  501    0  0.30749298807E+02  0.63786624943E+02 -0.64437389241E+03  0.64825301088E+03  0.00000000000E+00 0. -1.
          1    1    1    2  502    0 -0.42442421447E+00 -0.10276246053E+03  0.27647279674E+03  0.29495340440E+03  0.00000000000E+00 0. -1.
         22    1    3    3    0    0 -0.76204607970E+02  0.70748951277E+01  0.29067860011E+02  0.81866579888E+02  0.00000000000E+00 0. -1.
         22    1    3    3    0    0  0.45879733377E+02  0.31900940458E+02  0.43939663756E+02  0.71086665331E+02  0.00000000000E+00 0. -1.
</event>
<event>
 7    1  0.6888431E-006  0.1202705E+03  0.7818608E-02  0.1280521E+00
          2   -1    0    0  502    0  0.00000000000E+00  0.00000000000E+00  0.23393468626E+04  0.23393468626E+04  0.00000000000E+00 0. -1.
          1   -1    0    0  501    0 -0.00000000000E+00 -0.00000000000E+00 -0.34712234680E+02  0.34712234680E+02  0.00000000000E+00 0. -1.
         25    2    1    2    0    0  0.69429505690E+02  0.17397487836E+03  0.11692643082E+04  0.11907553824E+04  0.12502657226E+03 0.  0.
          2    1    1    2  501    0 -0.34228055664E+02 -0.75578471106E+02  0.58843314005E+02  0.10171627545E+03  0.00000000000E+00 0. -1.
          1    1    1    2  502    0 -0.35201450026E+02 -0.98396407259E+02  0.10765270057E+04  0.10815874394E+04  0.00000000000E+00 0. -1.
         22    1    3    3    0    0  0.10098060688E+03  0.89399848601E+02  0.68552389377E+03  0.69866474423E+03  0.00000000000E+00 0. -1.
         22    1    3    3    0    0 -0.31551101189E+02  0.84575029764E+02  0.48374041441E+03  0.49209063818E+03  0.00000000000E+00 0. -1.
</event>
<event>
 7    1  0.6888431E-006  0.1383328E+03  0.7818608E-02  0.1258171E+00
          2   -1    0    0  502    0  0.00000000000E+00  0.00000000000E+00  0.43736582182E+03  0.43736582182E+03  0.00000000000E+00 0. -1.
          1   -1    0    0  501    0 -0.00000000000E+00 -0.00000000000E+00 -0.10913779068E+04  0.10913779068E+04  0.00000000000E+00 0. -1.
         25    2    1    2    0    0  0.83262135394E+01  0.94805255473E+02 -0.14799419229E+03  0.21583475532E+03  0.12499999342E+03 0.  0.
          2    1    1    2  501    0  0.74441351670E+02 -0.12901450089E+03 -0.89828381022E+03  0.91054931771E+03  0.00000000000E+00 0. -1.
          1    1    1    2  502    0 -0.82767565209E+02  0.34209245414E+02  0.39226591757E+03  0.40235965555E+03  0.00000000000E+00 0. -1.
         22    1    3    3    0    0 -0.47840053325E+02  0.52467949529E+01 -0.27071900317E+02  0.55218541689E+02  0.00000000000E+00 0. -1.
         22    1    3    3    0    0  0.56166266865E+02  0.89558460520E+02 -0.12092229197E+03  0.16061621363E+03  0.00000000000E+00 0. -1.
</event>
<event>
 7    1  0.6888431E-006  0.2268747E+03  0.7818608E-02  0.1204588E+00
          2   -1    0    0  502    0  0.00000000000E+00  0.00000000000E+00  0.71815682606E+03  0.71815682606E+03  0.00000000000E+00 0. -1.
          1   -1    0    0  501    0 -0.00000000000E+00 -0.00000000000E+00 -0.35361147026E+03  0.35361147026E+03  0.00000000000E+00 0. -1.
         25    2    1    2    0    0  0.10036400559E+02 -0.20877208188E+03 -0.61408803875E+01  0.24360899916E+03  0.12498448925E+03 0.  0.
          2    1    1    2  501    0  0.82785627132E+02  0.22831953122E+03 -0.15884546550E+03  0.29019846710E+03  0.00000000000E+00 0. -1.
          1    1    1    2  502    0 -0.92822027691E+02 -0.19547449339E+02  0.52953170168E+03  0.53796083006E+03  0.00000000000E+00 0. -1.
         22    1    3    3    0    0 -0.14882693240E+02 -0.12606544362E+03  0.54420916231E+02  0.13811454216E+03  0.00000000000E+00 0. -1.
         22    1    3    3    0    0  0.24919093799E+02 -0.82706638260E+02 -0.60561796618E+02  0.10549445700E+03  0.00000000000E+00 0. -1.
</event>
<event>
 7    1  0.6888431E-006  0.7703013E+02  0.7818608E-02  0.1356717E+00
          2   -1    0    0  502    0  0.00000000000E+00  0.00000000000E+00  0.19308704382E+04  0.19308704382E+04  0.00000000000E+00 0. -1.
          1   -1    0    0  501    0 -0.00000000000E+00 -0.00000000000E+00 -0.11839503629E+04  0.11839503629E+04  0.00000000000E+00 0. -1.
         25    2    1    2    0    0 -0.24343650061E+02  0.42995124633E+02  0.53940791998E+02  0.14484923927E+03  0.12502199421E+03 0.  0.
          2    1    1    2  501    0 -0.53420439603E+02 -0.37808916130E+02 -0.11367253420E+04  0.11386078168E+04  0.00000000000E+00 0. -1.
          1    1    1    2  502    0  0.77764089664E+02 -0.51862085029E+01  0.18297046253E+04  0.18313637449E+04  0.00000000000E+00 0. -1.
         22    1    3    3    0    0  0.36598179692E+02  0.16071005058E+01 -0.18925058200E+02  0.41233085704E+02  0.00000000000E+00 0. -1.
         22    1    3    3    0    0 -0.60941829754E+02  0.41388024127E+02  0.72865850198E+02  0.10361615357E+03  0.00000000000E+00 0. -1.
</event>
<event>
 7    1  0.6888431E-006  0.1537568E+03  0.7818608E-02  0.1403404E+00
          2   -1    0    0  502    0  0.00000000000E+00  0.00000000000E+00  0.73118722288E+03  0.73118722288E+03  0.00000000000E+00 0. -1.
          1   -1    0    0  501    0 -0.00000000000E+00 -0.00000000000E+00 -0.72515041978E+03  0.72515041978E+03  0.00000000000E+00 0. -1.
         25    2    1    2    0    0 -0.15766733937E+03  0.70677510526E+02  0.12645454684E+03  0.24792822448E+03  0.12499340655E+03 0.  0.
          2    1    1    2  501    0  0.21224344134E+02 -0.71735665185E+01 -0.65380920788E+03  0.65419294795E+03  0.00000000000E+00 0. -1.
          1    1    1    2  502    0  0.13644299523E+03 -0.63503944007E+02  0.53339146414E+03  0.55421647023E+03  0.00000000000E+00 0. -1.
         22    1    3    3    0    0 -0.98225178836E+02 -0.28716070451E+01  0.11291789205E+02  0.98913782598E+02  0.00000000000E+00 0.  1.
         22    1    3    3    0    0 -0.59442160531E+02  0.73549117571E+02  0.11516275764E+03  0.14901444188E+03  0.00000000000E+00 0.  1.
</event>
<event>
 7    1  0.6888431E-006  0.2093910E+03  0.7818608E-02  0.1328758E+00
          2   -1    0    0  502    0  0.00000000000E+00  0.00000000000E+00  0.89249681112E+03  0.89249681112E+03  0.00000000000E+00 0. -1.
          1   -1    0    0  501    0 -0.00000000000E+00 -0.00000000000E+00 -0.18152658613E+04  0.18152658613E+04  0.00000000000E+00 0. -1.
         25    2    1    2    0    0 -0.95304395651E+02 -0.15375023352E+03 -0.27319927573E+02  0.22156874799E+03  0.12499707799E+03 0.  0.
          2    1    1    2  501    0  0.11457768290E+03  0.17757447744E+03 -0.16839193192E+04  0.16971284613E+04  0.00000000000E+00 0. -1.
          1    1    1    2  502    0 -0.19273287249E+02 -0.23824243921E+02  0.78847019660E+03  0.78906546315E+03  0.00000000000E+00 0. -1.
         22    1    3    3    0    0 -0.76041613172E+02 -0.14209453798E+03 -0.68121262850E+02  0.17496768590E+03  0.00000000000E+00 0.  1.
         22    1    3    3    0    0 -0.19262782479E+02 -0.11655695539E+02  0.40801335277E+02  0.46601062088E+02  0.00000000000E+00 0.  1.
</event>
<event>
 7    1  0.6888431E-006  0.5417176E+02  0.7818608E-02  0.1502064E+00
          2   -1    0    0  502    0  0.00000000000E+00  0.00000000000E+00  0.10964352608E+04  0.10964352608E+04  0.00000000000E+00 0. -1.
          1   -1    0    0  501    0 -0.00000000000E+00 -0.00000000000E+00 -0.13887102247E+03  0.13887102247E+03  0.00000000000E+00 0. -1.
         25    2    1    2    0    0  0.23242779738E+02  0.10513301062E+02  0.26907214307E+03  0.29778550550E+03  0.12500253117E+03 0.  0.
          2    1    1    2  501    0 -0.54017082660E+02 -0.92327088502E+01 -0.11817656204E+03  0.13026430036E+03  0.00000000000E+00 0. -1.
          1    1    1    2  502    0  0.30774302921E+02 -0.12805922119E+01  0.80666865730E+03  0.80725647740E+03  0.00000000000E+00 0. -1.
         22    1    3    3    0    0 -0.10833436265E+02  0.31647044549E+02  0.89988313989E+01  0.34639251385E+02  0.00000000000E+00 0.  1.
         22    1    3    3    0    0  0.34076216003E+02 -0.21133743486E+02  0.26007331167E+03  0.26314625412E+03  0.00000000000E+00 0.  1.
</event>
<event>
 7    1  0.6888431E-006  0.6012375E+02  0.7818608E-02  0.1450150E+00
          2   -1    0    0  502    0  0.00000000000E+00  0.00000000000E+00  0.44295401756E+03  0.44295401756E+03  0.00000000000E+00 0. -1.
          1   -1    0    0  501    0 -0.00000000000E+00 -0.00000000000E+00 -0.57847446992E+03  0.57847446992E+03  0.00000000000E+00 0. -1.
         25    2    1    2    0    0 -0.45748866791E+01  0.28406371430E+02  0.19768963100E+03  0.23565749900E+03  0.12500166041E+03 0.  0.
          2    1    1    2  501    0  0.41664157352E+02 -0.43727104599E+02 -0.55606316923E+03  0.55933371958E+03  0.00000000000E+00 0. -1.
          1    1    1    2  502    0 -0.37089270673E+02  0.15320733168E+02  0.22285308587E+03  0.22643726889E+03  0.00000000000E+00 0. -1.
         22    1    3    3    0    0 -0.21753534592E+02  0.34703359353E+02  0.40523641540E+01  0.41157758356E+02  0.00000000000E+00 0. -1.
         22    1    3    3    0    0  0.17178647913E+02 -0.62969879228E+01  0.19363726684E+03  0.19449974065E+03  0.00000000000E+00 0. -1.
</event>
<event>
 7    1  0.6888431E-006  0.8374811E+02  0.7818608E-02  0.1366745E+00
          2   -1    0    0  502    0  0.00000000000E+00  0.00000000000E+00  0.16913493049E+04  0.16913493049E+04  0.00000000000E+00 0. -1.
          1   -1    0    0  501    0 -0.00000000000E+00 -0.00000000000E+00 -0.15750986849E+03  0.15750986849E+03  0.00000000000E+00 0. -1.
         25    2    1    2    0    0  0.11285411491E+03  0.42501852888E+02 -0.52277826205E+02  0.18137962807E+03  0.12499255824E+03 0.  0.
          2    1    1    2  501    0 -0.29468485337E+02 -0.46846124976E+02 -0.20258449559E+02  0.58935183310E+02  0.00000000000E+00 0. -1.
          1    1    1    2  502    0 -0.83385629570E+02  0.43442720880E+01  0.16063757122E+04  0.16085443620E+04  0.00000000000E+00 0. -1.
         22    1    3    3    0    0  0.13909012797E+03  0.22985668171E+02 -0.43074107255E+02  0.14741025526E+03  0.00000000000E+00 0. -1.
         22    1    3    3    0    0 -0.26236013058E+02  0.19516184716E+02 -0.92037189496E+01  0.33969372816E+02  0.00000000000E+00 0. -1.
</event>
<event>
 7    1  0.6888431E-006  0.1001652E+03  0.7818608E-02  0.1339134E+00
          2   -1    0    0  502    0  0.00000000000E+00  0.00000000000E+00  0.30335304295E+03  0.30335304295E+03  0.00000000000E+00 0. -1.
          1   -1    0    0  501    0 -0.00000000000E+00 -0.00000000000E+00 -0.10227275392E+04  0.10227275392E+04  0.00000000000E+00 0. -1.
         25    2    1    2    0    0 -0.64401376047E+02 -0.12035100554E+03 -0.27001805908E+03  0.32736366651E+03  0.12500126460E+03 0.  0.
          2    1    1    2  501    0 -0.12311409332E+02  0.57194223771E+02 -0.71381412766E+03  0.71620762275E+03  0.00000000000E+00 0. -1.
          1    1    1    2  502    0  0.76712785379E+02  0.63156781768E+02  0.26445769048E+03  0.28250929291E+03  0.00000000000E+00 0. -1.
         22    1    3    3    0    0 -0.52622685303E+02  0.10530409443E+02 -0.76703773257E+02  0.93613596039E+02  0.00000000000E+00 0. -1.
         22    1    3    3    0    0 -0.11778690744E+02 -0.13088141498E+03 -0.19331428582E+03  0.23375007047E+03  0.00000000000E+00 0. -1.
</event>
<event>
 7    1  0.6888431E-006  0.9069649E+02  0.7818608E-02  0.1356106E+00
          2   -1    0    0  502    0  0.00000000000E+00  0.00000000000E+00  0.16689775656E+04  0.16689775656E+04  0.00000000000E+00 0. -1.
          1   -1    0    0  501    0 -0.00000000000E+00 -0.00000000000E+00 -0.20204069695E+04  0.20204069695E+04  0.00000000000E+00 0. -1.
         25    2    1    2    0    0 -0.86492981529E+02 -0.31416530540E+02  0.11619320405E+04  0.11722537217E+04  0.12499874824E+03 0.  0.
          2    1    1    2  501    0 -0.79895821100E+01  0.55298429879E+02 -0.20101234708E+04  0.20108998278E+04  0.00000000000E+00 0. -1.
          1    1    1    2  502    0  0.94482563639E+02 -0.23881899339E+02  0.49676202632E+03  0.50623098556E+03  0.00000000000E+00 0. -1.
         22    1    3    3    0    0  0.22092297109E+02 -0.29574716772E+02  0.51034302442E+03  0.51167639777E+03  0.00000000000E+00 0.  1.
         22    1    3    3    0    0 -0.10858527864E+03 -0.18418137672E+01  0.65158901612E+03  0.66057732397E+03  0.00000000000E+00 0.  1.
</event>
<event>
 7    1  0.6888431E-006  0.6449149E+02  0.7818608E-02  0.1496641E+00
          2   -1    0    0  502    0  0.00000000000E+00  0.00000000000E+00  0.28805439250E+02  0.28805439250E+02  0.00000000000E+00 0. -1.
          1   -1    0    0  501    0 -0.00000000000E+00 -0.00000000000E+00 -0.20502829123E+04  0.20502829123E+04  0.00000000000E+00 0. -1.
         25    2    1    2    0    0  0.32167380209E+02 -0.24024961471E+02 -0.78892560022E+03  0.79977496599E+03  0.12499781762E+03 0.  0.
          2    1    1    2  501    0  0.14417159665E+02 -0.22657476168E+02 -0.12089791325E+04  0.12092773704E+04  0.00000000000E+00 0. -1.
          1    1    1    2  502    0 -0.46584539874E+02  0.46682437640E+02 -0.23572740378E+02  0.70036015222E+02  0.00000000000E+00 0. -1.
         22    1    3    3    0    0  0.58885969641E+02  0.14527096100E+02 -0.65634815425E+03  0.65914451642E+03  0.00000000000E+00 0. -1.
         22    1    3    3    0    0 -0.26718589431E+02 -0.38552057571E+02 -0.13257744597E+03  0.14063044956E+03  0.00000000000E+00 0. -1.
</event>
<event>
 7    1  0.6888431E-006  0.1670324E+03  0.7818608E-02  0.1217552E+00
          2   -1    0    0  502    0  0.00000000000E+00  0.00000000000E+00  0.11930728596E+04  0.11930728596E+04  0.00000000000E+00 0. -1.
          1   -1    0    0  501    0 -0.00000000000E+00 -0.00000000000E+00 -0.27281716987E+03  0.27281716987E+03  0.00000000000E+00 0. -1.
         25    2    1    2    0    0 -0.19616391972E+03 -0.15737801508E+03  0.11803393691E+03  0.30464010989E+03  0.12500185303E+03 0.  0.
          2    1    1    2  501    0  0.14336137089E+03  0.58362435143E+02 -0.14219743860E+03  0.21018745930E+03  0.00000000000E+00 0. -1.
          1    1    1    2  502    0  0.52802548822E+02  0.99015579941E+02  0.94441919144E+03  0.95106246030E+03  0.00000000000E+00 0. -1.
         22    1    3    3    0    0 -0.27865888942E+02 -0.70740358975E+02 -0.91679682019E+01  0.76581706663E+02  0.00000000000E+00 0.  1.
         22    1    3    3    0    0 -0.16829803077E+03 -0.86637656110E+02  0.12720190511E+03  0.22805840323E+03  0.00000000000E+00 0.  1.
</event>
<event>
 7    1  0.6888431E-006  0.1239355E+03  0.7818608E-02  0.1355208E+00
          2   -1    0    0  502    0  0.00000000000E+00  0.00000000000E+00  0.13475644669E+04  0.13475644669E+04  0.00000000000E+00 0. -1.
          1   -1    0    0  501    0 -0.00000000000E+00 -0.00000000000E+00 -0.13681317129E+03  0.13681317129E+03  0.00000000000E+00 0. -1.
         25    2    1    2    0    0 -0.98332141692E+02  0.55816303519E+02  0.49870879662E+02  0.17577571784E+03  0.12500131406E+03 0.  0.
          2    1    1    2  501    0 -0.24386124667E+02 -0.33207140046E+02 -0.64689942505E+02  0.76695409821E+02  0.00000000000E+00 0. -1.
          1    1    1    2  502    0  0.12271826636E+03 -0.22609163473E+02  0.12255703585E+04  0.12319065106E+04  0.00000000000E+00 0. -1.
         22    1    3    3    0    0 -0.12118260668E+03  0.66449624718E+02  0.57129578663E+02  0.14954787041E+03  0.00000000000E+00 0. -1.
         22    1    3    3    0    0  0.22850464986E+02 -0.10633321199E+02 -0.72586990006E+01  0.26227847433E+02  0.00000000000E+00 0. -1.
</event>
<event>
 7    1  0.6888431E-006  0.1596844E+03  0.7818608E-02  0.1319581E+00
          2   -1    0    0  502    0  0.00000000000E+00  0.00000000000E+00  0.32866678580E+03  0.32866678580E+03  0.00000000000E+00 0. -1.
          1   -1    0    0  501    0 -0.00000000000E+00 -0.00000000000E+00 -0.91795815930E+03  0.91795815930E+03  0.00000000000E+00 0. -1.
         25    2    1    2    0    0  0.48031577783E+02 -0.14737958810E+03  0.15219189626E+03  0.25062907448E+03  0.12499913693E+03 0.  0.
          2    1    1    2  501    0 -0.38633794053E+02 -0.20193292420E+02 -0.81256098680E+03  0.81372949828E+03  0.00000000000E+00 0. -1.
          1    1    1    2  502    0 -0.93977837301E+01  0.16757288052E+03  0.71077717033E+02  0.18226637233E+03  0.00000000000E+00 0. -1.
         22    1    3    3    0    0  0.51226793141E+02 -0.79212449089E+01  0.75091029242E+02  0.91244688223E+02  0.00000000000E+00 0.  1.
         22    1    3    3    0    0 -0.31952153580E+01 -0.13945834319E+03  0.77100867023E+02  0.15938438626E+03  0.00000000000E+00 0.  1.
</event>
<event>
 7    1  0.6888431E-006  0.9243354E+02  0.7818608E-02  0.1406911E+00
          2   -1    0    0  502    0  0.00000000000E+00  0.00000000000E+00  0.16410806611E+03  0.16410806611E+03  0.00000000000E+00 0. -1.
          1   -1    0    0  501    0 -0.00000000000E+00 -0.00000000000E+00 -0.21941507554E+03  0.21941507554E+03  0.00000000000E+00 0. -1.
         25    2    1    2    0    0  0.78976277537E+02 -0.68981621861E+02 -0.12476822125E+03  0.20539375446E+03  0.12499507498E+03 0.  0.
          2    1    1    2  501    0 -0.34490886877E+02 -0.11169590069E+02 -0.26889842861E+02  0.45138062309E+02  0.00000000000E+00 0. -1.
          1    1    1    2  502    0 -0.44485390659E+02  0.80151211930E+02  0.96351054676E+02  0.13299132488E+03  0.00000000000E+00 0. -1.
         22    1    3    3    0    0  0.10397082116E+03 -0.84165784382E+02 -0.99028214486E+02  0.16643436598E+03  0.00000000000E+00 0.  1.
         22    1    3    3    0    0 -0.24994543626E+02  0.15184162522E+02 -0.25740006761E+02  0.38959388478E+02  0.00000000000E+00 0.  1.
</event>
<event>
 7    1  0.6888431E-006  0.7658771E+02  0.7818608E-02  0.1359446E+00
          2   -1    0    0  502    0  0.00000000000E+00  0.00000000000E+00  0.26669658124E+03  0.26669658124E+03  0.00000000000E+00 0. -1.
          1   -1    0    0  501    0 -0.00000000000E+00 -0.00000000000E+00 -0.17071254494E+03  0.17071254494E+03  0.00000000000E+00 0. -1.
         25    2    1    2    0    0 -0.26921437460E+02  0.52597236421E+02 -0.53301655050E+02  0.14817902933E+03  0.12499890091E+03 0.  0.
          2    1    1    2  501    0 -0.48646468607E+02 -0.65053923854E+02 -0.35916158942E+02  0.88817016331E+02  0.00000000000E+00 0. -1.
          1    1    1    2  502    0  0.75567906067E+02  0.12456687433E+02  0.18520185030E+03  0.20041308052E+03  0.00000000000E+00 0. -1.
         22    1    3    3    0    0 -0.52089915936E+02  0.90894723824E+01 -0.76358820189E+02  0.92879746291E+02  0.00000000000E+00 0.  1.
         22    1    3    3    0    0  0.25168478476E+02  0.43507764039E+02  0.23057165139E+02  0.55299283040E+02  0.00000000000E+00 0.  1.
</event>
<event>
 7    1  0.6888431E-006  0.4807160E+02  0.7818608E-02  0.1456708E+00
          2   -1    0    0  502    0  0.00000000000E+00  0.00000000000E+00  0.52344152899E+03  0.52344152899E+03  0.00000000000E+00 0. -1.
          1   -1    0    0  501    0 -0.00000000000E+00 -0.00000000000E+00 -0.66277739646E+03  0.66277739646E+03  0.00000000000E+00 0. -1.
         25    2    1    2    0    0 -0.52545967417E+02 -0.38214280682E+02 -0.97526698863E+02  0.17134423531E+03  0.12500392011E+03 0.  0.
          2    1    1    2  501    0  0.46869952127E+02 -0.95542204586E+01 -0.52606510612E+03  0.52823533715E+03  0.00000000000E+00 0. -1.
          1    1    1    2  502    0  0.56760152895E+01  0.47768501141E+02  0.48425593751E+03  0.48663935298E+03  0.00000000000E+00 0. -1.
         22    1    3    3    0    0 -0.80407846528E+01 -0.62336187063E+02 -0.10275453388E+03  0.12045309738E+03  0.00000000000E+00 0. -1.
         22    1    3    3    0    0 -0.44505182764E+02  0.24121906381E+02  0.52278350219E+01  0.50891137925E+02  0.00000000000E+00 0. -1.
</event>
<event>
 7    1  0.6888431E-006  0.1276874E+03  0.7818608E-02  0.1310737E+00
          2   -1    0    0  502    0  0.00000000000E+00  0.00000000000E+00  0.14835222649E+04  0.14835222649E+04  0.00000000000E+00 0. -1.
          1   -1    0    0  501    0 -0.00000000000E+00 -0.00000000000E+00 -0.79844577150E+03  0.79844577150E+03  0.00000000000E+00 0. -1.
         25    2    1    2    0    0  0.92662767891E+02  0.13992696137E+03  0.70002965142E+03  0.73063793503E+03  0.12499734462E+03 0.  0.
          2    1    1    2  501    0 -0.50155917340E+02 -0.31135465624E+02 -0.77757648139E+03  0.77981421997E+03  0.00000000000E+00 0. -1.
          1    1    1    2  502    0 -0.42506850552E+02 -0.10879149575E+03  0.76262332335E+03  0.77151588137E+03  0.00000000000E+00 0. -1.
         22    1    3    3    0    0  0.91441409904E+02  0.25714485467E+02  0.30959207899E+03  0.32383641176E+03  0.00000000000E+00 0.  1.
         22    1    3    3    0    0  0.12213579872E+01  0.11421247590E+03  0.39043757243E+03  0.40680152326E+03  0.00000000000E+00 0.  1.
</event>
<event>
 7    1  0.6888431E-006  0.7712429E+02  0.7818608E-02  0.1403545E+00
          2   -1    0    0  502    0  0.00000000000E+00  0.00000000000E+00  0.78084513849E+02  0.78084513849E+02  0.00000000000E+00 0. -1.
          1   -1    0    0  501    0 -0.00000000000E+00 -0.00000000000E+00 -0.50493541813E+03  0.50493541813E+03  0.00000000000E+00 0. -1.
         25    2    1    2    0    0 -0.16248601618E+02 -0.73875322530E+02 -0.62613794551E+02  0.15895838394E+03  0.12500280086E+03 0.  0.
          2    1    1    2  501    0  0.56340846651E+02  0.54301106510E+02 -0.37079962269E+03  0.37896604249E+03  0.00000000000E+00 0. -1.
          1    1    1    2  502    0 -0.40092245033E+02  0.19574216020E+02  0.65625129667E+01  0.45095505552E+02  0.00000000000E+00 0. -1.
         22    1    3    3    0    0 -0.53968442503E+02 -0.17692886561E+02  0.12189762492E+02  0.58088048088E+02  0.00000000000E+00 0. -1.
         22    1    3    3    0    0  0.37719840885E+02 -0.56182435969E+02 -0.74803557043E+02  0.10087033585E+03  0.00000000000E+00 0. -1.
</event>
<event>
 7    1  0.6888431E-006  0.3157979E+02  0.7818608E-02  0.1652655E+00
          2   -1    0    0  502    0  0.00000000000E+00  0.00000000000E+00  0.16019907847E+02  0.16019907847E+02  0.00000000000E+00 0. -1.
          1   -1    0    0  501    0 -0.00000000000E+00 -0.00000000000E+00 -0.95535833907E+03  0.95535833907E+03  0.00000000000E+00 0. -1.
         25    2    1    2    0    0 -0.53459658448E+01 -0.13459410149E+02 -0.64569718468E+03  0.65784464702E+03  0.12499996098E+03 0.  0.
          2    1    1    2  501    0 -0.19345292737E+02 -0.74713850173E+01 -0.27578969419E+03  0.27656828699E+03  0.00000000000E+00 0. -1.
          1    1    1    2  502    0  0.24691258582E+02  0.20930795166E+02 -0.17851552352E+02  0.36965312903E+02  0.00000000000E+00 0. -1.
         22    1    3    3    0    0 -0.27308715477E+02 -0.42013067159E+02 -0.10929474232E+03  0.12023395715E+03  0.00000000000E+00 0. -1.
         22    1    3    3    0    0  0.21962749632E+02  0.28553657010E+02 -0.53640244236E+03  0.53761068988E+03  0.00000000000E+00 0. -1.
</event>
<event>
 7    1  0.6888431E-006  0.6150454E+02  0.7818608E-02  0.1420493E+00
          2   -1    0    0  502    0  0.00000000000E+00  0.00000000000E+00  0.48422677229E+03  0.48422677229E+03  0.00000000000E+00 0. -1.
          1   -1    0    0  501    0 -0.00000000000E+00 -0.00000000000E+00 -0.31601132073E+04  0.31601132073E+04  0.00000000000E+00 0. -1.
         25    2    1    2    0    0 -0.10996080741E+03 -0.24963344665E+01 -0.25478996018E+03  0.30436277863E+03  0.12498466448E+03 0.  0.
          2    1    1    2  501    0  0.48837515238E+02  0.43901697226E+01 -0.28782922001E+04  0.28787098440E+04  0.00000000000E+00 0. -1.
          1    1    1    2  502    0  0.61123292174E+02 -0.18938352560E+01  0.45719572526E+03  0.46126735702E+03  0.00000000000E+00 0. -1.
         22    1    3    3    0    0 -0.74830047325E+02  0.53656858930E+02 -0.99673200727E+02  0.13569576794E+03  0.00000000000E+00 0.  1.
         22    1    3    3    0    0 -0.35130760088E+02 -0.56153193397E+02 -0.15511675946E+03  0.16866701070E+03  0.00000000000E+00 0.  1.
</event>
<event>
 7    1  0.1012490E-005  0.1485648E+03  0.7818608E-02  0.1279272E+00
          2   -1    0    0  502    0  0.00000000000E+00  0.00000000000E+00  0.19093779637E+04  0.19093779637E+04  0.00000000000E+00 0. -1.
          1   -1    0    0  501    0 -0.00000000000E+00 -0.00000000000E+00 -0.98737746694E+03  0.98737746694E+03  0.00000000000E+00 0. -1.
         25    2    1    2    0    0  0.70115194999E+02 -0.18895266492E+03 -0.18730071884E+03  0.30219948836E+03  0.12499488525E+03 0.  0.
          2    1    1    2  501    0 -0.53526649293E+02  0.41890628671E+02 -0.73810667738E+03  0.74122965007E+03  0.00000000000E+00 0. -1.
          1    1    1    2  502    0 -0.16588545705E+02  0.14706203624E+03  0.18474078930E+04  0.18533262922E+04  0.00000000000E+00 0. -1.
         22    1    3    3    0    0  0.31762725594E+02 -0.16827988177E+03 -0.19326774986E+03  0.25822357073E+03  0.00000000000E+00 0. -1.
         22    1    3    3    0    0  0.38352469405E+02 -0.20672783146E+02  0.59670310147E+01  0.43975917632E+02  0.00000000000E+00 0. -1.
</event>
<event>
 7    1  0.6888431E-006  0.1580238E+03  0.7818608E-02  0.1297798E+00
          2   -1    0    0  502    0  0.00000000000E+00  0.00000000000E+00  0.84889407636E+03  0.84889407636E+03  0.00000000000E+00 0. -1.
          1   -1    0    0  501    0 -0.00000000000E+00 -0.00000000000E+00 -0.94360387870E+03  0.94360387870E+03  0.00000000000E+00 0. -1.
         25    2    1    2    0    0  0.42844415414E+02 -0.11864276798E+03  0.20781002981E+03  0.27335305580E+03  0.12500053721E+03 0.  0.
          2    1    1    2  501    0  0.46824472606E+02 -0.26292488132E+02 -0.89807711998E+03  0.89968124332E+03  0.00000000000E+00 0. -1.
          1    1    1    2  502    0 -0.89668888020E+02  0.14493525611E+03  0.59555728782E+03  0.61946365593E+03  0.00000000000E+00 0. -1.
         22    1    3    3    0    0  0.74999034411E+02 -0.27754515723E+02  0.78505867045E+02  0.11206399719E+03  0.00000000000E+00 0.  1.
         22    1    3    3    0    0 -0.32154618997E+02 -0.90888252253E+02  0.12930416276E+03  0.16128905861E+03  0.00000000000E+00 0.  1.
</event>
<event>
 7    1  0.6888431E-006  0.7790568E+02  0.7818608E-02  0.1345789E+00
          2   -1    0    0  502    0  0.00000000000E+00  0.00000000000E+00  0.86609341215E+02  0.86609341215E+02  0.00000000000E+00 0. -1.
          1   -1    0    0  501    0 -0.00000000000E+00 -0.00000000000E+00 -0.20673879448E+04  0.20673879448E+04  0.00000000000E+00 0. -1.
         25    2    1    2    0    0 -0.34452364440E+02  0.36106839185E+02 -0.58460352249E+03  0.59989769779E+03  0.12500120022E+03 0.  0.
          2    1    1    2  501    0 -0.18013585473E+02 -0.83975046457E+02 -0.14576437387E+04  0.14601717593E+04  0.00000000000E+00 0. -1.
          1    1    1    2  502    0  0.52465949913E+02  0.47868207273E+02  0.61468657639E+02  0.93927828888E+02  0.00000000000E+00 0. -1.
         22    1    3    3    0    0 -0.34730087861E+02  0.58894112850E+02 -0.15171276400E+03  0.16640750672E+03  0.00000000000E+00 0.  1.
         22    1    3    3    0    0  0.27772342021E+00 -0.22787273665E+02 -0.43289075850E+03  0.43349019108E+03  0.00000000000E+00 0.  1.
</event>
<event>
 7    1  0.6888431E-006  0.1071546E+03  0.7818608E-02  0.1274691E+00
          2   -1    0    0  502    0  0.00000000000E+00  0.00000000000E+00  0.53983198238E+03  0.53983198238E+03  0.00000000000E+00 0. -1.
          1   -1    0    0  501    0 -0.00000000000E+00 -0.00000000000E+00 -0.11911292712E+04  0.11911292712E+04  0.00000000000E+00 0. -1.
         25    2    1    2    0    0 -0.16747674679E+03 -0.32022906935E+02  0.20437169149E+03  0.29405055514E+03  0.12499605358E+03 0.  0.
          2    1    1    2  501    0  0.92951950949E+02 -0.32460918391E+02 -0.11357437387E+04  0.11400033405E+04  0.00000000000E+00 0. -1.
          1    1    1    2  502    0  0.74524795844E+02  0.64483825326E+02  0.28007475836E+03  0.29690735793E+03  0.00000000000E+00 0. -1.
         22    1    3    3    0    0 -0.10086623511E+03  0.43329461410E+02  0.91875936463E+02  0.14315246178E+03  0.00000000000E+00 0.  1.
         22    1    3    3    0    0 -0.66610511680E+02 -0.75352368345E+02  0.11249575503E+03  0.15089809337E+03  0.00000000000E+00 0.  1.
</event>
<event>
 7    1  0.6888431E-006  0.1828055E+03  0.7818608E-02  0.1352115E+00
          2   -1    0    0  502    0  0.00000000000E+00  0.00000000000E+00  0.21245762110E+04  0.21245762110E+04  0.00000000000E+00 0. -1.
          1   -1    0    0  501    0 -0.00000000000E+00 -0.00000000000E+00 -0.34789607594E+03  0.34789607594E+03  0.00000000000E+00 0. -1.
         25    2    1    2    0    0 -0.14590047652E+03  0.12753654679E+03 -0.69547023638E+02  0.24086254671E+03  0.12500183236E+03 0.  0.
          2    1    1    2  501    0  0.14801771283E+03 -0.98940390062E+02 -0.15144048328E+03  0.23373631313E+03  0.00000000000E+00 0. -1.
          1    1    1    2  502    0 -0.21172363182E+01 -0.28596156732E+02  0.19976676420E+04  0.19978734271E+04  0.00000000000E+00 0. -1.
         22    1    3    3    0    0 -0.78460945422E+02 -0.83064404488E+01 -0.25983013971E+02  0.83067646677E+02  0.00000000000E+00 0. -1.
         22    1    3    3    0    0 -0.67439531095E+02  0.13584298724E+03 -0.43564009667E+02  0.15779490003E+03  0.00000000000E+00 0. -1.
</event>
<event>
 7    1  0.6888431E-006  0.7671005E+02  0.7818608E-02  0.1414021E+00
          2   -1    0    0  502    0  0.00000000000E+00  0.00000000000E+00  0.48900827635E+03  0.48900827635E+03  0.00000000000E+00 0. -1.
          1   -1    0    0  501    0 -0.00000000000E+00 -0.00000000000E+00 -0.21998910189E+03  0.21998910189E+03  0.00000000000E+00 0. -1.
         25    2    1    2    0    0  0.62413852438E+02  0.40808371879E+02 -0.13450626782E+03  0.19818708816E+03  0.12500149454E+03 0.  0.
          2    1    1    2  501    0 -0.84111559932E+02 -0.56327142326E+01 -0.18879573337E+02  0.86388195219E+02  0.00000000000E+00 0. -1.
          1    1    1    2  502    0  0.21697707494E+02 -0.35175657647E+02  0.42240501561E+03  0.42442209487E+03  0.00000000000E+00 0. -1.
         22    1    3    3    0    0  0.80373461452E+02  0.55290195913E+02 -0.48127392222E+02  0.10878025994E+03  0.00000000000E+00 0.  1.
         22    1    3    3    0    0 -0.17959609014E+02 -0.14481824034E+02 -0.86378875594E+02  0.89406828219E+02  0.00000000000E+00 0.  1.
</event>
<event>
 7    1  0.6888431E-006  0.7427559E+02  0.7818608E-02  0.1515926E+00
          2   -1    0    0  502    0  0.00000000000E+00  0.00000000000E+00  0.93221876011E+03  0.93221876011E+03  0.00000000000E+00 0. -1.
          1   -1    0    0  501    0 -0.00000000000E+00 -0.00000000000E+00 -0.46634677462E+02  0.46634677462E+02  0.00000000000E+00 0. -1.
         25    2    1    2    0    0  0.58130864130E+02  0.61276805695E+02  0.18249346574E+03  0.23677390010E+03  0.12499588174E+03 0.  0.
          2    1    1    2  501    0 -0.37691460734E+02 -0.60720016194E+02  0.46704262036E+02  0.85374789435E+02  0.00000000000E+00 0. -1.
          1    1    1    2  502    0 -0.20439403396E+02 -0.55678950171E+00  0.65638635488E+03  0.65670474804E+03  0.00000000000E+00 0. -1.
         22    1    3    3    0    0  0.55632472820E+02  0.97606950719E+02  0.15352064897E+03  0.19023847802E+03  0.00000000000E+00 0. -1.
         22    1    3    3    0    0  0.24983913099E+01 -0.36330145024E+02  0.28972816768E+02  0.46535422079E+02  0.00000000000E+00 0. -1.
</event>
<event>
 7    1  0.6888431E-006  0.6945426E+02  0.7818608E-02  0.1470639E+00
          2   -1    0    0  502    0  0.00000000000E+00  0.00000000000E+00  0.20310330169E+04  0.20310330169E+04  0.00000000000E+00 0. -1.
          1   -1    0    0  501    0 -0.00000000000E+00 -0.00000000000E+00 -0.76339595409E+02  0.76339595409E+02  0.00000000000E+00 0. -1.
         25    2    1    2    0    0  0.85843463060E+02  0.28024347138E+02  0.13196914836E+03  0.20296899422E+03  0.12500436918E+03 0.  0.
          2    1    1    2  501    0 -0.66185034145E+02 -0.54465773456E+01 -0.13640215484E+02  0.67795128351E+02  0.00000000000E+00 0. -1.
          1    1    1    2  502    0 -0.19658428914E+02 -0.22577769793E+02  0.18363644886E+04  0.18366084898E+04  0.00000000000E+00 0. -1.
         22    1    3    3    0    0  0.63004098628E+02  0.62532587801E+02  0.31297947714E+02  0.94124399134E+02  0.00000000000E+00 0.  1.
         22    1    3    3    0    0  0.22839364431E+02 -0.34508240663E+02  0.10067120064E+03  0.10884459509E+03  0.00000000000E+00 0.  1.
</event>
<event>
 7    1  0.6888431E-006  0.1531184E+03  0.7818608E-02  0.1351636E+00
          2   -1    0    0  502    0  0.00000000000E+00  0.00000000000E+00  0.75392701391E+03  0.75392701391E+03  0.00000000000E+00 0. -1.
          1   -1    0    0  501    0 -0.00000000000E+00 -0.00000000000E+00 -0.48146622113E+03  0.48146622113E+03  0.00000000000E+00 0. -1.
         25    2    1    2    0    0  0.83394258686E+02  0.99757410411E+02  0.22835680672E+02  0.18180374691E+03  0.12499996307E+03 0.  0.
          2    1    1    2  501    0 -0.81261984350E+02 -0.13406489054E+03 -0.38621547083E+03  0.41682045881E+03  0.00000000000E+00 0. -1.
          1    1    1    2  502    0 -0.21322743358E+01  0.34307480127E+02  0.63584058294E+03  0.63676902932E+03  0.00000000000E+00 0. -1.
         22    1    3    3    0    0  0.98113649918E+02  0.11335833693E+03  0.40275513861E+02  0.15523697327E+03  0.00000000000E+00 0.  1.
         22    1    3    3    0    0 -0.14719391232E+02 -0.13600926520E+02 -0.17439833189E+02  0.26566773648E+02  0.00000000000E+00 0.  1.
</event>
<event>
 7    1  0.6888431E-006  0.7396830E+02  0.7818608E-02  0.1387622E+00
          2   -1    0    0  502    0  0.00000000000E+00  0.00000000000E+00  0.42801836206E+04  0.42801836206E+04  0.00000000000E+00 0. -1.
          1   -1    0    0  501    0 -0.00000000000E+00 -0.00000000000E+00 -0.23089654464E+03  0.23089654464E+03  0.00000000000E+00 0. -1.
         25    2    1    2    0    0  0.20899715944E+02 -0.86273741514E+01  0.26502297058E+03  0.29389415308E+03  0.12500147425E+03 0.  0.
          2    1    1    2  501    0  0.51357778841E+02 -0.12313879334E+02 -0.21288029820E+03  0.21933370565E+03  0.00000000000E+00 0. -1.
          1    1    1    2  502    0 -0.72257494784E+02  0.20941253485E+02  0.39971444036E+04  0.39978523065E+04  0.00000000000E+00 0. -1.
         22    1    3    3    0    0  0.42176106915E+02 -0.50762970988E+02  0.21592559764E+03  0.22578655171E+03  0.00000000000E+00 0. -1.
         22    1    3    3    0    0 -0.21276390971E+02  0.42135596837E+02  0.49097372947E+02  0.68107601366E+02  0.00000000000E+00 0. -1.
</event>
<event>
 7    1  0.6888431E-006  0.1337207E+03  0.7818608E-02  0.1426619E+00
          2   -1    0    0  502    0  0.00000000000E+00  0.00000000000E+00  0.31281783212E+04  0.31281783212E+04  0.00000000000E+00 0. -1.
          1   -1    0    0  501    0 -0.00000000000E+00 -0.00000000000E+00 -0.10423933685E+03  0.10423933685E+03  0.00000000000E+00 0. -1.
         25    2    1    2    0    0  0.12416402074E+03  0.86850618584E+02  0.99511894915E+03  0.10143208313E+04  0.12500116772E+03 0.  0.
          2    1    1    2  501    0 -0.18155844260E+02 -0.11554300876E+02 -0.91396950544E+02  0.93896427612E+02  0.00000000000E+00 0. -1.
          1    1    1    2  502    0 -0.10600817648E+03 -0.75296317708E+02  0.21202169858E+04  0.21242003991E+04  0.00000000000E+00 0. -1.
         22    1    3    3    0    0  0.13484336483E+03  0.29743117040E+02  0.67661647181E+03  0.69056298480E+03  0.00000000000E+00 0.  1.
         22    1    3    3    0    0 -0.10679344092E+02  0.57107501544E+02  0.31850247733E+03  0.32375784653E+03  0.00000000000E+00 0.  1.
</event>
<event>
 7    1  0.6888431E-006  0.6638394E+02  0.7818608E-02  0.1404332E+00
          2   -1    0    0  502    0  0.00000000000E+00  0.00000000000E+00  0.67237242420E+02  0.67237242420E+02  0.00000000000E+00 0. -1.
          1   -1    0    0  501    0 -0.00000000000E+00 -0.00000000000E+00 -0.45852855735E+03  0.45852855735E+03  0.00000000000E+00 0. -1.
         25    2    1    2    0    0 -0.34871753224E+01 -0.35730183324E+02 -0.19811031613E+03  0.23698154332E+03  0.12499499240E+03 0.  0.
          2    1    1    2  501    0  0.47049572454E+02  0.63224911697E+02 -0.21785102232E+03  0.23166812394E+03  0.00000000000E+00 0. -1.
          1    1    1    2  502    0 -0.43562397131E+02 -0.27494728373E+02  0.24670023515E+02  0.57116132505E+02  0.00000000000E+00 0. -1.
         22    1    3    3    0    0 -0.58030682979E+02 -0.46375291203E+02 -0.11963825687E+03  0.14082450181E+03  0.00000000000E+00 0. -1.
         22    1    3    3    0    0  0.54543507656E+02  0.10645107879E+02 -0.78472059253E+02  0.96157041514E+02  0.00000000000E+00 0. -1.
</event>
<event>
 7    1  0.6888431E-006  0.1369280E+03  0.7818608E-02  0.1375118E+00
          2   -1    0    0  502    0  0.00000000000E+00  0.00000000000E+00  0.44061461344E+03  0.44061461344E+03  0.00000000000E+00 0. -1.
          1   -1    0    0  501    0 -0.00000000000E+00 -0.00000000000E+00 -0.68991394445E+03  0.68991394445E+03  0.00000000000E+00 0. -1.
         25    2    1    2    0    0  0.12780277638E+03  0.46844255654E+02  0.31039684061E+02  0.18739480625E+03  0.12500166993E+03 0.  0.
          2    1    1    2  501    0  0.88398817853E+01 -0.30323576825E+02 -0.59700976128E+03  0.59784472724E+03  0.00000000000E+00 0. -1.
          1    1    1    2  502    0 -0.13664265817E+03 -0.16520678829E+02  0.31667074621E+03  0.34528902439E+03  0.00000000000E+00 0. -1.
         22    1    3    3    0    0  0.70298266401E+02  0.84309334733E+02 -0.49794115034E+01  0.10988496131E+03  0.00000000000E+00 0.  1.
         22    1    3    3    0    0  0.57504509979E+02 -0.37465079079E+02  0.36019095565E+02  0.77509844947E+02  0.00000000000E+00 0.  1.
</event>
<event>
 7    1  0.6888431E-006  0.2667588E+02  0.7818608E-02  0.1669824E+00
          2   -1    0    0  502    0  0.00000000000E+00  0.00000000000E+00  0.15553871788E+03  0.15553871788E+03  0.00000000000E+00 0. -1.
          1   -1    0    0  501    0 -0.00000000000E+00 -0.00000000000E+00 -0.19897626501E+04  0.19897626501E+04  0.00000000000E+00 0. -1.
         25    2    1    2    0    0 -0.19539167911E+01  0.22680019220E+02 -0.83586145513E+03  0.84546292929E+03  0.12499996632E+03 0.  0.
          2    1    1    2  501    0 -0.20642542577E+02 -0.84682565081E+01 -0.11478093786E+04  0.11480262173E+04  0.00000000000E+00 0. -1.
          1    1    1    2  502    0  0.22596459368E+02 -0.14211762712E+02  0.14944690155E+03  0.15181222137E+03  0.00000000000E+00 0. -1.
         22    1    3    3    0    0  0.57879961890E+02  0.32394848011E+02 -0.45423846661E+03  0.45905566189E+03  0.00000000000E+00 0.  1.
         22    1    3    3    0    0 -0.59833878681E+02 -0.97148287903E+01 -0.38162298852E+03  0.38640726740E+03  0.00000000000E+00 0.  1.
</event>
<event>
 7    1  0.6888431E-006  0.9870968E+02  0.7818608E-02  0.1365170E+00
          2   -1    0    0  502    0  0.00000000000E+00  0.00000000000E+00  0.21675517312E+04  0.21675517312E+04  0.00000000000E+00 0. -1.
          1   -1    0    0  501    0 -0.00000000000E+00 -0.00000000000E+00 -0.27320260982E+03  0.27320260982E+03  0.00000000000E+00 0. -1.
         25    2    1    2    0    0 -0.88095503212E+02  0.10938377786E+03  0.33316549295E+03  0.38255653985E+03  0.12499852777E+03 0.  0.
          2    1    1    2  501    0  0.40166080838E+02 -0.25497214334E+02 -0.24492706947E+03  0.24950489244E+03  0.00000000000E+00 0. -1.
          1    1    1    2  502    0  0.47929422374E+02 -0.83886563521E+02  0.18061106979E+04  0.18086929088E+04  0.00000000000E+00 0. -1.
         22    1    3    3    0    0  0.61430577388E+01 -0.11854224905E+02 -0.23634179418E+01  0.13558965700E+02  0.00000000000E+00 0. -1.
         22    1    3    3    0    0 -0.94238560951E+02  0.12123800276E+03  0.33552891089E+03  0.36899757415E+03  0.00000000000E+00 0. -1.
</event>
<event>
 7    1  0.6888431E-006  0.8709457E+02  0.7818608E-02  0.1445415E+00
          2   -1    0    0  502    0  0.00000000000E+00  0.00000000000E+00  0.17672197146E+04  0.17672197146E+04  0.00000000000E+00 0. -1.
          1   -1    0    0  501    0 -0.00000000000E+00 -0.00000000000E+00 -0.16002971395E+04  0.16002971395E+04  0.00000000000E+00 0. -1.
         25    2    1    2    0    0 -0.67857481974E+02 -0.40952605479E+02  0.16171265835E+02  0.14889000114E+03  0.12499987538E+03 0.  0.
          2    1    1    2  501    0 -0.17518243817E+02  0.22718987834E+02 -0.15326724522E+04  0.15329409274E+04  0.00000000000E+00 0. -1.
          1    1    1    2  502    0  0.85375725791E+02  0.18233617645E+02  0.16834237614E+04  0.16856859256E+04  0.00000000000E+00 0. -1.
         22    1    3    3    0    0 -0.46286308896E+02  0.28072159364E+02 -0.31159656227E+02  0.62461129503E+02  0.00000000000E+00 0.  1.
         22    1    3    3    0    0 -0.21571173077E+02 -0.69024764843E+02  0.47330922062E+02  0.86428871639E+02  0.00000000000E+00 0.  1.
</event>
<event>
 7    1  0.6888431E-006  0.5366640E+02  0.7818608E-02  0.1525193E+00
          2   -1    0    0  502    0  0.00000000000E+00  0.00000000000E+00  0.26380202267E+03  0.26380202267E+03  0.00000000000E+00 0. -1.
          1   -1    0    0  501    0 -0.00000000000E+00 -0.00000000000E+00 -0.18719974158E+03  0.18719974158E+03  0.00000000000E+00 0. -1.
         25    2    1    2    0    0 -0.53232504525E+01  0.29436787372E+02  0.41658128043E+02  0.13511872249E+03  0.12500723215E+03 0.  0.
          2    1    1    2  501    0  0.25955824771E+01  0.26473058474E+02 -0.13466947150E+03  0.13727136055E+03  0.00000000000E+00 0. -1.
          1    1    1    2  502    0  0.27276679754E+01 -0.55909845846E+02  0.16961362455E+03  0.17861168121E+03  0.00000000000E+00 0. -1.
         22    1    3    3    0    0 -0.58976307348E+02  0.41202363329E+02  0.34295356623E+02  0.79699504755E+02  0.00000000000E+00 0.  1.
         22    1    3    3    0    0  0.53653056896E+02 -0.11765575957E+02  0.73627714198E+01  0.55419217739E+02  0.00000000000E+00 0.  1.
</event>
<event>
 7    1  0.6888431E-006  0.5118644E+02  0.7818608E-02  0.1490867E+00
          2   -1    0    0  502    0  0.00000000000E+00  0.00000000000E+00  0.19110300923E+04  0.19110300923E+04  0.00000000000E+00 0. -1.
          1   -1    0    0  501    0 -0.00000000000E+00 -0.00000000000E+00 -0.62287171798E+03  0.62287171798E+03  0.00000000000E+00 0. -1.
         25    2    1    2    0    0 -0.56842433565E+01 -0.67457073895E+02  0.65744764867E+03  0.67264073097E+03  0.12500149913E+03 0.  0.
          2    1    1    2  501    0 -0.22291509867E+02  0.46064964899E+02 -0.61396156667E+03  0.61609065709E+03  0.00000000000E+00 0. -1.
          1    1    1    2  502    0  0.27975753223E+02  0.21392108996E+02  0.12446722923E+04  0.12451704222E+04  0.00000000000E+00 0. -1.
         22    1    3    3    0    0 -0.63381853004E+02 -0.49780344309E+02  0.33168176509E+03  0.34133288043E+03  0.00000000000E+00 0. -1.
         22    1    3    3    0    0  0.57697609648E+02 -0.17676729585E+02  0.32576588357E+03  0.33130785054E+03  0.00000000000E+00 0. -1.
</event>
<event>
 7    1  0.6888431E-006  0.6925782E+02  0.7818608E-02  0.1365669E+00
          2   -1    0    0  502    0  0.00000000000E+00  0.00000000000E+00  0.69906151907E+03  0.69906151907E+03  0.00000000000E+00 0. -1.
          1   -1    0    0  501    0 -0.00000000000E+00 -0.00000000000E+00 -0.25620634597E+04  0.25620634597E+04  0.00000000000E+00 0. -1.
         25    2    1    2    0    0 -0.22925073373E+02 -0.94485070401E+02 -0.37949488958E+03  0.41121147286E+03  0.12500206671E+03 0.  0.
          2    1    1    2  501    0  0.57914844872E+02  0.34720176342E+02 -0.21644273841E+04  0.21654804365E+04  0.00000000000E+00 0. -1.
          1    1    1    2  502    0 -0.34989771499E+02  0.59764894059E+02  0.68092033299E+03  0.68443306945E+03  0.00000000000E+00 0. -1.
         22    1    3    3    0    0  0.48448731273E+02 -0.14993139818E+02 -0.10338781029E+03  0.11515690652E+03  0.00000000000E+00 0.  1.
         22    1    3    3    0    0 -0.71373804646E+02 -0.79491930583E+02 -0.27610707929E+03  0.29605456634E+03  0.00000000000E+00 0.  1.
</event>
<event>
 7    1  0.6888431E-006  0.1061573E+03  0.7818608E-02  0.1337393E+00
          2   -1    0    0  502    0  0.00000000000E+00  0.00000000000E+00  0.39962781342E+03  0.39962781342E+03  0.00000000000E+00 0. -1.
          1   -1    0    0  501    0 -0.00000000000E+00 -0.00000000000E+00 -0.15753101578E+04  0.15753101578E+04  0.00000000000E+00 0. -1.
         25    2    1    2    0    0 -0.44987862203E+02 -0.15453536993E+03 -0.32495376247E+02  0.20636560989E+03  0.12500290861E+03 0.  0.
          2    1    1    2  501    0  0.27400144621E+02  0.10132397594E+03 -0.14514581226E+04  0.14552484316E+04  0.00000000000E+00 0. -1.
          1    1    1    2  502    0  0.17587717582E+02  0.53211393990E+02  0.30827115447E+03  0.31332392972E+03  0.00000000000E+00 0. -1.
         22    1    3    3    0    0 -0.16414229375E+02 -0.14007922211E+03 -0.69664497873E+02  0.15730466508E+03  0.00000000000E+00 0. -1.
         22    1    3    3    0    0 -0.28573632828E+02 -0.14456147820E+02  0.37169121626E+02  0.49060944805E+02  0.00000000000E+00 0. -1.
</event>
<event>
 7    1  0.6888431E-006  0.4879642E+02  0.7818608E-02  0.1560985E+00
          2   -1    0    0  502    0  0.00000000000E+00  0.00000000000E+00  0.89036678174E+03  0.89036678174E+03  0.00000000000E+00 0. -1.
          1   -1    0    0  501    0 -0.00000000000E+00 -0.00000000000E+00 -0.96658739730E+02  0.96658739730E+02  0.00000000000E+00 0. -1.
         25    2    1    2    0    0 -0.63210900630E+01 -0.32587753939E+02 -0.85195650017E+01  0.12961126475E+03  0.12499831629E+03 0.  0.
          2    1    1    2  501    0 -0.21984605373E+02 -0.73992497394E+01 -0.21858809465E+02  0.31872861832E+02  0.00000000000E+00 0. -1.
          1    1    1    2  502    0  0.28305695436E+02  0.39987003679E+02  0.82408641647E+03  0.82554139489E+03  0.00000000000E+00 0. -1.
         22    1    3    3    0    0  0.10149325852E+02 -0.78270197113E+02 -0.15846932653E+02  0.80500669847E+02  0.00000000000E+00 0. -1.
         22    1    3    3    0    0 -0.16470415915E+02  0.45682443174E+02  0.73273676514E+01  0.49110594900E+02  0.00000000000E+00 0. -1.
</event>
<event>
 7    1  0.6888431E-006  0.1762210E+03  0.7818608E-02  0.1355206E+00
          2   -1    0    0  502    0  0.00000000000E+00  0.00000000000E+00  0.96799355018E+03  0.96799355018E+03  0.00000000000E+00 0. -1.
          1   -1    0    0  501    0 -0.00000000000E+00 -0.00000000000E+00 -0.69043963523E+03  0.69043963523E+03  0.00000000000E+00 0. -1.
         25    2    1    2    0    0  0.18754681076E+03  0.25359279074E+01  0.17696069377E+03  0.28656349280E+03  0.12499324426E+03 0.  0.
          2    1    1    2  501    0 -0.15290949447E+02  0.24612777931E+02 -0.62497190775E+03  0.62564325893E+03  0.00000000000E+00 0. -1.
          1    1    1    2  502    0 -0.17225586132E+03 -0.27148705838E+02  0.72556512893E+03  0.74622643367E+03  0.00000000000E+00 0. -1.
         22    1    3    3    0    0  0.20268434719E+02  0.45862530461E+02  0.23156600490E+02  0.55230510522E+02  0.00000000000E+00 0. -1.
         22    1    3    3    0    0  0.16727837605E+03 -0.43326602554E+02  0.15380409328E+03  0.23133298228E+03  0.00000000000E+00 0. -1.
</event>
<event>
 7    1  0.6888431E-006  0.2035216E+03  0.7818608E-02  0.1224657E+00
          2   -1    0    0  502    0  0.00000000000E+00  0.00000000000E+00  0.65120601247E+03  0.65120601247E+03  0.00000000000E+00 0. -1.
          1   -1    0    0  501    0 -0.00000000000E+00 -0.00000000000E+00 -0.29847594267E+03  0.29847594267E+03  0.00000000000E+00 0. -1.
         25    2    1    2    0    0 -0.26007500207E+03 -0.79087658641E+02  0.18142122878E+02  0.29974584365E+03  0.12499827884E+03 0.  0.
          2    1    1    2  501    0  0.67569570207E+02  0.52370164454E+02 -0.12471737111E+03  0.15120417852E+03  0.00000000000E+00 0. -1.
          1    1    1    2  502    0  0.19250543186E+03  0.26717494187E+02  0.45930531803E+03  0.49873193297E+03  0.00000000000E+00 0. -1.
         22    1    3    3    0    0 -0.21460677346E+03 -0.10924992176E+03 -0.40344890373E+01  0.24084827116E+03  0.00000000000E+00 0. -1.
         22    1    3    3    0    0 -0.45468228607E+02  0.30162263118E+02  0.22176611915E+02  0.58897572489E+02  0.00000000000E+00 0. -1.
</event>
<event>
 7    1  0.6888431E-006  0.1692557E+03  0.7818608E-02  0.1400929E+00
          2   -1    0    0  502    0  0.00000000000E+00  0.00000000000E+00  0.17288556455E+04  0.17288556455E+04  0.00000000000E+00 0. -1.
          1   -1    0    0  501    0 -0.00000000000E+00 -0.00000000000E+00 -0.18621214981E+03  0.18621214981E+03  0.00000000000E+00 0. -1.
         25    2    1    2    0    0  0.35873009886E+02  0.17761139282E+03  0.13355786558E+03  0.25747947043E+03  0.12500117815E+03 0.  0.
          2    1    1    2  501    0 -0.46000827905E+02 -0.15949650719E+03 -0.68703472713E+02  0.17965349742E+03  0.00000000000E+00 0. -1.
          1    1    1    2  502    0  0.10127818018E+02 -0.18114885637E+02  0.14777891028E+04  0.14779348274E+04  0.00000000000E+00 0. -1.
         22    1    3    3    0    0 -0.28989709035E+02  0.13900972208E+03  0.67726573249E+02  0.15732448883E+03  0.00000000000E+00 0.  1.
         22    1    3    3    0    0  0.64862718922E+02  0.38601670747E+02  0.65831292327E+02  0.10015498160E+03  0.00000000000E+00 0.  1.
</event>
<event>
 7    1  0.6888431E-006  0.9468894E+02  0.7818608E-02  0.1468244E+00
          2   -1    0    0  502    0  0.00000000000E+00  0.00000000000E+00  0.28825037469E+04  0.28825037469E+04  0.00000000000E+00 0. -1.
          1   -1    0    0  501    0 -0.00000000000E+00 -0.00000000000E+00 -0.11165610163E+02  0.11165610163E+02  0.00000000000E+00 0. -1.
         25    2    1    2    0    0  0.51656637236E+02 -0.69407650515E+02  0.68095274885E+03  0.69771620021E+03  0.12500167898E+03 0.  0.
          2    1    1    2  501    0 -0.70448343469E+02  0.81486395026E+02  0.10832595045E+04  0.10886019271E+04  0.00000000000E+00 0. -1.
          1    1    1    2  502    0  0.18791706232E+02 -0.12078744511E+02  0.11071258835E+04  0.11073512298E+04  0.00000000000E+00 0. -1.
         22    1    3    3    0    0 -0.28526583570E+02 -0.22988909147E+02  0.63176080511E+02  0.73030630989E+02  0.00000000000E+00 0.  1.
         22    1    3    3    0    0  0.80183220806E+02 -0.46418741368E+02  0.61777666833E+03  0.62468556922E+03  0.00000000000E+00 0.  1.
</event>
<event>
 7    1  0.6888431E-006  0.9465097E+02  0.7818608E-02  0.1342241E+00
          2   -1    0    0  502    0  0.00000000000E+00  0.00000000000E+00  0.38018878058E+04  0.38018878058E+04  0.00000000000E+00 0. -1.
          1   -1    0    0  501    0 -0.00000000000E+00 -0.00000000000E+00 -0.23346077632E+02  0.23346077632E+02  0.00000000000E+00 0. -1.
         25    2    1    2    0    0  0.14651627745E+03 -0.30098106204E+02  0.11760381769E+04  0.11920836297E+04  0.12499868430E+03 0.  0.
          2    1    1    2  501    0 -0.59134415038E+02  0.11645463818E+02  0.47900907317E+02  0.76986965073E+02  0.00000000000E+00 0. -1.
          1    1    1    2  502    0 -0.87381862415E+02  0.18452642386E+02  0.25546026440E+04  0.25561632887E+04  0.00000000000E+00 0. -1.
         22    1    3    3    0    0  0.81920775491E+02 -0.65199945547E+02  0.43565728299E+03  0.44806173077E+03  0.00000000000E+00 0. -1.
         22    1    3    3    0    0  0.64595501962E+02  0.35101839343E+02  0.74038089388E+03  0.74402189889E+03  0.00000000000E+00 0. -1.
</event>
<event>
 7    1  0.6888431E-006  0.1341379E+03  0.7818608E-02  0.1286966E+00
          2   -1    0    0  502    0  0.00000000000E+00  0.00000000000E+00  0.41154834026E+03  0.41154834026E+03  0.00000000000E+00 0. -1.
          1   -1    0    0  501    0 -0.00000000000E+00 -0.00000000000E+00 -0.89116972737E+03  0.89116972737E+03  0.00000000000E+00 0. -1.
         25    2    1    2    0    0  0.14328634295E+03 -0.98788043660E+01 -0.16573415072E+03  0.25242990483E+03  0.12499792513E+03 0.  0.
          2    1    1    2  501    0 -0.12247062936E+03 -0.56945830847E+02 -0.67198025188E+03  0.68541909925E+03  0.00000000000E+00 0. -1.
          1    1    1    2  502    0 -0.20815713586E+02  0.66824635213E+02  0.35809301548E+03  0.36486906355E+03  0.00000000000E+00 0. -1.
         22    1    3    3    0    0  0.85616894623E+02 -0.36554239674E+02 -0.22558223305E+02  0.95787987356E+02  0.00000000000E+00 0.  1.
         22    1    3    3    0    0  0.57669448328E+02  0.26675435308E+02 -0.14317592741E+03  0.15664191747E+03  0.00000000000E+00 0.  1.
</event>
<event>
 7    1  0.6888431E-006  0.6260077E+02  0.7818608E-02  0.1413459E+00
          2   -1    0    0  502    0  0.00000000000E+00  0.00000000000E+00  0.12340348293E+04  0.12340348293E+04  0.00000000000E+00 0. -1.
          1   -1    0    0  501    0 -0.00000000000E+00 -0.00000000000E+00 -0.14317466744E+02  0.14317466744E+02  0.00000000000E+00 0. -1.
         25    2    1    2    0    0  0.33401525338E+02 -0.78618709877E+00  0.65266035793E+03  0.66536194545E+03  0.12499878264E+03 0.  0.
          2    1    1    2  501    0  0.50614166416E+02  0.50522201617E+01  0.19299077730E+03  0.19958145930E+03  0.00000000000E+00 0. -1.
          1    1    1    2  502    0 -0.84015691755E+02 -0.42660330629E+01  0.37406622732E+03  0.38340889129E+03  0.00000000000E+00 0. -1.
         22    1    3    3    0    0 -0.17186593680E+02  0.50162972109E+02  0.19400613368E+03  0.20112205916E+03  0.00000000000E+00 0. -1.
         22    1    3    3    0    0  0.50588119018E+02 -0.50949159208E+02  0.45865422425E+03  0.46423988630E+03  0.00000000000E+00 0. -1.
</event>
<event>
 7    1  0.6888431E-006  0.9967474E+02  0.7818608E-02  0.1310181E+00
          2   -1    0    0  502    0  0.00000000000E+00  0.00000000000E+00  0.19748798688E+04  0.19748798688E+04  0.00000000000E+00 0. -1.
          1   -1    0    0  501    0 -0.00000000000E+00 -0.00000000000E+00 -0.18578790076E+02  0.18578790076E+02  0.00000000000E+00 0. -1.
         25    2    1    2    0    0 -0.28099994211E+02 -0.26830078972E+02  0.79383999464E+03  0.80455524205E+03  0.12497094706E+03 0.  0.
          2    1    1    2  501    0 -0.75326906916E+02  0.65275646176E+02  0.24012391748E+03  0.25998951639E+03  0.00000000000E+00 0. -1.
          1    1    1    2  502    0  0.10342690113E+03 -0.38445567204E+02  0.92233716664E+03  0.92891390046E+03  0.00000000000E+00 0. -1.
         22    1    3    3    0    0  0.21175374686E+02  0.31245062616E+02  0.10615696920E+03  0.11266744224E+03  0.00000000000E+00 0. -1.
         22    1    3    3    0    0 -0.49275368897E+02 -0.58075141588E+02  0.68768302544E+03  0.69188779981E+03  0.00000000000E+00 0. -1.
</event>
<event>
 7    1  0.6888431E-006  0.1153291E+03  0.7818608E-02  0.1382566E+00
          2   -1    0    0  502    0  0.00000000000E+00  0.00000000000E+00  0.47018027943E+03  0.47018027943E+03  0.00000000000E+00 0. -1.
          1   -1    0    0  501    0 -0.00000000000E+00 -0.00000000000E+00 -0.49845314979E+03  0.49845314979E+03  0.00000000000E+00 0. -1.
         25    2    1    2    0    0  0.96597869221E+02 -0.53756714201E+02 -0.38994266743E+02  0.17137994853E+03  0.12501840368E+03 0.  0.
          2    1    1    2  501    0 -0.17111573211E+02 -0.30861219114E+02 -0.38409976309E+03  0.38571731720E+03  0.00000000000E+00 0. -1.
          1    1    1    2  502    0 -0.79486296010E+02  0.84617933315E+02  0.39482115948E+03  0.41153616349E+03  0.00000000000E+00 0. -1.
         22    1    3    3    0    0  0.10561195971E+03 -0.18406348515E+02  0.12866212821E+02  0.10797323341E+03  0.00000000000E+00 0. -1.
         22    1    3    3    0    0 -0.90140904929E+01 -0.35350365686E+02 -0.51860479564E+02  0.63406715119E+02  0.00000000000E+00 0. -1.
</event>
<event>
 7    1  0.6888431E-006  0.1040137E+03  0.7818608E-02  0.1447858E+00
          2   -1    0    0  502    0  0.00000000000E+00  0.00000000000E+00  0.12969985838E+04  0.12969985838E+04  0.00000000000E+00 0. -1.
          1   -1    0    0  501    0 -0.00000000000E+00 -0.00000000000E+00 -0.58648314221E+02  0.58648314221E+02  0.00000000000E+00 0. -1.
         25    2    1    2    0    0 -0.10225631225E+03  0.58457002287E+02  0.40674196103E+03  0.44151764952E+03  0.12500094988E+03 0.  0.
          2    1    1    2  501    0  0.79392550844E+02 -0.64272025688E+02  0.22396693760E+02  0.10457381272E+03  0.00000000000E+00 0. -1.
          1    1    1    2  502    0  0.22863761405E+02  0.58150234013E+01  0.80921161484E+03  0.80955543582E+03  0.00000000000E+00 0. -1.
         22    1    3    3    0    0 -0.95428433282E+01  0.47534250500E+01  0.25791177318E+03  0.25813202757E+03  0.00000000000E+00 0. -1.
         22    1    3    3    0    0 -0.92713468921E+02  0.53703577237E+02  0.14883018784E+03  0.18338562196E+03  0.00000000000E+00 0. -1.
</event>
<event>
 7    1  0.6888431E-006  0.1197627E+03  0.7818608E-02  0.1336464E+00
          2   -1    0    0  502    0  0.00000000000E+00  0.00000000000E+00  0.17687960496E+03  0.17687960496E+03  0.00000000000E+00 0. -1.
          1   -1    0    0  501    0 -0.00000000000E+00 -0.00000000000E+00 -0.98630646202E+03  0.98630646202E+03  0.00000000000E+00 0. -1.
         25    2    1    2    0    0  0.31346513029E+02 -0.15903359751E+03 -0.92614780297E+02  0.22467309644E+03  0.12500485478E+03 0.  0.
          2    1    1    2  501    0 -0.12661382449E+02  0.48452514711E+02 -0.79831019852E+03  0.79987944708E+03  0.00000000000E+00 0. -1.
          1    1    1    2  502    0 -0.18685130580E+02  0.11058108280E+03  0.81498121757E+02  0.13863352346E+03  0.00000000000E+00 0. -1.
         22    1    3    3    0    0 -0.39659007817E+02 -0.44914352248E+02  0.25751239003E+01  0.59973053966E+02  0.00000000000E+00 0. -1.
         22    1    3    3    0    0  0.71005520846E+02 -0.11411924526E+03 -0.95189904197E+02  0.16470004247E+03  0.00000000000E+00 0. -1.
</event>
<event>
 7    1  0.6888431E-006  0.3566435E+02  0.7818608E-02  0.1568533E+00
          2   -1    0    0  502    0  0.00000000000E+00  0.00000000000E+00  0.53897978693E+03  0.53897978693E+03  0.00000000000E+00 0. -1.
          1   -1    0    0  501    0 -0.00000000000E+00 -0.00000000000E+00 -0.49526241097E+03  0.49526241097E+03  0.00000000000E+00 0. -1.
         25    2    1    2    0    0 -0.44397191429E+02  0.48301752080E+02 -0.52756844976E+02  0.15070727923E+03  0.12500091783E+03 0.  0.
          2    1    1    2  501    0  0.21968953233E+02 -0.20815210419E+02 -0.39230467464E+03  0.39347028558E+03  0.00000000000E+00 0. -1.
          1    1    1    2  502    0  0.22428238196E+02 -0.27486541661E+02  0.48877889558E+03  0.49006463309E+03  0.00000000000E+00 0. -1.
         22    1    3    3    0    0 -0.70171367610E+02  0.21922709211E+02  0.13625309854E+02  0.74768142147E+02  0.00000000000E+00 0. -1.
         22    1    3    3    0    0  0.25774176182E+02  0.26379042869E+02 -0.66382154830E+02  0.75939137079E+02  0.00000000000E+00 0. -1.
</event>
<event>
 7    1  0.6888431E-006  0.5400837E+02  0.7818608E-02  0.1426724E+00
          2   -1    0    0  502    0  0.00000000000E+00  0.00000000000E+00  0.21304526391E+03  0.21304526391E+03  0.00000000000E+00 0. -1.
          1   -1    0    0  501    0 -0.00000000000E+00 -0.00000000000E+00 -0.17406920419E+03  0.17406920419E+03  0.00000000000E+00 0. -1.
         25    2    1    2    0    0  0.20630117926E+02 -0.16109462913E+02  0.19653477512E+02  0.12921271731E+03  0.12499820229E+03 0.  0.
          2    1    1    2  501    0  0.13925812568E+02  0.56612153877E+02 -0.10642522090E+03  0.12134740156E+03  0.00000000000E+00 0. -1.
          1    1    1    2  502    0 -0.34555930494E+02 -0.40502690964E+02  0.12574780310E+03  0.13655434922E+03  0.00000000000E+00 0. -1.
         22    1    3    3    0    0  0.67498223914E+02  0.51247169231E+01  0.34062279995E+02  0.75779363111E+02  0.00000000000E+00 0.  1.
         22    1    3    3    0    0 -0.46868105988E+02 -0.21234179836E+02 -0.14408802482E+02  0.53433354201E+02  0.00000000000E+00 0.  1.
</event>
<event>
 7    1  0.6888431E-006  0.1359242E+03  0.7818608E-02  0.1325999E+00
          2   -1    0    0  502    0  0.00000000000E+00  0.00000000000E+00  0.13586763568E+04  0.13586763568E+04  0.00000000000E+00 0. -1.
          1   -1    0    0  501    0 -0.00000000000E+00 -0.00000000000E+00 -0.20716271909E+03  0.20716271909E+03  0.00000000000E+00 0. -1.
         25    2    1    2    0    0 -0.16930211538E+03  0.72977715335E+01  0.76443253559E+02  0.22401828037E+03  0.12499662069E+03 0.  0.
          2    1    1    2  501    0  0.12809784650E+03  0.18039961638E+02 -0.10139355101E+03  0.16436286283E+03  0.00000000000E+00 0. -1.
          1    1    1    2  502    0  0.41204268884E+02 -0.25337733171E+02  0.11764639351E+04  0.11774579327E+04  0.00000000000E+00 0. -1.
         22    1    3    3    0    0 -0.81057964780E+02  0.58569088994E+02  0.69384707966E+02  0.12171675948E+03  0.00000000000E+00 0. -1.
         22    1    3    3    0    0 -0.88244150599E+02 -0.51271317460E+02  0.70585455923E+01  0.10230152088E+03  0.00000000000E+00 0. -1.
</event>
<event>
 7    1  0.6888431E-006  0.6918471E+02  0.7818608E-02  0.1461394E+00
          2   -1    0    0  502    0  0.00000000000E+00  0.00000000000E+00  0.10674256770E+04  0.10674256770E+04  0.00000000000E+00 0. -1.
          1   -1    0    0  501    0 -0.00000000000E+00 -0.00000000000E+00 -0.15918066466E+04  0.15918066466E+04  0.00000000000E+00 0. -1.
         25    2    1    2    0    0  0.85187844872E+02 -0.99044201642E+01  0.27763290463E+03  0.31632489160E+03  0.12500536331E+03 0.  0.
          2    1    1    2  501    0 -0.67120570151E+02 -0.16655652549E+02 -0.15713649679E+04  0.15728860238E+04  0.00000000000E+00 0. -1.
          1    1    1    2  502    0 -0.18067274722E+02  0.26560072713E+02  0.76935109361E+03  0.77002140822E+03  0.00000000000E+00 0. -1.
         22    1    3    3    0    0  0.28177337173E+02 -0.64716451627E+02  0.15622195918E+03  0.17142777479E+03  0.00000000000E+00 0. -1.
         22    1    3    3    0    0  0.57010507699E+02  0.54812031463E+02  0.12141094545E+03  0.14489711680E+03  0.00000000000E+00 0. -1.
</event>
<event>
 7    1  0.6888431E-006  0.2244279E+03  0.7818608E-02  0.1190429E+00
          2   -1    0    0  502    0  0.00000000000E+00  0.00000000000E+00  0.14631080334E+04  0.14631080334E+04  0.00000000000E+00 0. -1.
          1   -1    0    0  501    0 -0.00000000000E+00 -0.00000000000E+00 -0.99976999958E+03  0.99976999958E+03  0.00000000000E+00 0. -1.
         25    2    1    2    0    0 -0.81484733094E+02  0.82808918162E+02 -0.77605522374E+03  0.79459693280E+03  0.12500198666E+03 0.  0.
          2    1    1    2  501    0 -0.98108646753E+02  0.53825989399E+02 -0.19036737289E+03  0.22082182945E+03  0.00000000000E+00 0. -1.
          1    1    1    2  502    0  0.17959337985E+03 -0.13663490756E+03  0.14297606305E+04  0.14474592707E+04  0.00000000000E+00 0. -1.
         22    1    3    3    0    0 -0.30637716949E+02  0.71697933202E+02 -0.17858085063E+03  0.19485990747E+03  0.00000000000E+00 0.  1.
         22    1    3    3    0    0 -0.50847016145E+02  0.11110984960E+02 -0.59747437311E+03  0.59973702533E+03  0.00000000000E+00 0.  1.
</event>
<event>
 7    1  0.6888431E-006  0.1479159E+03  0.7818608E-02  0.1356041E+00
          2   -1    0    0  502    0  0.00000000000E+00  0.00000000000E+00  0.84755974293E+03  0.84755974293E+03  0.00000000000E+00 0. -1.
          1   -1    0    0  501    0 -0.00000000000E+00 -0.00000000000E+00 -0.70716331559E+03  0.70716331559E+03  0.00000000000E+00 0. -1.
         25    2    1    2    0    0  0.70183115189E+02 -0.11463135088E+03 -0.31058769560E+03  0.36077165646E+03  0.12500182072E+03 0.  0.
          2    1    1    2  501    0 -0.22598036895E+02 -0.25774023244E+02 -0.36399136126E+03  0.36560180882E+03  0.00000000000E+00 0. -1.
          1    1    1    2  502    0 -0.47585078294E+02  0.14040537412E+03  0.81497548420E+03  0.82834959323E+03  0.00000000000E+00 0. -1.
         22    1    3    3    0    0  0.89901537025E+02 -0.12604802675E+03 -0.23175872146E+03  0.27871579858E+03  0.00000000000E+00 0. -1.
         22    1    3    3    0    0 -0.19718421837E+02  0.11416675871E+02 -0.78828974145E+02  0.82055857880E+02  0.00000000000E+00 0. -1.
</event>
<event>
 7    1  0.6888431E-006  0.4040461E+02  0.7818608E-02  0.1517129E+00
          2   -1    0    0  502    0  0.00000000000E+00  0.00000000000E+00  0.26408140689E+04  0.26408140689E+04  0.00000000000E+00 0. -1.
          1   -1    0    0  501    0 -0.00000000000E+00 -0.00000000000E+00 -0.20579232556E+03  0.20579232556E+03  0.00000000000E+00 0. -1.
         25    2    1    2    0    0  0.18415132617E+02 -0.51380819603E+02 -0.44021365610E+02  0.14332459121E+03  0.12499980833E+03 0.  0.
          2    1    1    2  501    0 -0.34438531609E+02  0.14288328533E+02 -0.10885752338E+03  0.11506576028E+03  0.00000000000E+00 0. -1.
          1    1    1    2  502    0  0.16023398992E+02  0.37092491070E+02  0.25879006323E+04  0.25882160430E+04  0.00000000000E+00 0. -1.
         22    1    3    3    0    0  0.12639557384E+02 -0.87363494770E+02 -0.56497321604E+02  0.10480499023E+03  0.00000000000E+00 0.  1.
         22    1    3    3    0    0  0.57755752330E+01  0.35982675167E+02  0.12475955994E+02  0.38519600977E+02  0.00000000000E+00 0.  1.
</event>
<event>
 7    1  0.6888431E-006  0.2820037E+02  0.7818608E-02  0.1636739E+00
          2   -1    0    0  502    0  0.00000000000E+00  0.00000000000E+00  0.18391922018E+03  0.18391922018E+03  0.00000000000E+00 0. -1.
          1   -1    0    0  501    0 -0.00000000000E+00 -0.00000000000E+00 -0.25804680462E+03  0.25804680462E+03  0.00000000000E+00 0. -1.
         25    2    1    2    0    0 -0.17144813909E+02  0.28626719757E+02 -0.10637665691E+03  0.16749605740E+03  0.12500200950E+03 0.  0.
          2    1    1    2  501    0  0.25372056343E+02 -0.15959840945E+01 -0.11844875767E+03  0.12114617865E+03  0.00000000000E+00 0. -1.
          1    1    1    2  502    0 -0.82272424343E+01 -0.27030735663E+02  0.15069783014E+03  0.15332378875E+03  0.00000000000E+00 0. -1.
         22    1    3    3    0    0 -0.26748070218E+02  0.28033292720E+02 -0.13334623029E+03  0.13886159258E+03  0.00000000000E+00 0.  1.
         22    1    3    3    0    0  0.96032563095E+01  0.59342703687E+00  0.26969573377E+02  0.28634464820E+02  0.00000000000E+00 0.  1.
</event>
<event>
 7    1  0.6888431E-006  0.8829325E+02  0.7818608E-02  0.1383898E+00
          2   -1    0    0  502    0  0.00000000000E+00  0.00000000000E+00  0.77749083065E+03  0.77749083065E+03  0.00000000000E+00 0. -1.
          1   -1    0    0  501    0 -0.00000000000E+00 -0.00000000000E+00 -0.36073186520E+03  0.36073186520E+03  0.00000000000E+00 0. -1.
         25    2    1    2    0    0  0.28170722793E+02 -0.49456431707E+02 -0.17043622765E+02  0.13840431299E+03  0.12500296204E+03 0.  0.
          2    1    1    2  501    0 -0.21970176352E+02 -0.39955107294E+02 -0.27834400649E+03  0.28205404658E+03  0.00000000000E+00 0. -1.
          1    1    1    2  502    0 -0.62005464407E+01  0.89411539000E+02  0.71214659470E+03  0.71776433628E+03  0.00000000000E+00 0. -1.
         22    1    3    3    0    0 -0.18996446040E+02 -0.27600116044E+02  0.45862452218E+02  0.56797851115E+02  0.00000000000E+00 0. -1.
         22    1    3    3    0    0  0.47167168833E+02 -0.21856315663E+02 -0.62906074983E+02  0.81606461876E+02  0.00000000000E+00 0. -1.
</event>
<event>
 7    1  0.6888431E-006  0.2389298E+03  0.7818608E-02  0.1171394E+00
          2   -1    0    0  502    0  0.00000000000E+00  0.00000000000E+00  0.20843686308E+04  0.20843686308E+04  0.00000000000E+00 0. -1.
          1   -1    0    0  501    0 -0.00000000000E+00 -0.00000000000E+00 -0.83618635901E+03  0.83618635901E+03  0.00000000000E+00 0. -1.
         25    2    1    2    0    0 -0.19333336131E+03 -0.78835921669E+02  0.69682471810E+03  0.73809415079E+03  0.12500158612E+03 0.  0.
          2    1    1    2  501    0  0.13827013199E+03  0.19675743341E+03 -0.79461661387E+03  0.83020941939E+03  0.00000000000E+00 0. -1.
          1    1    1    2  502    0  0.55063229323E+02 -0.11792151174E+03  0.13459741676E+04  0.13522514197E+04  0.00000000000E+00 0. -1.
         22    1    3    3    0    0 -0.76895419943E+02 -0.25816914441E+02  0.10544988501E+03  0.13303795296E+03  0.00000000000E+00 0. -1.
         22    1    3    3    0    0 -0.11643794137E+03 -0.53019007228E+02  0.59137483309E+03  0.60505619782E+03  0.00000000000E+00 0. -1.
</event>
<event>
 7    1  0.1589617E-005  0.6790495E+02  0.7818608E-02  0.1373993E+00
          2   -1    0    0  502    0  0.00000000000E+00  0.00000000000E+00  0.11449875582E+04  0.11449875582E+04  0.00000000000E+00 0. -1.
          1   -1    0    0  501    0 -0.00000000000E+00 -0.00000000000E+00 -0.18671284707E+04  0.18671284707E+04  0.00000000000E+00 0. -1.
         25    2    1    2    0    0 -0.93224321965E+01  0.12504116428E+01 -0.68343723425E+03  0.69483835732E+03  0.12500167347E+03 0.  0.
          2    1    1    2  501    0  0.73286048461E+02  0.21547354249E+02 -0.11757383063E+04  0.11782171694E+04  0.00000000000E+00 0. -1.
          1    1    1    2  502    0 -0.63963616265E+02 -0.22797765892E+02  0.11370346281E+04  0.11390605022E+04  0.00000000000E+00 0. -1.
         22    1    3    3    0    0 -0.26397224468E+02 -0.26884596948E+02 -0.62141719536E+02  0.72671784893E+02  0.00000000000E+00 0.  1.
         22    1    3    3    0    0  0.17074792272E+02  0.28135008591E+02 -0.62129551472E+03  0.62216657243E+03  0.00000000000E+00 0.  1.
</event>
<event>
 7    1  0.6888431E-006  0.1520041E+03  0.7818608E-02  0.1280159E+00
          2   -1    0    0  502    0  0.00000000000E+00  0.00000000000E+00  0.10548086091E+04  0.10548086091E+04  0.00000000000E+00 0. -1.
          1   -1    0    0  501    0 -0.00000000000E+00 -0.00000000000E+00 -0.34362786336E+04  0.34362786336E+04  0.00000000000E+00 0. -1.
         25    2    1    2    0    0 -0.14230621954E+03 -0.18358390356E+02  0.49111671724E+03  0.52669619886E+03  0.12500066127E+03 0.  0.
          2    1    1    2  501    0  0.12769756580E+03  0.82591363722E+02 -0.34148031259E+04  0.34181878811E+04  0.00000000000E+00 0. -1.
          1    1    1    2  502    0  0.14608653739E+02 -0.64232973366E+02  0.54221638418E+03  0.54620316267E+03  0.00000000000E+00 0. -1.
         22    1    3    3    0    0 -0.13621442721E+03 -0.29412378901E+02  0.49439225310E+03  0.51365665394E+03  0.00000000000E+00 0. -1.
         22    1    3    3    0    0 -0.60917923324E+01  0.11053988545E+02 -0.32755358536E+01  0.13039544919E+02  0.00000000000E+00 0. -1.
</event>
<event>
 7    1  0.6888431E-006  0.5296577E+02  0.7818608E-02  0.1499773E+00
          2   -1    0    0  502    0  0.00000000000E+00  0.00000000000E+00  0.40723731038E+03  0.40723731038E+03  0.00000000000E+00 0. -1.
          1   -1    0    0  501    0 -0.00000000000E+00 -0.00000000000E+00 -0.52077432559E+03  0.52077432559E+03  0.00000000000E+00 0. -1.
         25    2    1    2    0    0 -0.34231652446E+02  0.27760959628E+02 -0.17233821676E+03  0.21741132606E+03  0.12499898734E+03 0.  0.
          2    1    1    2  501    0  0.14264449900E+02 -0.52768942995E+02 -0.32293318380E+03  0.32752691046E+03  0.00000000000E+00 0. -1.
          1    1    1    2  502    0  0.19967202546E+02  0.25007983368E+02  0.38173438534E+03  0.38307339945E+03  0.00000000000E+00 0. -1.
         22    1    3    3    0    0 -0.38179783177E+02 -0.43789108963E+02 -0.55481592679E+02  0.80332988451E+02  0.00000000000E+00 0. -1.
         22    1    3    3    0    0  0.39481307313E+01  0.71550068590E+02 -0.11685662408E+03  0.13707833761E+03  0.00000000000E+00 0. -1.
</event>
<event>
 7    1  0.6888431E-006  0.6421878E+02  0.7818608E-02  0.1393268E+00
          2   -1    0    0  502    0  0.00000000000E+00  0.00000000000E+00  0.18093226877E+03  0.18093226877E+03  0.00000000000E+00 0. -1.
          1   -1    0    0  501    0 -0.00000000000E+00 -0.00000000000E+00 -0.12302776435E+04  0.12302776435E+04  0.00000000000E+00 0. -1.
         25    2    1    2    0    0 -0.61707592044E+02 -0.91682778824E+01 -0.81368185762E+03  0.82558701690E+03  0.12499549123E+03 0.  0.
          2    1    1    2  501    0  0.32456406271E+02 -0.48231073094E+02 -0.40255382568E+03  0.40672993164E+03  0.00000000000E+00 0. -1.
          1    1    1    2  502    0  0.29251185773E+02  0.57399350976E+02  0.16689030859E+03  0.17889296371E+03  0.00000000000E+00 0. -1.
         22    1    3    3    0    0 -0.53922681402E+02  0.45378570112E+02 -0.62686017730E+03  0.63080944197E+03  0.00000000000E+00 0. -1.
         22    1    3    3    0    0 -0.77849106420E+01 -0.54546847995E+02 -0.18682168032E+03  0.19477757494E+03  0.00000000000E+00 0. -1.
</event>
<event>
 7    1  0.6888431E-006  0.2060165E+03  0.7818608E-02  0.1248399E+00
          2   -1    0    0  502    0  0.00000000000E+00  0.00000000000E+00  0.54947802689E+03  0.54947802689E+03  0.00000000000E+00 0. -1.
          1   -1    0    0  501    0 -0.00000000000E+00 -0.00000000000E+00 -0.28784616458E+03  0.28784616458E+03  0.00000000000E+00 0. -1.
         25    2    1    2    0    0 -0.14997515914E+03 -0.21220367416E+03  0.67930873054E+02  0.29626936827E+03  0.12505193871E+03 0.  0.
          2    1    1    2  501    0  0.35058989330E+02  0.56233345604E+02 -0.14017093707E+03  0.15504584318E+03  0.00000000000E+00 0. -1.
          1    1    1    2  502    0  0.11491616981E+03  0.15597032855E+03  0.33387192632E+03  0.38600898002E+03  0.00000000000E+00 0. -1.
         22    1    3    3    0    0  0.13329975815E+02 -0.75918431603E+01 -0.15200795186E+02  0.21596030007E+02  0.00000000000E+00 0. -1.
         22    1    3    3    0    0 -0.16330513495E+03 -0.20461183100E+03  0.83131668240E+02  0.27467333826E+03  0.00000000000E+00 0. -1.
</event>
<event>
 7    1  0.6888431E-006  0.4015045E+02  0.7818608E-02  0.1584194E+00
          2   -1    0    0  502    0  0.00000000000E+00  0.00000000000E+00  0.23408504342E+04  0.23408504342E+04  0.00000000000E+00 0. -1.
          1   -1    0    0  501    0 -0.00000000000E+00 -0.00000000000E+00 -0.14546994852E+02  0.14546994852E+02  0.00000000000E+00 0. -1.
         25    2    1    2    0    0 -0.14374111160E+02 -0.23012149128E+02  0.11951915324E+04  0.12020165172E+04  0.12499893781E+03 0.  0.
          2    1    1    2  501    0  0.15168017073E+02 -0.19104391055E+02  0.31080365059E+01  0.24590778565E+02  0.00000000000E+00 0. -1.
          1    1    1    2  502    0 -0.79390591246E+00  0.42116540184E+02  0.11280038705E+04  0.11287901333E+04  0.00000000000E+00 0. -1.
         22    1    3    3    0    0  0.35285029583E+02  0.54572776023E+01  0.11747842723E+03  0.12278434776E+03  0.00000000000E+00 0.  1.
         22    1    3    3    0    0 -0.49659140743E+02 -0.28469426731E+02  0.10777131052E+04  0.10792321694E+04  0.00000000000E+00 0.  1.
</event>
<event>
 7    1  0.6888431E-006  0.8233641E+02  0.7818608E-02  0.1341181E+00
          2   -1    0    0  502    0  0.00000000000E+00  0.00000000000E+00  0.43240639855E+03  0.43240639855E+03  0.00000000000E+00 0. -1.
          1   -1    0    0  501    0 -0.00000000000E+00 -0.00000000000E+00 -0.17373663565E+04  0.17373663565E+04  0.00000000000E+00 0. -1.
         25    2    1    2    0    0 -0.58761619299E+02  0.61472220943E+01  0.34191983968E+02  0.14240966709E+03  0.12498281990E+03 0.  0.
          2    1    1    2  501    0  0.38929450898E+02 -0.73197512717E+02 -0.16786719104E+04  0.16807179302E+04  0.00000000000E+00 0. -1.
          1    1    1    2  502    0  0.19832168400E+02  0.67050290623E+02  0.33951996852E+03  0.34664515776E+03  0.00000000000E+00 0. -1.
         22    1    3    3    0    0 -0.39679143554E+02 -0.32709038606E+00 -0.45405604049E+02  0.60300997507E+02  0.00000000000E+00 0. -1.
         22    1    3    3    0    0 -0.19082475744E+02  0.64743124804E+01  0.79597588017E+02  0.82108669584E+02  0.00000000000E+00 0. -1.
</event>
<event>
 7    1  0.6888431E-006  0.1029249E+03  0.7818608E-02  0.1320061E+00
          2   -1    0    0  502    0  0.00000000000E+00  0.00000000000E+00  0.24561509703E+04  0.24561509703E+04  0.00000000000E+00 0. -1.
          1   -1    0    0  501    0 -0.00000000000E+00 -0.00000000000E+00 -0.15511454281E+03  0.15511454281E+03  0.00000000000E+00 0. -1.
         25    2    1    2    0    0 -0.93604115545E+02 -0.34474471263E+01  0.75373463610E+03  0.76974956725E+03  0.12499951709E+03 0.  0.
          2    1    1    2  501    0  0.55637535110E+01  0.67113647175E+02 -0.13755725723E+03  0.15315742231E+03  0.00000000000E+00 0. -1.
          1    1    1    2  502    0  0.88040362034E+02 -0.63666200048E+02  0.16848590486E+04  0.16883585236E+04  0.00000000000E+00 0. -1.
         22    1    3    3    0    0  0.18121508338E+02 -0.11408394937E+02  0.27131671356E+02  0.34563971561E+02  0.00000000000E+00 0. -1.
         22    1    3    3    0    0 -0.11172562388E+03  0.79609478107E+01  0.72660296475E+03  0.73518559568E+03  0.00000000000E+00 0. -1.
</event>
<event>
 7    1  0.6888431E-006  0.7183356E+02  0.7818608E-02  0.1388787E+00
          2   -1    0    0  502    0  0.00000000000E+00  0.00000000000E+00  0.25523397272E+04  0.25523397272E+04  0.00000000000E+00 0. -1.
          1   -1    0    0  501    0 -0.00000000000E+00 -0.00000000000E+00 -0.36358674459E+03  0.36358674459E+03  0.00000000000E+00 0. -1.
         25    2    1    2    0    0 -0.31233282536E+02  0.82358012980E+01  0.12981602565E+04  0.13045646843E+04  0.12500247018E+03 0.  0.
          2    1    1    2  501    0  0.36853617201E+02 -0.61816340434E+02 -0.35620400746E+03  0.36340162903E+03  0.00000000000E+00 0. -1.
          1    1    1    2  502    0 -0.56203346652E+01  0.53580539136E+02  0.12467967336E+04  0.12479601585E+04  0.00000000000E+00 0. -1.
         22    1    3    3    0    0 -0.61574664018E+02 -0.34679032590E+02  0.92870281180E+03  0.93138766751E+03  0.00000000000E+00 0. -1.
         22    1    3    3    0    0  0.30341381481E+02  0.42914833888E+02  0.36945744468E+03  0.37317701674E+03  0.00000000000E+00 0. -1.
</event>
<event>
 7    1  0.6888431E-006  0.6163750E+02  0.7818608E-02  0.1533377E+00
          2   -1    0    0  502    0  0.00000000000E+00  0.00000000000E+00  0.62732563843E+03  0.62732563843E+03  0.00000000000E+00 0. -1.
          1   -1    0    0  501    0 -0.00000000000E+00 -0.00000000000E+00 -0.49064687823E+03  0.49064687823E+03  0.00000000000E+00 0. -1.
         25    2    1    2    0    0 -0.52771752596E+02  0.31843636961E+02 -0.12248703834E+03  0.18554478813E+03  0.12499967501E+03 0.  0.
          2    1    1    2  501    0  0.60891959991E+02 -0.11459786389E+02 -0.33357509604E+03  0.33928086034E+03  0.00000000000E+00 0. -1.
          1    1    1    2  502    0 -0.81202073943E+01 -0.20383850573E+02  0.59274089458E+03  0.59314686819E+03  0.00000000000E+00 0. -1.
         22    1    3    3    0    0 -0.40466537052E+02 -0.45554996824E+02 -0.56413078928E+02  0.83037544705E+02  0.00000000000E+00 0. -1.
         22    1    3    3    0    0 -0.12305215544E+02  0.77398633785E+02 -0.66073959416E+02  0.10250724342E+03  0.00000000000E+00 0. -1.
</event>
<event>
 7    1  0.6888431E-006  0.7908133E+02  0.7818608E-02  0.1399188E+00
          2   -1    0    0  502    0  0.00000000000E+00  0.00000000000E+00  0.15005859072E+03  0.15005859072E+03  0.00000000000E+00 0. -1.
          1   -1    0    0  501    0 -0.00000000000E+00 -0.00000000000E+00 -0.96806807255E+03  0.96806807255E+03  0.00000000000E+00 0. -1.
         25    2    1    2    0    0  0.17067478167E+02  0.67486369418E+02 -0.46411754709E+03  0.48566968297E+03  0.12499693823E+03 0.  0.
          2    1    1    2  501    0  0.25836241673E+02 -0.81178101978E+02 -0.48572745703E+03  0.49314151938E+03  0.00000000000E+00 0. -1.
          1    1    1    2  502    0 -0.42903719840E+02  0.13691732560E+02  0.13183552229E+03  0.13931546093E+03  0.00000000000E+00 0. -1.
         22    1    3    3    0    0 -0.14758292025E+02  0.15600328321E+02 -0.38619277808E+03  0.38678939911E+03  0.00000000000E+00 0. -1.
         22    1    3    3    0    0  0.31825770192E+02  0.51886041098E+02 -0.77924769013E+02  0.98880283853E+02  0.00000000000E+00 0. -1.
</event>
<event>
 7    1  0.6888431E-006  0.7215254E+02  0.7818608E-02  0.1425483E+00
          2   -1    0    0  502    0  0.00000000000E+00  0.00000000000E+00  0.88033210144E+03  0.88033210144E+03  0.00000000000E+00 0. -1.
          1   -1    0    0  501    0 -0.00000000000E+00 -0.00000000000E+00 -0.97392514813E+02  0.97392514813E+02  0.00000000000E+00 0. -1.
         25    2    1    2    0    0  0.19338097385E+02  0.10744466478E+03  0.22140304369E+03  0.27669898700E+03  0.12499881460E+03 0.  0.
          2    1    1    2  501    0 -0.17860231798E+02 -0.67240474645E+02 -0.51569705762E+02  0.86600830613E+02  0.00000000000E+00 0. -1.
          1    1    1    2  502    0 -0.14778655867E+01 -0.40204190131E+02  0.61310624870E+03  0.61442479864E+03  0.00000000000E+00 0. -1.
         22    1    3    3    0    0 -0.38506959544E+02 -0.45807304750E+01  0.39307120593E+02  0.55216109555E+02  0.00000000000E+00 0. -1.
         22    1    3    3    0    0  0.57845056929E+02  0.11202539525E+03  0.18209592309E+03  0.22148287744E+03  0.00000000000E+00 0. -1.
</event>
<event>
 7    1  0.6888431E-006  0.4976514E+02  0.7818608E-02  0.1474578E+00
          2   -1    0    0  502    0  0.00000000000E+00  0.00000000000E+00  0.20302531092E+04  0.20302531092E+04  0.00000000000E+00 0. -1.
          1   -1    0    0  501    0 -0.00000000000E+00 -0.00000000000E+00 -0.30873422833E+03  0.30873422833E+03  0.00000000000E+00 0. -1.
         25    2    1    2    0    0  0.28229220886E+02  0.39153361178E+02 -0.73261978470E+02  0.15270222269E+03  0.12498310575E+03 0.  0.
          2    1    1    2  501    0 -0.39529133167E+02  0.93629361019E+01 -0.19332923346E+03  0.19755102999E+03  0.00000000000E+00 0. -1.
          1    1    1    2  502    0  0.11299912281E+02 -0.48516297280E+02  0.19881100928E+04  0.19887340848E+04  0.00000000000E+00 0. -1.
         22    1    3    3    0    0  0.72353115380E+02  0.42555456091E+02 -0.68210256749E+02  0.10815997076E+03  0.00000000000E+00 0. -1.
         22    1    3    3    0    0 -0.44123894494E+02 -0.34020949127E+01 -0.50517217215E+01  0.44542251936E+02  0.00000000000E+00 0. -1.
</event>
<event>
 7    1  0.6888431E-006  0.8091981E+02  0.7818608E-02  0.1328901E+00
          2   -1    0    0  502    0  0.00000000000E+00  0.00000000000E+00  0.65592491476E+03  0.65592491476E+03  0.00000000000E+00 0. -1.
          1   -1    0    0  501    0 -0.00000000000E+00 -0.00000000000E+00 -0.92763164340E+03  0.92763164340E+03  0.00000000000E+00 0. -1.
         25    2    1    2    0    0  0.47777158705E+02  0.46922841122E+02  0.13804143751E+03  0.19790387913E+03  0.12500438789E+03 0.  0.
          2    1    1    2  501    0  0.25295981637E+02 -0.77456169228E+02 -0.89261908814E+03  0.89633039743E+03  0.00000000000E+00 0. -1.
          1    1    1    2  502    0 -0.73073140342E+02  0.30533328106E+02  0.48287092200E+03  0.48932228160E+03  0.00000000000E+00 0. -1.
         22    1    3    3    0    0  0.80352754889E+02  0.44529631102E+02  0.51306977974E+02  0.10522290270E+03  0.00000000000E+00 0. -1.
         22    1    3    3    0    0 -0.32575596184E+02  0.23932100197E+01  0.86734459532E+02  0.92680976425E+02  0.00000000000E+00 0. -1.
</event>
<event>
 7    1  0.6888431E-006  0.3935643E+02  0.7818608E-02  0.1574713E+00
          2   -1    0    0  502    0  0.00000000000E+00  0.00000000000E+00  0.34194351452E+03  0.34194351452E+03  0.00000000000E+00 0. -1.
          1   -1    0    0  501    0 -0.00000000000E+00 -0.00000000000E+00 -0.55188121375E+02  0.55188121375E+02  0.00000000000E+00 0. -1.
         25    2    1    2    0    0  0.22581522609E+02  0.97795830161E+01  0.38815947508E+02  0.13318390963E+03  0.12500284235E+03 0.  0.
          2    1    1    2  501    0 -0.34223091294E+02  0.27815659011E+02  0.18100498982E+03  0.18630012669E+03  0.00000000000E+00 0. -1.
          1    1    1    2  502    0  0.11641568684E+02 -0.37595242027E+02  0.66934455816E+02  0.77647599575E+02  0.00000000000E+00 0. -1.
         22    1    3    3    0    0 -0.35677784624E+02 -0.32616196961E+02 -0.54095093718E+01  0.48641375510E+02  0.00000000000E+00 0. -1.
         22    1    3    3    0    0  0.58259307234E+02  0.42395779977E+02  0.44225456879E+02  0.84542534120E+02  0.00000000000E+00 0. -1.
</event>
<event>
 7    1  0.6888431E-006  0.1179224E+03  0.7818608E-02  0.1284100E+00
          2   -1    0    0  502    0  0.00000000000E+00  0.00000000000E+00  0.95333339441E+03  0.95333339441E+03  0.00000000000E+00 0. -1.
          1   -1    0    0  501    0 -0.00000000000E+00 -0.00000000000E+00 -0.17518286713E+04  0.17518286713E+04  0.00000000000E+00 0. -1.
         25    2    1    2    0    0  0.16055527713E+03 -0.61044557983E+02  0.37416797215E+03  0.43026497297E+03  0.12498736138E+03 0.  0.
          2    1    1    2  501    0 -0.51192476561E+02  0.63797941123E+02 -0.17173682337E+04  0.17193151244E+04  0.00000000000E+00 0. -1.
          1    1    1    2  502    0 -0.10936280057E+03 -0.27533831404E+01  0.54470498463E+03  0.55558196835E+03  0.00000000000E+00 0. -1.
         22    1    3    3    0    0  0.41367666907E+02  0.13379330703E+01  0.10772119339E+02  0.42768124641E+02  0.00000000000E+00 0. -1.
         22    1    3    3    0    0  0.11918761022E+03 -0.62382491053E+02  0.36339585281E+03  0.38749684833E+03  0.00000000000E+00 0. -1.
</event>
<event>
 7    1  0.6888431E-006  0.1392297E+03  0.7818608E-02  0.1247101E+00
          2   -1    0    0  502    0  0.00000000000E+00  0.00000000000E+00  0.16464767107E+03  0.16464767107E+03  0.00000000000E+00 0. -1.
          1   -1    0    0  501    0 -0.00000000000E+00 -0.00000000000E+00 -0.17167127733E+04  0.17167127733E+04  0.00000000000E+00 0. -1.
         25    2    1    2    0    0  0.16945617894E+03 -0.15975118325E+02 -0.61035825810E+03  0.64585888744E+03  0.12500359301E+03 0.  0.
          2    1    1    2  501    0 -0.11887408257E+03 -0.69521817459E+02 -0.10668624162E+04  0.10757135983E+04  0.00000000000E+00 0. -1.
          1    1    1    2  502    0 -0.50582096363E+02  0.85496935784E+02  0.12515557204E+03  0.15978795860E+03  0.00000000000E+00 0. -1.
         22    1    3    3    0    0  0.59422061678E+02 -0.66458279015E+02 -0.22876153908E+03  0.24551889138E+03  0.00000000000E+00 0.  1.
         22    1    3    3    0    0  0.11003411726E+03  0.50483160690E+02 -0.38159671903E+03  0.40033999606E+03  0.00000000000E+00 0.  1.
</event>
<event>
 7    1  0.9537183E-006  0.1243141E+03  0.7818608E-02  0.1413990E+00
          2   -1    0    0  502    0  0.00000000000E+00  0.00000000000E+00  0.12408070156E+04  0.12408070156E+04  0.00000000000E+00 0. -1.
          1   -1    0    0  501    0 -0.00000000000E+00 -0.00000000000E+00 -0.10605685394E+04  0.10605685394E+04  0.00000000000E+00 0. -1.
         25    2    1    2    0    0 -0.14582353054E+03 -0.29447790425E+02 -0.56280505895E+03  0.59540397983E+03  0.12499876157E+03 0.  0.
          2    1    1    2  501    0  0.23020968894E+02  0.10988934018E+02 -0.47797458453E+03  0.47865480791E+03  0.00000000000E+00 0. -1.
          1    1    1    2  502    0  0.12280256165E+03  0.18458856406E+02  0.12210181197E+04  0.12273167672E+04  0.00000000000E+00 0. -1.
         22    1    3    3    0    0 -0.10458579841E+03  0.40797048800E+02 -0.34884436594E+03  0.36646279493E+03  0.00000000000E+00 0. -1.
         22    1    3    3    0    0 -0.41237732131E+02 -0.70244839224E+02 -0.21396069301E+03  0.22894118490E+03  0.00000000000E+00 0. -1.
</event>
<event>
 7    1  0.6888431E-006  0.9500935E+02  0.7818608E-02  0.1436344E+00
          2   -1    0    0  502    0  0.00000000000E+00  0.00000000000E+00  0.72356475362E+03  0.72356475362E+03  0.00000000000E+00 0. -1.
          1   -1    0    0  501    0 -0.00000000000E+00 -0.00000000000E+00 -0.10158292569E+04  0.10158292569E+04  0.00000000000E+00 0. -1.
         25    2    1    2    0    0 -0.59722963624E+02  0.51774856985E+02  0.17974467193E+03  0.23275366073E+03  0.12497460260E+03 0.  0.
          2    1    1    2  501    0  0.53002678819E+02 -0.79101712308E+02 -0.98664841409E+03  0.99123229259E+03  0.00000000000E+00 0. -1.
          1    1    1    2  502    0  0.67202848041E+01  0.27326855323E+02  0.51463923887E+03  0.51540805721E+03  0.00000000000E+00 0. -1.
         22    1    3    3    0    0 -0.17939158079E+02 -0.40510692325E+02  0.37045451372E+02  0.57752013407E+02  0.00000000000E+00 0. -1.
         22    1    3    3    0    0 -0.41783805544E+02  0.92285549310E+02  0.14269922055E+03  0.17500164732E+03  0.00000000000E+00 0. -1.
</event>
<event>
 7    1  0.6888431E-006  0.1275275E+03  0.7818608E-02  0.1306721E+00
          2   -1    0    0  502    0  0.00000000000E+00  0.00000000000E+00  0.91501217611E+03  0.91501217611E+03  0.00000000000E+00 0. -1.
          1   -1    0    0  501    0 -0.00000000000E+00 -0.00000000000E+00 -0.38318478103E+03  0.38318478103E+03  0.00000000000E+00 0. -1.
         25    2    1    2    0    0 -0.10190945645E+03 -0.91159326441E+02  0.45404764719E+02  0.19074031931E+03  0.12499886655E+03 0.  0.
          2    1    1    2  501    0  0.12341210977E+03  0.33747242453E+02 -0.29608780076E+03  0.32254830796E+03  0.00000000000E+00 0. -1.
          1    1    1    2  502    0 -0.21502653319E+02  0.57412083988E+02  0.78251043112E+03  0.78490832987E+03  0.00000000000E+00 0. -1.
         22    1    3    3    0    0 -0.86703655120E+02 -0.53433569073E+01  0.55378580845E+02  0.10301874825E+03  0.00000000000E+00 0. -1.
         22    1    3    3    0    0 -0.15205801329E+02 -0.85815969534E+02 -0.99738161257E+01  0.87721571060E+02  0.00000000000E+00 0. -1.
</event>
<event>
 7    1  0.6888431E-006  0.3594646E+02  0.7818608E-02  0.1564245E+00
          2   -1    0    0  502    0  0.00000000000E+00  0.00000000000E+00  0.22689152332E+04  0.22689152332E+04  0.00000000000E+00 0. -1.
          1   -1    0    0  501    0 -0.00000000000E+00 -0.00000000000E+00 -0.21917884049E+02  0.21917884049E+02  0.00000000000E+00 0. -1.
         25    2    1    2    0    0  0.54968026018E+02  0.14758956655E+02  0.76552044449E+03  0.77774415992E+03  0.12500046668E+03 0.  0.
          2    1    1    2  501    0 -0.34571168498E+02  0.83818114476E+01  0.45759002283E+01  0.35865851689E+02  0.00000000000E+00 0. -1.
          1    1    1    2  502    0 -0.20396857520E+02 -0.23140768103E+02  0.14769010045E+04  0.14772231057E+04  0.00000000000E+00 0. -1.
         22    1    3    3    0    0  0.34688596014E+02  0.69319720134E+02  0.37686947021E+03  0.38475852150E+03  0.00000000000E+00 0.  1.
         22    1    3    3    0    0  0.20279430004E+02 -0.54560763479E+02  0.38865097428E+03  0.39298563841E+03  0.00000000000E+00 0.  1.
</event>
<event>
 7    1  0.6888431E-006  0.1482657E+03  0.7818608E-02  0.1395435E+00
          2   -1    0    0  502    0  0.00000000000E+00  0.00000000000E+00  0.24783878631E+04  0.24783878631E+04  0.00000000000E+00 0. -1.
          1   -1    0    0  501    0 -0.00000000000E+00 -0.00000000000E+00 -0.21978929753E+03  0.21978929753E+03  0.00000000000E+00 0. -1.
         25    2    1    2    0    0  0.12318601079E+03 -0.64530876085E+02 -0.28511154019E+02  0.18915323936E+03  0.12500813907E+03 0.  0.
          2    1    1    2  501    0  0.17624229799E+02  0.17374310026E+02 -0.10724768378E+03  0.11006609742E+03  0.00000000000E+00 0. -1.
          1    1    1    2  502    0 -0.14081024059E+03  0.47156566059E+02  0.23943574034E+04  0.23989578238E+04  0.00000000000E+00 0. -1.
         22    1    3    3    0    0  0.67965073952E+02 -0.40970759913E+02 -0.78055872460E+02  0.11131295374E+03  0.00000000000E+00 0. -1.
         22    1    3    3    0    0  0.55220936836E+02 -0.23560116172E+02  0.49544718442E+02  0.77840285614E+02  0.00000000000E+00 0. -1.
</event>
<event>
 7    1  0.6888431E-006  0.2765915E+03  0.7818608E-02  0.1128320E+00
          2   -1    0    0  502    0  0.00000000000E+00  0.00000000000E+00  0.82124773432E+03  0.82124773432E+03  0.00000000000E+00 0. -1.
          1   -1    0    0  501    0 -0.00000000000E+00 -0.00000000000E+00 -0.12005165775E+04  0.12005165775E+04  0.00000000000E+00 0. -1.
         25    2    1    2    0    0  0.15042591902E+03 -0.24993229003E+03 -0.23316939126E+02  0.31821861277E+03  0.12500119659E+03 0.  0.
          2    1    1    2  501    0 -0.18470398096E+03 -0.31277988701E+02 -0.99080177860E+03  0.10083561066E+04  0.00000000000E+00 0. -1.
          1    1    1    2  502    0  0.34278061936E+02  0.28121027873E+03  0.63484987451E+03  0.69518959253E+03  0.00000000000E+00 0. -1.
         22    1    3    3    0    0  0.45229961714E+02 -0.74234279418E+02 -0.65864619599E+02  0.10906248572E+03  0.00000000000E+00 0.  1.
         22    1    3    3    0    0  0.10519595730E+03 -0.17569801061E+03  0.42547680472E+02  0.20915612704E+03  0.00000000000E+00 0.  1.
</event>
<event>
 7    1  0.6888431E-006  0.1672051E+03  0.7818608E-02  0.1201738E+00
          2   -1    0    0  502    0  0.00000000000E+00  0.00000000000E+00  0.15675785301E+04  0.15675785301E+04  0.00000000000E+00 0. -1.
          1   -1    0    0  501    0 -0.00000000000E+00 -0.00000000000E+00 -0.17718138907E+04  0.17718138907E+04  0.00000000000E+00 0. -1.
         25    2    1    2    0    0  0.20075535878E+03  0.35642457004E+02  0.83023859420E+03  0.86399844481E+03  0.12499636199E+03 0.  0.
          2    1    1    2  501    0 -0.96977851343E+02  0.90626710833E+02 -0.17431085874E+04  0.17481548706E+04  0.00000000000E+00 0. -1.
          1    1    1    2  502    0 -0.10377750743E+03 -0.12626916784E+03  0.70863463264E+03  0.72723910536E+03  0.00000000000E+00 0. -1.
         22    1    3    3    0    0  0.17995576788E+03  0.46143576848E+02  0.50775268022E+03  0.54067188974E+03  0.00000000000E+00 0. -1.
         22    1    3    3    0    0  0.20799590893E+02 -0.10501119844E+02  0.32248591398E+03  0.32332655507E+03  0.00000000000E+00 0. -1.
</event>
<event>
 7    1  0.6888431E-006  0.1594215E+03  0.7818608E-02  0.1335379E+00
          2   -1    0    0  502    0  0.00000000000E+00  0.00000000000E+00  0.63423558448E+02  0.63423558448E+02  0.00000000000E+00 0. -1.
          1   -1    0    0  501    0 -0.00000000000E+00 -0.00000000000E+00 -0.98505918089E+03  0.98505918089E+03  0.00000000000E+00 0. -1.
         25    2    1    2    0    0  0.16403771248E+03 -0.22618793209E+02 -0.47529892490E+03  0.51860771272E+03  0.12499964305E+03 0.  0.
          2    1    1    2  501    0 -0.15664549646E+03 -0.14633606781E+02 -0.46255475151E+03  0.48857839919E+03  0.00000000000E+00 0. -1.
          1    1    1    2  502    0 -0.73922160177E+01  0.37252399990E+02  0.16218053964E+02  0.41296627430E+02  0.00000000000E+00 0. -1.
         22    1    3    3    0    0  0.74535163389E+02  0.35220382684E+02 -0.10624647100E+03  0.13447779942E+03  0.00000000000E+00 0.  1.
         22    1    3    3    0    0  0.89502549090E+02 -0.57839175893E+02 -0.36905245390E+03  0.38412991330E+03  0.00000000000E+00 0.  1.
</event>
<event>
 7    1  0.6888431E-006  0.1386449E+03  0.7818608E-02  0.1404753E+00
          2   -1    0    0  502    0  0.00000000000E+00  0.00000000000E+00  0.54044753209E+03  0.54044753209E+03  0.00000000000E+00 0. -1.
          1   -1    0    0  501    0 -0.00000000000E+00 -0.00000000000E+00 -0.10669313970E+04  0.10669313970E+04  0.00000000000E+00 0. -1.
         25    2    1    2    0    0  0.93199173075E+02 -0.12797438266E+03 -0.69644759575E+03  0.72507253773E+03  0.12500961110E+03 0.  0.
          2    1    1    2  501    0 -0.12252750153E+01  0.24552987857E+02 -0.34662662240E+03  0.34749728901E+03  0.00000000000E+00 0. -1.
          1    1    1    2  502    0 -0.91973898060E+02  0.10342139480E+03  0.51659035327E+03  0.53480910231E+03  0.00000000000E+00 0. -1.
         22    1    3    3    0    0  0.97373786449E+02 -0.39416680215E+02 -0.27455679360E+03  0.29396728028E+03  0.00000000000E+00 0. -1.
         22    1    3    3    0    0 -0.41746133738E+01 -0.88557702446E+02 -0.42189080215E+03  0.43110525745E+03  0.00000000000E+00 0. -1.
</event>
<event>
 7    1  0.6888431E-006  0.1299393E+03  0.7818608E-02  0.1291355E+00
          2   -1    0    0  502    0  0.00000000000E+00  0.00000000000E+00  0.17292338428E+04  0.17292338428E+04  0.00000000000E+00 0. -1.
          1   -1    0    0  501    0 -0.00000000000E+00 -0.00000000000E+00 -0.72895810936E+02  0.72895810936E+02  0.00000000000E+00 0. -1.
         25    2    1    2    0    0  0.90788884539E+02 -0.32204301309E+02  0.17558069794E+03  0.23608011956E+03  0.12500201113E+03 0.  0.
          2    1    1    2  501    0 -0.12530365384E+03  0.92343217355E+02  0.10322175410E+03  0.18676992793E+03  0.00000000000E+00 0. -1.
          1    1    1    2  502    0  0.34514769306E+02 -0.60138916046E+02  0.13775355799E+04  0.13792796063E+04  0.00000000000E+00 0. -1.
         22    1    3    3    0    0 -0.74851229078E+01 -0.41292151144E+02  0.10960876727E+03  0.11736758783E+03  0.00000000000E+00 0.  1.
         22    1    3    3    0    0  0.98274007446E+02  0.90878498343E+01  0.65971930672E+02  0.11871253173E+03  0.00000000000E+00 0.  1.
</event>
<event>
 7    1  0.1723324E-005  0.1145654E+03  0.7818608E-02  0.1365702E+00
          2   -1    0    0  502    0  0.00000000000E+00  0.00000000000E+00  0.13631885535E+04  0.13631885535E+04  0.00000000000E+00 0. -1.
          1   -1    0    0  501    0 -0.00000000000E+00 -0.00000000000E+00 -0.20678085530E+04  0.20678085530E+04  0.00000000000E+00 0. -1.
         25    2    1    2    0    0  0.13096447178E+03 -0.15903255369E+02 -0.61157576667E+03  0.63800603005E+03  0.12498867792E+03 0.  0.
          2    1    1    2  501    0 -0.26503379462E+02 -0.31031953068E+02 -0.14402993610E+04  0.14408773926E+04  0.00000000000E+00 0. -1.
          1    1    1    2  502    0 -0.10446109232E+03  0.46935208437E+02  0.13472551282E+04  0.13521136839E+04  0.00000000000E+00 0. -1.
         22    1    3    3    0    0  0.89229441166E+02 -0.63016808115E+02 -0.47829706490E+03  0.49061297738E+03  0.00000000000E+00 0. -1.
         22    1    3    3    0    0  0.41735030614E+02  0.47113552747E+02 -0.13327870176E+03  0.14739305267E+03  0.00000000000E+00 0. -1.
</event>
<event>
 7    1  0.6888431E-006  0.7658447E+02  0.7818608E-02  0.1430235E+00
          2   -1    0    0  502    0  0.00000000000E+00  0.00000000000E+00  0.21569953154E+04  0.21569953154E+04  0.00000000000E+00 0. -1.
          1   -1    0    0  501    0 -0.00000000000E+00 -0.00000000000E+00 -0.11884716489E+03  0.11884716489E+03  0.00000000000E+00 0. -1.
         25    2    1    2    0    0 -0.37495153914E+02 -0.15212086774E+02 -0.34719363849E+02  0.13589428140E+03  0.12499810934E+03 0.  0.
          2    1    1    2  501    0 -0.31989356866E+02 -0.17696532617E+02 -0.22659720779E+02  0.43011035387E+02  0.00000000000E+00 0. -1.
          1    1    1    2  502    0  0.69484510780E+02  0.32908619391E+02  0.20955272351E+04  0.20969371635E+04  0.00000000000E+00 0. -1.
         22    1    3    3    0    0 -0.18819346579E+02  0.48173621763E+02 -0.45568216283E+02  0.68929877228E+02  0.00000000000E+00 0.  1.
         22    1    3    3    0    0 -0.18675807335E+02 -0.63385708537E+02  0.10848852434E+02  0.66964404168E+02  0.00000000000E+00 0.  1.
</event>
<event>
 7    1  0.6888431E-006  0.1029076E+03  0.7818608E-02  0.1367175E+00
          2   -1    0    0  502    0  0.00000000000E+00  0.00000000000E+00  0.31973620344E+03  0.31973620344E+03  0.00000000000E+00 0. -1.
          1   -1    0    0  501    0 -0.00000000000E+00 -0.00000000000E+00 -0.13668024786E+04  0.13668024786E+04  0.00000000000E+00 0. -1.
         25    2    1    2    0    0  0.47008888416E+02 -0.62458248337E+02 -0.18633415626E+03  0.23760565580E+03  0.12500064601E+03 0.  0.
          2    1    1    2  501    0 -0.22442828813E+02 -0.38864368475E+02 -0.11451393612E+04  0.11460184450E+04  0.00000000000E+00 0. -1.
          1    1    1    2  502    0 -0.24566059603E+02  0.10132261681E+03  0.28440724238E+03  0.30291458116E+03  0.00000000000E+00 0. -1.
         22    1    3    3    0    0 -0.34763417928E+02 -0.11498230026E+02 -0.10603840455E+03  0.11218220786E+03  0.00000000000E+00 0. -1.
         22    1    3    3    0    0  0.81772306344E+02 -0.50960018310E+02 -0.80295751703E+02  0.12542344794E+03  0.00000000000E+00 0. -1.
</event>
<event>
 7    1  0.6888431E-006  0.5105714E+02  0.7818608E-02  0.1566495E+00
          2   -1    0    0  502    0  0.00000000000E+00  0.00000000000E+00  0.23376162682E+04  0.23376162682E+04  0.00000000000E+00 0. -1.
          1   -1    0    0  501    0 -0.00000000000E+00 -0.00000000000E+00 -0.33639227285E+03  0.33639227285E+03  0.00000000000E+00 0. -1.
         25    2    1    2    0    0 -0.21201856185E+02 -0.37770256178E+02 -0.28593279890E+03  0.31505412948E+03  0.12500171221E+03 0.  0.
          2    1    1    2  501    0 -0.20012237895E+02  0.76149577432E+01 -0.32399722453E+02  0.38835798717E+02  0.00000000000E+00 0. -1.
          1    1    1    2  502    0  0.41214094080E+02  0.30155298435E+02  0.23195565167E+04  0.23201186129E+04  0.00000000000E+00 0. -1.
         22    1    3    3    0    0  0.45127958543E+02 -0.31401799962E+02 -0.69619779758E+02  0.88710311783E+02  0.00000000000E+00 0.  1.
         22    1    3    3    0    0 -0.66329814728E+02 -0.63684562156E+01 -0.21631301914E+03  0.22634381769E+03  0.00000000000E+00 0.  1.
</event>
<event>
 7    1  0.6888431E-006  0.1188113E+03  0.7818608E-02  0.1369212E+00
          2   -1    0    0  502    0  0.00000000000E+00  0.00000000000E+00  0.20271096402E+04  0.20271096402E+04  0.00000000000E+00 0. -1.
          1   -1    0    0  501    0 -0.00000000000E+00 -0.00000000000E+00 -0.67278257827E+03  0.67278257827E+03  0.00000000000E+00 0. -1.
         25    2    1    2    0    0  0.19249961420E+02  0.80142907897E+02  0.89061932234E+02  0.17421570029E+03  0.12500254299E+03 0.  0.
          2    1    1    2  501    0  0.43565122545E+01  0.37971032018E+02 -0.62771032610E+03  0.62887282654E+03  0.00000000000E+00 0. -1.
          1    1    1    2  502    0 -0.23606473675E+02 -0.11811393992E+03  0.18929754558E+04  0.18968036917E+04  0.00000000000E+00 0. -1.
         22    1    3    3    0    0 -0.49251872947E+01  0.79185558847E+01  0.97175397610E+02  0.97621815686E+02  0.00000000000E+00 0. -1.
         22    1    3    3    0    0  0.24175148715E+02  0.72224352013E+02 -0.81134653758E+01  0.76593884609E+02  0.00000000000E+00 0. -1.
</event>
<event>
 7    1  0.6888431E-006  0.4531445E+02  0.7818608E-02  0.1546017E+00
          2   -1    0    0  502    0  0.00000000000E+00  0.00000000000E+00  0.85128918796E+03  0.85128918796E+03  0.00000000000E+00 0. -1.
          1   -1    0    0  501    0 -0.00000000000E+00 -0.00000000000E+00 -0.31052155818E+03  0.31052155818E+03  0.00000000000E+00 0. -1.
         25    2    1    2    0    0 -0.46841536069E+02 -0.49002606798E+02 -0.18820138340E+03  0.23587489263E+03  0.12498727651E+03 0.  0.
          2    1    1    2  501    0  0.76289750957E+01  0.26407427884E+02 -0.95933028588E+02  0.99793283755E+02  0.00000000000E+00 0. -1.
          1    1    1    2  502    0  0.39212560973E+02  0.22595178914E+02  0.82490204176E+03  0.82614256975E+03  0.00000000000E+00 0. -1.
         22    1    3    3    0    0  0.70536831942E+00 -0.40637561469E+02 -0.18283776953E+03  0.18730071787E+03  0.00000000000E+00 0.  1.
         22    1    3    3    0    0 -0.47546904388E+02 -0.83650453291E+01 -0.53636138627E+01  0.48574174764E+02  0.00000000000E+00 0.  1.
</event>
<event>
 7    1  0.6888431E-006  0.1322130E+03  0.7818608E-02  0.1266880E+00
          2   -1    0    0  502    0  0.00000000000E+00  0.00000000000E+00  0.89307672848E+03  0.89307672848E+03  0.00000000000E+00 0. -1.
          1   -1    0    0  501    0 -0.00000000000E+00 -0.00000000000E+00 -0.11235320332E+03  0.11235320332E+03  0.00000000000E+00 0. -1.
         25    2    1    2    0    0  0.75600788136E+02  0.13769234359E+03  0.35252719792E+03  0.40567634335E+03  0.12499283833E+03 0.  0.
          2    1    1    2  501    0 -0.11639188391E+03 -0.61927336610E+02 -0.28613305346E+02  0.13491029206E+03  0.00000000000E+00 0. -1.
          1    1    1    2  502    0  0.40791095775E+02 -0.75765006985E+02  0.45680963258E+03  0.46484329639E+03  0.00000000000E+00 0. -1.
         22    1    3    3    0    0  0.56602700933E+02  0.86587669339E+00  0.15177359852E+03  0.16198716215E+03  0.00000000000E+00 0. -1.
         22    1    3    3    0    0  0.18998087203E+02  0.13682646690E+03  0.20075359940E+03  0.24368918120E+03  0.00000000000E+00 0. -1.
</event>
<event>
 7    1  0.6888431E-006  0.5030747E+02  0.7818608E-02  0.1558280E+00
          2   -1    0    0  502    0  0.00000000000E+00  0.00000000000E+00  0.96045577792E+03  0.96045577792E+03  0.00000000000E+00 0. -1.
          1   -1    0    0  501    0 -0.00000000000E+00 -0.00000000000E+00 -0.13942181207E+02  0.13942181207E+02  0.00000000000E+00 0. -1.
         25    2    1    2    0    0 -0.23558701716E+02 -0.47011071803E+02  0.69871056531E+03  0.71174969540E+03  0.12500448598E+03 0.  0.
          2    1    1    2  501    0  0.22562926262E+02 -0.38499422459E+01  0.24112971366E+02  0.33246700361E+02  0.00000000000E+00 0. -1.
          1    1    1    2  502    0  0.99577545350E+00  0.50861014049E+02  0.22369006003E+03  0.22940156337E+03  0.00000000000E+00 0. -1.
         22    1    3    3    0    0 -0.37933378765E+02 -0.46344620079E+02  0.13306840047E+03  0.14592451555E+03  0.00000000000E+00 0. -1.
         22    1    3    3    0    0  0.14374677049E+02 -0.66645172392E+00  0.56564216484E+03  0.56582517985E+03  0.00000000000E+00 0. -1.
</event>
<event>
 7    1  0.6888431E-006  0.1364217E+03  0.7818608E-02  0.1249717E+00
          2   -1    0    0  502    0  0.00000000000E+00  0.00000000000E+00  0.97626006048E+03  0.97626006048E+03  0.00000000000E+00 0. -1.
          1   -1    0    0  501    0 -0.00000000000E+00 -0.00000000000E+00 -0.61623337422E+03  0.61623337422E+03  0.00000000000E+00 0. -1.
         25    2    1    2    0    0 -0.58306172302E+02 -0.69802828487E+02  0.13390841837E+03  0.20452491380E+03  0.12500772480E+03 0.  0.
          2    1    1    2  501    0  0.58839722026E+02 -0.79320563667E+02 -0.56975172653E+03  0.57824812546E+03  0.00000000000E+00 0. -1.
          1    1    1    2  502    0 -0.53354972314E+00  0.14912339215E+03  0.79586999442E+03  0.80972039543E+03  0.00000000000E+00 0. -1.
         22    1    3    3    0    0 -0.52550823005E+02 -0.10495076944E+03  0.89522774071E+02  0.14761632729E+03  0.00000000000E+00 0. -1.
         22    1    3    3    0    0 -0.57553492979E+01  0.35147940953E+02  0.44385644301E+02  0.56908586512E+02  0.00000000000E+00 0. -1.
</event>
<event>
 7    1  0.6888431E-006  0.9288641E+02  0.7818608E-02  0.1420278E+00
          2   -1    0    0  502    0  0.00000000000E+00  0.00000000000E+00  0.65998660462E+03  0.65998660462E+03  0.00000000000E+00 0. -1.
          1   -1    0    0  501    0 -0.00000000000E+00 -0.00000000000E+00 -0.13308631008E+03  0.13308631008E+03  0.00000000000E+00 0. -1.
         25    2    1    2    0    0 -0.46624201815E+02  0.44846629440E+02  0.86392775145E+02  0.16513956196E+03  0.12498930738E+03 0.  0.
          2    1    1    2  501    0 -0.29488398742E+02  0.13715134533E+02 -0.86414376033E+02  0.92331549109E+02  0.00000000000E+00 0. -1.
          1    1    1    2  502    0  0.76112600557E+02 -0.58561763973E+02  0.52692189544E+03  0.53560180363E+03  0.00000000000E+00 0. -1.
         22    1    3    3    0    0 -0.81067782490E+02  0.14323626455E+02  0.20623457533E+02  0.84867417972E+02  0.00000000000E+00 0. -1.
         22    1    3    3    0    0  0.34443580676E+02  0.30523002985E+02  0.65769317612E+02  0.80272143986E+02  0.00000000000E+00 0. -1.
</event>
<event>
 7    1  0.6888431E-006  0.1395466E+03  0.7818608E-02  0.1311260E+00
          2   -1    0    0  502    0  0.00000000000E+00  0.00000000000E+00  0.16285991830E+04  0.16285991830E+04  0.00000000000E+00 0. -1.
          1   -1    0    0  501    0 -0.00000000000E+00 -0.00000000000E+00 -0.22210267117E+04  0.22210267117E+04  0.00000000000E+00 0. -1.
         25    2    1    2    0    0  0.15033398160E+03 -0.67973350748E+02  0.14756907313E+04  0.14901373666E+04  0.12500221807E+03 0.  0.
          2    1    1    2  501    0 -0.10322024301E+03  0.93870197588E+02 -0.22065640340E+04  0.22109705716E+04  0.00000000000E+00 0. -1.
          1    1    1    2  502    0 -0.47113738591E+02 -0.25896846840E+02  0.13844577402E+03  0.14851795644E+03  0.00000000000E+00 0. -1.
         22    1    3    3    0    0  0.10932311464E+02 -0.40369066618E+02  0.12121824045E+03  0.12823041290E+03  0.00000000000E+00 0.  1.
         22    1    3    3    0    0  0.13940167014E+03 -0.27604284130E+02  0.13544724908E+04  0.13619069537E+04  0.00000000000E+00 0.  1.
</event>
<event>
 7    1  0.6888431E-006  0.6746638E+02  0.7818608E-02  0.1387111E+00
          2   -1    0    0  502    0  0.00000000000E+00  0.00000000000E+00  0.18235966153E+03  0.18235966153E+03  0.00000000000E+00 0. -1.
          1   -1    0    0  501    0 -0.00000000000E+00 -0.00000000000E+00 -0.83058563188E+03  0.83058563188E+03  0.00000000000E+00 0. -1.
         25    2    1    2    0    0 -0.89989466063E+02  0.39863008285E+02 -0.18648648206E+03  0.24513304744E+03  0.12500335805E+03 0.  0.
          2    1    1    2  501    0  0.55436732390E+02  0.17528775374E+02 -0.60598605808E+03  0.60876891498E+03  0.00000000000E+00 0. -1.
          1    1    1    2  502    0  0.34552733672E+02 -0.57391783659E+02  0.14424656979E+03  0.15904333099E+03  0.00000000000E+00 0. -1.
         22    1    3    3    0    0 -0.51658098980E+02 -0.41431770296E+02 -0.10307233144E+03  0.12251145370E+03  0.00000000000E+00 0. -1.
         22    1    3    3    0    0 -0.38331367083E+02  0.81294778582E+02 -0.83414150625E+02  0.12262159374E+03  0.00000000000E+00 0. -1.
</event>
<event>
 7    1  0.6888431E-006  0.1101049E+03  0.7818608E-02  0.1278718E+00
          2   -1    0    0  502    0  0.00000000000E+00  0.00000000000E+00  0.17483818605E+04  0.17483818605E+04  0.00000000000E+00 0. -1.
          1   -1    0    0  501    0 -0.00000000000E+00 -0.00000000000E+00 -0.69499476796E+02  0.69499476796E+02  0.00000000000E+00 0. -1.
         25    2    1    2    0    0  0.98347140110E+01  0.16162574982E+03  0.55089368769E+03  0.58764606073E+03  0.12499773180E+03 0.  0.
          2    1    1    2  501    0 -0.61229992422E+02 -0.68929488013E+02 -0.49682233862E+01  0.92331303106E+02  0.00000000000E+00 0. -1.
          1    1    1    2  502    0  0.51395278411E+02 -0.92696261803E+02  0.11329569194E+04  0.11379039735E+04  0.00000000000E+00 0. -1.
         22    1    3    3    0    0  0.79015427801E+00  0.18130055665E+03  0.51168071900E+03  0.54285142938E+03  0.00000000000E+00 0. -1.
         22    1    3    3    0    0  0.90445597330E+01 -0.19674806829E+02  0.39212968688E+02  0.44794631350E+02  0.00000000000E+00 0. -1.
</event>
<event>
 7    1  0.6888431E-006  0.1200917E+03  0.7818608E-02  0.1385516E+00
          2   -1    0    0  502    0  0.00000000000E+00  0.00000000000E+00  0.73818350607E+03  0.73818350607E+03  0.00000000000E+00 0. -1.
          1   -1    0    0  501    0 -0.00000000000E+00 -0.00000000000E+00 -0.11776230038E+04  0.11776230038E+04  0.00000000000E+00 0. -1.
         25    2    1    2    0    0  0.78681015215E+02 -0.48356792510E+02  0.19510215608E+03  0.24943761836E+03  0.12500077043E+03 0.  0.
          2    1    1    2  501    0 -0.11163381725E+03  0.45375486135E+02 -0.11467645391E+04  0.11530784674E+04  0.00000000000E+00 0. -1.
          1    1    1    2  502    0  0.32952802036E+02  0.29813063752E+01  0.51222288524E+03  0.51329042414E+03  0.00000000000E+00 0. -1.
         22    1    3    3    0    0  0.92249647568E+02  0.87449808124E+01  0.90675867936E+02  0.12964792784E+03  0.00000000000E+00 0. -1.
         22    1    3    3    0    0 -0.13568632353E+02 -0.57101773322E+02  0.10442628815E+03  0.11978969053E+03  0.00000000000E+00 0. -1.
</event>
<event>
 7    1  0.6888431E-006  0.9669245E+02  0.7818608E-02  0.1372043E+00
          2   -1    0    0  502    0  0.00000000000E+00  0.00000000000E+00  0.21753258560E+04  0.21753258560E+04  0.00000000000E+00 0. -1.
          1   -1    0    0  501    0 -0.00000000000E+00 -0.00000000000E+00 -0.81541693881E+02  0.81541693881E+02  0.00000000000E+00 0. -1.
         25    2    1    2    0    0 -0.93735823132E+02  0.15524108487E+02  0.10670785937E+04  0.10785679113E+04  0.12499844616E+03 0.  0.
          2    1    1    2  501    0 -0.19804240488E+01 -0.45833372916E+02 -0.66337400512E+02  0.80655259338E+02  0.00000000000E+00 0. -1.
          1    1    1    2  502    0  0.95716247181E+02  0.30309264429E+02  0.10930429689E+04  0.10976443793E+04  0.00000000000E+00 0. -1.
         22    1    3    3    0    0 -0.45389235089E+02  0.51514083014E+02  0.24960768081E+03  0.25887811366E+03  0.00000000000E+00 0.  1.
         22    1    3    3    0    0 -0.48346588043E+02 -0.35989974527E+02  0.81747091293E+03  0.81968979762E+03  0.00000000000E+00 0.  1.
</event>
<event>
 7    1  0.6888431E-006  0.1276386E+03  0.7818608E-02  0.1298563E+00
          2   -1    0    0  502    0  0.00000000000E+00  0.00000000000E+00  0.20063805696E+03  0.20063805696E+03  0.00000000000E+00 0. -1.
          1   -1    0    0  501    0 -0.00000000000E+00 -0.00000000000E+00 -0.43443191851E+03  0.43443191851E+03  0.00000000000E+00 0. -1.
         25    2    1    2    0    0 -0.25432132108E+02 -0.10840910081E+03 -0.36228167815E+02  0.17127748382E+03  0.12499667931E+03 0.  0.
          2    1    1    2  501    0 -0.65735558515E+02  0.60839954822E+01 -0.29069497345E+03  0.29809687393E+03  0.00000000000E+00 0. -1.
          1    1    1    2  502    0  0.91167690623E+02  0.10232510533E+03  0.93129279710E+02  0.16569561772E+03  0.00000000000E+00 0. -1.
         22    1    3    3    0    0 -0.48970266531E+02  0.27200745410E+01  0.73841724285E+01  0.49598506148E+02  0.00000000000E+00 0.  1.
         22    1    3    3    0    0  0.23538134423E+02 -0.11112917535E+03 -0.43612340244E+02  0.12167897767E+03  0.00000000000E+00 0.  1.
</event>
<event>
 7    1  0.6888431E-006  0.5257929E+02  0.7818608E-02  0.1470504E+00
          2   -1    0    0  502    0  0.00000000000E+00  0.00000000000E+00  0.84998554380E+03  0.84998554380E+03  0.00000000000E+00 0. -1.
          1   -1    0    0  501    0 -0.00000000000E+00 -0.00000000000E+00 -0.11888880821E+04  0.11888880821E+04  0.00000000000E+00 0. -1.
         25    2    1    2    0    0 -0.49978111440E+02  0.13246277736E+02  0.18439534767E+03  0.22868972011E+03  0.12499627334E+03 0.  0.
          2    1    1    2  501    0  0.26766126877E+02 -0.45309043481E+02 -0.11655378694E+04  0.11667252719E+04  0.00000000000E+00 0. -1.
          1    1    1    2  502    0  0.23211984563E+02  0.32062765745E+02  0.64223998347E+03  0.64345863390E+03  0.00000000000E+00 0. -1.
         22    1    3    3    0    0  0.40619707264E+02  0.11586583685E+02  0.79902215870E+02  0.90380161765E+02  0.00000000000E+00 0. -1.
         22    1    3    3    0    0 -0.90597818703E+02  0.16596940517E+01  0.10449313180E+03  0.13830955835E+03  0.00000000000E+00 0. -1.
</event>
<event>
 7    1  0.6888431E-006  0.1085876E+03  0.7818608E-02  0.1296048E+00
          2   -1    0    0  502    0  0.00000000000E+00  0.00000000000E+00  0.56765420368E+03  0.56765420368E+03  0.00000000000E+00 0. -1.
          1   -1    0    0  501    0 -0.00000000000E+00 -0.00000000000E+00 -0.13185833012E+04  0.13185833012E+04  0.00000000000E+00 0. -1.
         25    2    1    2    0    0  0.11764801164E+03  0.11816705282E+03 -0.77338030120E+02  0.22228619343E+03  0.12500189547E+03 0.  0.
          2    1    1    2  501    0 -0.40557084237E+02 -0.99047317219E+02 -0.11631133120E+04  0.11680273219E+04  0.00000000000E+00 0. -1.
          1    1    1    2  502    0 -0.77090927407E+02 -0.19119735604E+02  0.48952224464E+03  0.49592398952E+03  0.00000000000E+00 0. -1.
         22    1    3    3    0    0  0.23944945374E+02  0.11000154556E+03 -0.56445139775E+02  0.12593551619E+03  0.00000000000E+00 0.  1.
         22    1    3    3    0    0  0.93703066270E+02  0.81655072631E+01 -0.20892890345E+02  0.96350677238E+02  0.00000000000E+00 0.  1.
</event>
<event>
 7    1  0.6888431E-006  0.1439192E+03  0.7818608E-02  0.1354763E+00
          2   -1    0    0  502    0  0.00000000000E+00  0.00000000000E+00  0.36021204566E+03  0.36021204566E+03  0.00000000000E+00 0. -1.
          1   -1    0    0  501    0 -0.00000000000E+00 -0.00000000000E+00 -0.17793746347E+04  0.17793746347E+04  0.00000000000E+00 0. -1.
         25    2    1    2    0    0 -0.98722173757E+02  0.56947212995E+02  0.69046224146E+02  0.18270799935E+03  0.12500311716E+03 0.  0.
          2    1    1    2  501    0  0.11394047980E+03 -0.89144539157E+02 -0.17181329575E+04  0.17242128760E+04  0.00000000000E+00 0. -1.
          1    1    1    2  502    0 -0.15218306043E+02  0.32197326162E+02  0.22992414439E+03  0.23266580502E+03  0.00000000000E+00 0. -1.
         22    1    3    3    0    0 -0.53539670601E+02 -0.93020543548E+01  0.85058066863E+02  0.10093512412E+03  0.00000000000E+00 0. -1.
         22    1    3    3    0    0 -0.45182503156E+02  0.66249267350E+02 -0.16011842717E+02  0.81772875228E+02  0.00000000000E+00 0. -1.
</event>
<event>
 7    1  0.6888431E-006  0.4634663E+02  0.7818608E-02  0.1513399E+00
          2   -1    0    0  502    0  0.00000000000E+00  0.00000000000E+00  0.10485665114E+04  0.10485665114E+04  0.00000000000E+00 0. -1.
          1   -1    0    0  501    0 -0.00000000000E+00 -0.00000000000E+00 -0.10318741668E+03  0.10318741668E+03  0.00000000000E+00 0. -1.
         25    2    1    2    0    0 -0.38206304951E+02  0.54407047101E+02  0.30136189639E+03  0.33296272941E+03  0.12500135228E+03 0.  0.
          2    1    1    2  501    0 -0.23559542296E+01 -0.33247609350E+02 -0.83463831215E+02  0.89873050292E+02  0.00000000000E+00 0. -1.
          1    1    1    2  502    0  0.40562259181E+02 -0.21159437751E+02  0.72748102955E+03  0.72891814838E+03  0.00000000000E+00 0. -1.
         22    1    3    3    0    0 -0.28202127497E+02 -0.34991193034E+02  0.15295728579E+03  0.15942294333E+03  0.00000000000E+00 0.  1.
         22    1    3    3    0    0 -0.10004177455E+02  0.89398240135E+02  0.14840461060E+03  0.17353978608E+03  0.00000000000E+00 0.  1.
</event>
<event>
 7    1  0.6888431E-006  0.1728423E+03  0.7818608E-02  0.1206747E+00
          2   -1    0    0  502    0  0.00000000000E+00  0.00000000000E+00  0.89603544203E+03  0.89603544203E+03  0.00000000000E+00 0. -1.
          1   -1    0    0  501    0 -0.00000000000E+00 -0.00000000000E+00 -0.66587780711E+03  0.66587780711E+03  0.00000000000E+00 0. -1.
         25    2    1    2    0    0  0.83697890911E+02  0.16011533626E+02 -0.61069815535E+02  0.16314563542E+03  0.12500107934E+03 0.  0.
          2    1    1    2  501    0 -0.19784752082E+03 -0.58077179849E+02 -0.52993810249E+03  0.56863959832E+03  0.00000000000E+00 0. -1.
          1    1    1    2  502    0  0.11414962991E+03  0.42065646224E+02  0.82116555295E+03  0.83012801540E+03  0.00000000000E+00 0. -1.
         22    1    3    3    0    0 -0.24249818647E+02 -0.13977978521E+02 -0.40509274045E+02  0.49238591284E+02  0.00000000000E+00 0.  1.
         22    1    3    3    0    0  0.10794770956E+03  0.29989512146E+02 -0.20560541490E+02  0.11390704414E+03  0.00000000000E+00 0.  1.
</event>
<event>
 7    1  0.6888431E-006  0.7140060E+02  0.7818608E-02  0.1493957E+00
          2   -1    0    0  502    0  0.00000000000E+00  0.00000000000E+00  0.40752544400E+03  0.40752544400E+03  0.00000000000E+00 0. -1.
          1   -1    0    0  501    0 -0.00000000000E+00 -0.00000000000E+00 -0.15592414793E+04  0.15592414793E+04  0.00000000000E+00 0. -1.
         25    2    1    2    0    0 -0.80265615880E+02  0.49306571724E+02 -0.79661228416E+02  0.17562727530E+03  0.12500128562E+03 0.  0.
          2    1    1    2  501    0  0.23815953631E+02 -0.65910733357E+01 -0.14280048808E+04  0.14282186742E+04  0.00000000000E+00 0. -1.
          1    1    1    2  502    0  0.56449662249E+02 -0.42715498388E+02  0.35595007385E+03  0.36292097383E+03  0.00000000000E+00 0. -1.
         22    1    3    3    0    0 -0.91230836869E+02  0.54757979810E+02 -0.12241430147E+02  0.10710440962E+03  0.00000000000E+00 0.  1.
         22    1    3    3    0    0  0.10965220989E+02 -0.54514080867E+01 -0.67419798269E+02  0.68522865674E+02  0.00000000000E+00 0.  1.
</event>
<event>
 7    1  0.6888431E-006  0.1264731E+03  0.7818608E-02  0.1262543E+00
          2   -1    0    0  502    0  0.00000000000E+00  0.00000000000E+00  0.85264405985E+03  0.85264405985E+03  0.00000000000E+00 0. -1.
          1   -1    0    0  501    0 -0.00000000000E+00 -0.00000000000E+00 -0.15809575292E+04  0.15809575292E+04  0.00000000000E+00 0. -1.
         25    2    1    2    0    0 -0.83832841735E+02  0.34018773418E+02 -0.13847225565E+02  0.15492645382E+03  0.12500095255E+03 0.  0.
          2    1    1    2  501    0  0.46748548970E+02 -0.12021961586E+03 -0.14909612038E+04  0.14965304855E+04  0.00000000000E+00 0. -1.
          1    1    1    2  502    0  0.37084292765E+02  0.86200842446E+02  0.77649496006E+03  0.78214464967E+03  0.00000000000E+00 0. -1.
         22    1    3    3    0    0 -0.30325244821E+02  0.30325043485E+02 -0.66912792215E+02  0.79476729285E+02  0.00000000000E+00 0.  1.
         22    1    3    3    0    0 -0.53507596914E+02  0.36937299338E+01  0.53065566650E+02  0.75449724534E+02  0.00000000000E+00 0.  1.
</event>
<event>
 7    1  0.6888431E-006  0.1094133E+03  0.7818608E-02  0.1339808E+00
          2   -1    0    0  502    0  0.00000000000E+00  0.00000000000E+00  0.19274787063E+03  0.19274787063E+03  0.00000000000E+00 0. -1.
          1   -1    0    0  501    0 -0.00000000000E+00 -0.00000000000E+00 -0.47959512964E+03  0.47959512964E+03  0.00000000000E+00 0. -1.
         25    2    1    2    0    0  0.13852557064E+03 -0.78401680481E+02 -0.24263159956E+03  0.31595990787E+03  0.12499765218E+03 0.  0.
          2    1    1    2  501    0 -0.48064821400E+02  0.22913186286E+02 -0.17789977455E+03  0.18569752542E+03  0.00000000000E+00 0. -1.
          1    1    1    2  502    0 -0.90460749244E+02  0.55488494195E+02  0.13368411510E+03  0.17068556697E+03  0.00000000000E+00 0. -1.
         22    1    3    3    0    0  0.98876138538E+02 -0.20531975306E+02 -0.22029735980E+03  0.24234062704E+03  0.00000000000E+00 0. -1.
         22    1    3    3    0    0  0.39649432106E+02 -0.57869705175E+02 -0.22334239763E+02  0.73619280825E+02  0.00000000000E+00 0. -1.
</event>
<event>
 7    1  0.6888431E-006  0.1181291E+03  0.7818608E-02  0.1312083E+00
          2   -1    0    0  502    0  0.00000000000E+00  0.00000000000E+00  0.13066264265E+04  0.13066264265E+04  0.00000000000E+00 0. -1.
          1   -1    0    0  501    0 -0.00000000000E+00 -0.00000000000E+00 -0.13264909136E+03  0.13264909136E+03  0.00000000000E+00 0. -1.
         25    2    1    2    0    0 -0.50564198963E+02  0.92163178770E+02  0.18724266379E+03  0.24846810002E+03  0.12500316735E+03 0.  0.
          2    1    1    2  501    0 -0.54446503986E+02 -0.31771450886E+02 -0.88563364221E+02  0.10870748074E+03  0.00000000000E+00 0. -1.
          1    1    1    2  502    0  0.10501070295E+03 -0.60391727884E+02  0.10752980356E+04  0.10820999371E+04  0.00000000000E+00 0. -1.
         22    1    3    3    0    0  0.93773771781E+01  0.60130387387E+02  0.14107268708E+02  0.62470902990E+02  0.00000000000E+00 0.  1.
         22    1    3    3    0    0 -0.59941576141E+02  0.32032791383E+02  0.17313539508E+03  0.18599719703E+03  0.00000000000E+00 0.  1.
</event>
<event>
 7    1  0.6888431E-006  0.3711428E+02  0.7818608E-02  0.1557004E+00
          2   -1    0    0  502    0  0.00000000000E+00  0.00000000000E+00  0.19949843393E+04  0.19949843393E+04  0.00000000000E+00 0. -1.
          1   -1    0    0  501    0 -0.00000000000E+00 -0.00000000000E+00 -0.21706683644E+02  0.21706683644E+02  0.00000000000E+00 0. -1.
         25    2    1    2    0    0  0.27710789544E+02  0.27536627622E+02  0.70122352244E+03  0.71334755738E+03  0.12499662183E+03 0.  0.
          2    1    1    2  501    0  0.98241615827E+01 -0.29695237202E+02  0.54934767645E+00  0.31282951366E+02  0.00000000000E+00 0. -1.
          1    1    1    2  502    0 -0.37534951127E+02  0.21586095801E+01  0.12715047855E+04  0.12720605142E+04  0.00000000000E+00 0. -1.
         22    1    3    3    0    0 -0.25585899513E+02  0.61979988671E+02  0.38967397595E+03  0.39540101768E+03  0.00000000000E+00 0. -1.
         22    1    3    3    0    0  0.53296689057E+02 -0.34443361049E+02  0.31154954649E+03  0.31794653970E+03  0.00000000000E+00 0. -1.
</event>
<event>
 7    1  0.6888431E-006  0.6929993E+02  0.7818608E-02  0.1420819E+00
          2   -1    0    0  502    0  0.00000000000E+00  0.00000000000E+00  0.22378305938E+04  0.22378305938E+04  0.00000000000E+00 0. -1.
          1   -1    0    0  501    0 -0.00000000000E+00 -0.00000000000E+00 -0.10817423163E+04  0.10817423163E+04  0.00000000000E+00 0. -1.
         25    2    1    2    0    0 -0.24484763791E+02  0.48954634451E+02  0.30581218200E+03  0.33487607096E+03  0.12499932941E+03 0.  0.
          2    1    1    2  501    0 -0.39157165369E+02 -0.18738780233E+02 -0.10661214083E+04  0.10670048185E+04  0.00000000000E+00 0. -1.
          1    1    1    2  502    0  0.63641929160E+02 -0.30215854218E+02  0.19163975038E+04  0.19176920206E+04  0.00000000000E+00 0. -1.
         22    1    3    3    0    0  0.31293707647E+02  0.69663966848E+02  0.18715797666E+03  0.20213973544E+03  0.00000000000E+00 0.  1.
         22    1    3    3    0    0 -0.55778471438E+02 -0.20709332397E+02  0.11865420533E+03  0.13273633552E+03  0.00000000000E+00 0.  1.
</event>
<event>
 7    1  0.6888431E-006  0.1236797E+03  0.7818608E-02  0.1279262E+00
          2   -1    0    0  502    0  0.00000000000E+00  0.00000000000E+00  0.48054248336E+04  0.48054248336E+04  0.00000000000E+00 0. -1.
          1   -1    0    0  501    0 -0.00000000000E+00 -0.00000000000E+00 -0.15474993700E+04  0.15474993700E+04  0.00000000000E+00 0. -1.
         25    2    1    2    0    0  0.10255226021E+03 -0.78153626726E+02 -0.27242124888E+03  0.32628689922E+03  0.12499939328E+03 0.  0.
          2    1    1    2  501    0 -0.33284464467E+02  0.12138861934E+03 -0.12446220396E+04  0.12509704529E+04  0.00000000000E+00 0. -1.
          1    1    1    2  502    0 -0.69267795740E+02 -0.43234992611E+02  0.47749687522E+04  0.47756668515E+04  0.00000000000E+00 0. -1.
         22    1    3    3    0    0  0.12410748367E+03 -0.37168498879E+02 -0.16876945351E+03  0.21276111780E+03  0.00000000000E+00 0.  1.
         22    1    3    3    0    0 -0.21555223463E+02 -0.40985127847E+02 -0.10365179537E+03  0.11352578142E+03  0.00000000000E+00 0.  1.
</event>
<event>
 7    1  0.6888431E-006  0.6413755E+02  0.7818608E-02  0.1458631E+00
          2   -1    0    0  502    0  0.00000000000E+00  0.00000000000E+00  0.11959930186E+04  0.11959930186E+04  0.00000000000E+00 0. -1.
          1   -1    0    0  501    0 -0.00000000000E+00 -0.00000000000E+00 -0.12845462107E+03  0.12845462107E+03  0.00000000000E+00 0. -1.
         25    2    1    2    0    0 -0.56266818236E+02 -0.80521735871E+02  0.29081173880E+03  0.33143027102E+03  0.12499940935E+03 0.  0.
          2    1    1    2  501    0  0.38857816994E+02  0.49752217533E+02 -0.98545385135E+02  0.11703164539E+03  0.00000000000E+00 0. -1.
          1    1    1    2  502    0  0.17409001242E+02  0.30769518338E+02  0.87527204384E+03  0.87598572323E+03  0.00000000000E+00 0. -1.
         22    1    3    3    0    0 -0.41985335460E+02 -0.97196778956E+02  0.12344818563E+03  0.16263282808E+03  0.00000000000E+00 0.  1.
         22    1    3    3    0    0 -0.14281482776E+02  0.16675043085E+02  0.16736355317E+03  0.16879744294E+03  0.00000000000E+00 0.  1.
</event>
<event>
 7    1  0.6888431E-006  0.7775828E+02  0.7818608E-02  0.1373261E+00
          2   -1    0    0  502    0  0.00000000000E+00  0.00000000000E+00  0.68373210650E+03  0.68373210650E+03  0.00000000000E+00 0. -1.
          1   -1    0    0  501    0 -0.00000000000E+00 -0.00000000000E+00 -0.54151995092E+03  0.54151995092E+03  0.00000000000E+00 0. -1.
         25    2    1    2    0    0  0.93464187598E+02  0.91706649994E+02  0.11237519338E+03  0.21307135138E+03  0.12500221068E+03 0.  0.
          2    1    1    2  501    0 -0.36331639888E+02 -0.43239752533E+02 -0.48683751591E+03  0.49010247005E+03  0.00000000000E+00 0. -1.
          1    1    1    2  502    0 -0.57132547710E+02 -0.48466897461E+02  0.51667447811E+03  0.52207823598E+03  0.00000000000E+00 0. -1.
         22    1    3    3    0    0  0.79165278068E+02  0.21275174965E+02  0.11491668628E+03  0.14115813511E+03  0.00000000000E+00 0.  1.
         22    1    3    3    0    0  0.14298909531E+02  0.70431475028E+02 -0.25414928983E+01  0.71913216272E+02  0.00000000000E+00 0.  1.
</event>
<event>
 7    1  0.6888431E-006  0.1035787E+03  0.7818608E-02  0.1327231E+00
          2   -1    0    0  502    0  0.00000000000E+00  0.00000000000E+00  0.87293128541E+03  0.87293128541E+03  0.00000000000E+00 0. -1.
          1   -1    0    0  501    0 -0.00000000000E+00 -0.00000000000E+00 -0.39808830165E+03  0.39808830165E+03  0.00000000000E+00 0. -1.
         25    2    1    2    0    0 -0.29718504133E+02 -0.13082752117E+03 -0.24318925757E+03  0.30457364376E+03  0.12500023876E+03 0.  0.
          2    1    1    2  501    0 -0.16951391025E+02  0.88822918474E+02 -0.10639519305E+03  0.13963093357E+03  0.00000000000E+00 0. -1.
          1    1    1    2  502    0  0.46669895159E+02  0.42004602694E+02  0.82442743438E+03  0.82681500974E+03  0.00000000000E+00 0. -1.
         22    1    3    3    0    0  0.41106707161E+01 -0.33618667315E+01 -0.13191710565E+03  0.13202394678E+03  0.00000000000E+00 0.  1.
         22    1    3    3    0    0 -0.33829174850E+02 -0.12746565444E+03 -0.11127215192E+03  0.17254969697E+03  0.00000000000E+00 0.  1.
</event>
<event>
 7    1  0.6888431E-006  0.8507910E+02  0.7818608E-02  0.1368177E+00
          2   -1    0    0  502    0  0.00000000000E+00  0.00000000000E+00  0.14816920065E+04  0.14816920065E+04  0.00000000000E+00 0. -1.
          1   -1    0    0  501    0 -0.00000000000E+00 -0.00000000000E+00 -0.10922511642E+04  0.10922511642E+04  0.00000000000E+00 0. -1.
         25    2    1    2    0    0  0.52276717115E+02 -0.89244614623E+02  0.61335322814E+03  0.63444832610E+03  0.12500015853E+03 0.  0.
          2    1    1    2  501    0 -0.53565498052E+02  0.53652322387E+01 -0.10789799210E+04  0.10803220438E+04  0.00000000000E+00 0. -1.
          1    1    1    2  502    0  0.12887809373E+01  0.83879382384E+02  0.85506753527E+03  0.85917280079E+03  0.00000000000E+00 0. -1.
         22    1    3    3    0    0  0.26456936990E+02  0.12798672809E+02  0.34408415551E+03  0.34533705508E+03  0.00000000000E+00 0.  1.
         22    1    3    3    0    0  0.25819780125E+02 -0.10204328743E+03  0.26926907263E+03  0.28911127102E+03  0.00000000000E+00 0.  1.
</event>
<event>
 7    1  0.6888431E-006  0.1142367E+03  0.7818608E-02  0.1322103E+00
          2   -1    0    0  502    0  0.00000000000E+00  0.00000000000E+00  0.18864450348E+03  0.18864450348E+03  0.00000000000E+00 0. -1.
          1   -1    0    0  501    0 -0.00000000000E+00 -0.00000000000E+00 -0.44210503776E+03  0.44210503776E+03  0.00000000000E+00 0. -1.
         25    2    1    2    0    0 -0.15844679948E+02  0.76275729907E+02 -0.82479277699E+02  0.16880873931E+03  0.12499807344E+03 0.  0.
          2    1    1    2  501    0 -0.54078198854E+02  0.25007070077E+02 -0.28680982652E+03  0.29293289630E+03  0.00000000000E+00 0. -1.
          1    1    1    2  502    0  0.69922878802E+02 -0.10128279998E+03  0.11582856994E+03  0.16900790564E+03  0.00000000000E+00 0. -1.
         22    1    3    3    0    0 -0.59371704648E+02  0.67678170362E+02 -0.85734982167E+02  0.12432144314E+03  0.00000000000E+00 0.  1.
         22    1    3    3    0    0  0.43527024700E+02  0.85975595450E+01  0.32557044683E+01  0.44487296174E+02  0.00000000000E+00 0.  1.
</event>
<event>
 7    1  0.6888431E-006  0.7176664E+02  0.7818608E-02  0.1417383E+00
          2   -1    0    0  502    0  0.00000000000E+00  0.00000000000E+00  0.13310890880E+04  0.13310890880E+04  0.00000000000E+00 0. -1.
          1   -1    0    0  501    0 -0.00000000000E+00 -0.00000000000E+00 -0.64213550309E+02  0.64213550309E+02  0.00000000000E+00 0. -1.
         25    2    1    2    0    0  0.36700036538E+01 -0.93130330515E+02  0.53129889200E+03  0.55370497724E+03  0.12499584709E+03 0.  0.
          2    1    1    2  501    0 -0.33990897864E+02  0.62581536420E+02 -0.28209071004E+02  0.76600140504E+02  0.00000000000E+00 0. -1.
          1    1    1    2  502    0  0.30320894210E+02  0.30548794094E+02  0.76378571671E+03  0.76499752058E+03  0.00000000000E+00 0. -1.
         22    1    3    3    0    0  0.57143380297E+02 -0.41020137351E+02  0.15709105815E+03  0.17212094042E+03  0.00000000000E+00 0. -1.
         22    1    3    3    0    0 -0.53473376644E+02 -0.52110193164E+02  0.37420783385E+03  0.38158403682E+03  0.00000000000E+00 0. -1.
</event>
<event>
 7    1  0.6888431E-006  0.4371345E+02  0.7818608E-02  0.1553384E+00
          2   -1    0    0  502    0  0.00000000000E+00  0.00000000000E+00  0.62390409757E+03  0.62390409757E+03  0.00000000000E+00 0. -1.
          1   -1    0    0  501    0 -0.00000000000E+00 -0.00000000000E+00 -0.38952879563E+03  0.38952879563E+03  0.00000000000E+00 0. -1.
         25    2    1    2    0    0 -0.26679676023E+02  0.29078026048E+02 -0.10858196925E+03  0.17021309427E+03  0.12500046681E+03 0.  0.
          2    1    1    2  501    0 -0.16466147505E+02 -0.21620258266E+02 -0.24858154169E+03  0.25006269704E+03  0.00000000000E+00 0. -1.
          1    1    1    2  502    0  0.43145823528E+02 -0.74577677820E+01  0.59153881288E+03  0.59315710189E+03  0.00000000000E+00 0. -1.
         22    1    3    3    0    0  0.26999753340E+02  0.11399819133E+02  0.16014947360E+02  0.33397920529E+02  0.00000000000E+00 0. -1.
         22    1    3    3    0    0 -0.53679429363E+02  0.17678206915E+02 -0.12459691661E+03  0.13681517374E+03  0.00000000000E+00 0. -1.
</event>
<event>
 7    1  0.6888431E-006  0.3590679E+02  0.7818608E-02  0.1579633E+00
          2   -1    0    0  502    0  0.00000000000E+00  0.00000000000E+00  0.91783883907E+02  0.91783883907E+02  0.00000000000E+00 0. -1.
          1   -1    0    0  501    0 -0.00000000000E+00 -0.00000000000E+00 -0.31977111204E+03  0.31977111204E+03  0.00000000000E+00 0. -1.
         25    2    1    2    0    0  0.24236689125E+02  0.46588000611E+01 -0.23012579177E+02  0.12947682423E+03  0.12500219076E+03 0.  0.
          2    1    1    2  501    0 -0.17575682603E+02 -0.31910092802E+02 -0.23683886999E+03  0.23962430799E+03  0.00000000000E+00 0. -1.
          1    1    1    2  502    0 -0.66610065217E+01  0.27251292740E+02  0.31864221032E+02  0.42453863733E+02  0.00000000000E+00 0. -1.
         22    1    3    3    0    0 -0.11857542901E+02  0.53623434443E+02 -0.38053903424E+02  0.66814471568E+02  0.00000000000E+00 0.  1.
         22    1    3    3    0    0  0.36094232025E+02 -0.48964634382E+02  0.15041324247E+02  0.62662352659E+02  0.00000000000E+00 0.  1.
</event>
<event>
 7    1  0.6888431E-006  0.1923459E+03  0.7818608E-02  0.1228154E+00
          2   -1    0    0  502    0  0.00000000000E+00  0.00000000000E+00  0.71393080870E+03  0.71393080870E+03  0.00000000000E+00 0. -1.
          1   -1    0    0  501    0 -0.00000000000E+00 -0.00000000000E+00 -0.55353005866E+03  0.55353005866E+03  0.00000000000E+00 0. -1.
         25    2    1    2    0    0  0.71165018242E+02 -0.20186475448E+03  0.93329064676E+02  0.26485708216E+03  0.12500048294E+03 0.  0.
          2    1    1    2  501    0 -0.13188188852E+03  0.13923578199E+03 -0.44425916341E+03  0.48388597808E+03  0.00000000000E+00 0. -1.
          1    1    1    2  502    0  0.60716870275E+02  0.62628972484E+02  0.51133084877E+03  0.51871780713E+03  0.00000000000E+00 0. -1.
         22    1    3    3    0    0  0.32245057844E+02 -0.79910610385E+02 -0.25838405345E+02  0.89961506203E+02  0.00000000000E+00 0. -1.
         22    1    3    3    0    0  0.38919960398E+02 -0.12195414409E+03  0.11916747002E+03  0.17489557596E+03  0.00000000000E+00 0. -1.
</event>
<event>
 7    1  0.6888431E-006  0.6355786E+02  0.7818608E-02  0.1527975E+00
          2   -1    0    0  502    0  0.00000000000E+00  0.00000000000E+00  0.27658088438E+03  0.27658088438E+03  0.00000000000E+00 0. -1.
          1   -1    0    0  501    0 -0.00000000000E+00 -0.00000000000E+00 -0.49998728241E+03  0.49998728241E+03  0.00000000000E+00 0. -1.
         25    2    1    2    0    0  0.57161098160E+02  0.15984567753E+02 -0.10218093667E+03  0.17199805982E+03  0.12497796291E+03 0.  0.
          2    1    1    2  501    0  0.64307234576E+01 -0.21091408839E+02 -0.35834274512E+03  0.35902050737E+03  0.00000000000E+00 0. -1.
          1    1    1    2  502    0 -0.63591821618E+02  0.51068410855E+01  0.23711728376E+03  0.24554959960E+03  0.00000000000E+00 0. -1.
         22    1    3    3    0    0 -0.26908201526E+02 -0.35802331117E+01 -0.77658876076E+02  0.82266459823E+02  0.00000000000E+00 0. -1.
         22    1    3    3    0    0  0.84069299686E+02  0.19564800865E+02 -0.24522060597E+02  0.89731600000E+02  0.00000000000E+00 0. -1.
</event>
<event>
 7    1  0.6888431E-006  0.1426585E+03  0.7818608E-02  0.1306682E+00
          2   -1    0    0  502    0  0.00000000000E+00  0.00000000000E+00  0.21084977893E+04  0.21084977893E+04  0.00000000000E+00 0. -1.
          1   -1    0    0  501    0 -0.00000000000E+00 -0.00000000000E+00 -0.12811912074E+03  0.12811912074E+03  0.00000000000E+00 0. -1.
         25    2    1    2    0    0  0.55199379039E+02  0.16375190721E+03  0.19739840347E+03  0.29060611890E+03  0.12499651231E+03 0.  0.
          2    1    1    2  501    0 -0.49973191540E+02 -0.22546081672E+02 -0.69291583975E+02  0.88357055639E+02  0.00000000000E+00 0. -1.
          1    1    1    2  502    0 -0.52261874990E+01 -0.14120582554E+03  0.18522718491E+04  0.18576537355E+04  0.00000000000E+00 0. -1.
         22    1    3    3    0    0  0.85858956349E+02  0.12060743833E+03  0.96655714576E+02  0.17680566090E+03  0.00000000000E+00 0. -1.
         22    1    3    3    0    0 -0.30659577310E+02  0.43144468882E+02  0.10074268890E+03  0.11380045801E+03  0.00000000000E+00 0. -1.
</event>
<event>
 7    1  0.6888431E-006  0.1391525E+03  0.7818608E-02  0.1224829E+00
          2   -1    0    0  502    0  0.00000000000E+00  0.00000000000E+00  0.17665268613E+04  0.17665268613E+04  0.00000000000E+00 0. -1.
          1   -1    0    0  501    0 -0.00000000000E+00 -0.00000000000E+00 -0.85898519074E+03  0.85898519074E+03  0.00000000000E+00 0. -1.
         25    2    1    2    0    0  0.93641526381E+02  0.27412413560E+02  0.44656579739E+03  0.47388347107E+03  0.12499742748E+03 0.  0.
          2    1    1    2  501    0 -0.32827787942E+02 -0.13640372040E+03 -0.83648974822E+03  0.84817376609E+03  0.00000000000E+00 0. -1.
          1    1    1    2  502    0 -0.60813738439E+02  0.10899130684E+03  0.12974656214E+04  0.13034548149E+04  0.00000000000E+00 0. -1.
         22    1    3    3    0    0 -0.60144424931E+01  0.53654507311E+02  0.12367394160E+03  0.13494526114E+03  0.00000000000E+00 0. -1.
         22    1    3    3    0    0  0.99655968874E+02 -0.26242093751E+02  0.32289185579E+03  0.33893820994E+03  0.00000000000E+00 0. -1.
</event>
<event>
 7    1  0.6888431E-006  0.1048083E+03  0.7818608E-02  0.1396626E+00
          2   -1    0    0  502    0  0.00000000000E+00  0.00000000000E+00  0.11807163041E+04  0.11807163041E+04  0.00000000000E+00 0. -1.
          1   -1    0    0  501    0 -0.00000000000E+00 -0.00000000000E+00 -0.85788084738E+03  0.85788084738E+03  0.00000000000E+00 0. -1.
         25    2    1    2    0    0  0.15917941598E+02 -0.99469797245E+02  0.39141989165E+03  0.42306256110E+03  0.12499911039E+03 0.  0.
          2    1    1    2  501    0 -0.34197661457E+02 -0.57595122614E+01 -0.83801212763E+03  0.83872938311E+03  0.00000000000E+00 0. -1.
          1    1    1    2  502    0  0.18279719859E+02  0.10522930951E+03  0.76942769268E+03  0.77680520724E+03  0.00000000000E+00 0. -1.
         22    1    3    3    0    0  0.28174363917E+02 -0.69903390389E+02  0.79656414664E+02  0.10966049046E+03  0.00000000000E+00 0.  1.
         22    1    3    3    0    0 -0.12256422319E+02 -0.29566406857E+02  0.31176347698E+03  0.31340207064E+03  0.00000000000E+00 0.  1.
</event>
<event>
 7    1  0.6888431E-006  0.7621499E+02  0.7818608E-02  0.1506528E+00
          2   -1    0    0  502    0  0.00000000000E+00  0.00000000000E+00  0.19792262316E+03  0.19792262316E+03  0.00000000000E+00 0. -1.
          1   -1    0    0  501    0 -0.00000000000E+00 -0.00000000000E+00 -0.51994366513E+03  0.51994366513E+03  0.00000000000E+00 0. -1.
         25    2    1    2    0    0  0.54406904644E+02 -0.43225763318E+02 -0.32153835749E+01  0.14305097631E+03  0.12499866097E+03 0.  0.
          2    1    1    2  501    0 -0.85502801915E+01 -0.19437507539E+02 -0.43475149762E+03  0.43526978838E+03  0.00000000000E+00 0. -1.
          1    1    1    2  502    0 -0.45856624452E+02  0.62663270857E+02  0.11594583923E+03  0.13954552360E+03  0.00000000000E+00 0. -1.
         22    1    3    3    0    0 -0.12509291730E+02 -0.42796439063E+02 -0.45650988012E+02  0.63812461812E+02  0.00000000000E+00 0. -1.
         22    1    3    3    0    0  0.66916196374E+02 -0.42932425485E+00  0.42435604437E+02  0.79238514501E+02  0.00000000000E+00 0. -1.
</event>
<event>
 7    1  0.6888431E-006  0.9795430E+02  0.7818608E-02  0.1333913E+00
          2   -1    0    0  502    0  0.00000000000E+00  0.00000000000E+00  0.55192405819E+03  0.55192405819E+03  0.00000000000E+00 0. -1.
          1   -1    0    0  501    0 -0.00000000000E+00 -0.00000000000E+00 -0.63279851001E+03  0.63279851001E+03  0.00000000000E+00 0. -1.
         25    2    1    2    0    0 -0.60623674622E+02  0.63924653686E+00 -0.52101250873E+01  0.13902156411E+03  0.12499684525E+03 0.  0.
          2    1    1    2  501    0 -0.21706394623E+02  0.58724169090E+02 -0.55358852973E+03  0.55711754222E+03  0.00000000000E+00 0. -1.
          1    1    1    2  502    0  0.82330069245E+02 -0.59363415627E+02  0.47792420299E+03  0.48858346188E+03  0.00000000000E+00 0. -1.
         22    1    3    3    0    0 -0.65563961293E+02  0.44751784188E+02 -0.33741480390E+02  0.86254522823E+02  0.00000000000E+00 0. -1.
         22    1    3    3    0    0  0.49402866709E+01 -0.44112537651E+02  0.28531355303E+02  0.52767041284E+02  0.00000000000E+00 0. -1.
</event>
<event>
 7    1  0.6888431E-006  0.7354829E+02  0.7818608E-02  0.1352934E+00
          2   -1    0    0  502    0  0.00000000000E+00  0.00000000000E+00  0.35506542739E+03  0.35506542739E+03  0.00000000000E+00 0. -1.
          1   -1    0    0  501    0 -0.00000000000E+00 -0.00000000000E+00 -0.10498390830E+04  0.10498390830E+04  0.00000000000E+00 0. -1.
         25    2    1    2    0    0 -0.31112531827E+02 -0.69479033055E+02  0.48887918299E+02  0.15430770791E+03  0.12500205796E+03 0.  0.
          2    1    1    2  501    0  0.73012783051E+02  0.88591550529E+01 -0.99038051325E+03  0.99310770420E+03  0.00000000000E+00 0. -1.
          1    1    1    2  502    0 -0.41900251224E+02  0.60619878002E+02  0.24671893938E+03  0.25748909824E+03  0.00000000000E+00 0. -1.
         22    1    3    3    0    0  0.86545683972E+01  0.33070068864E+02  0.23334104189E+02  0.41388542221E+02  0.00000000000E+00 0. -1.
         22    1    3    3    0    0 -0.39767100225E+02 -0.10254910192E+03  0.25553814109E+02  0.11291916569E+03  0.00000000000E+00 0. -1.
</event>
<event>
 7    1  0.6888431E-006  0.7444279E+02  0.7818608E-02  0.1411597E+00
          2   -1    0    0  502    0  0.00000000000E+00  0.00000000000E+00  0.22459357750E+04  0.22459357750E+04  0.00000000000E+00 0. -1.
          1   -1    0    0  501    0 -0.00000000000E+00 -0.00000000000E+00 -0.34446988362E+02  0.34446988362E+02  0.00000000000E+00 0. -1.
         25    2    1    2    0    0  0.30150534731E+02 -0.11062465489E+03  0.13334966850E+04  0.13442413564E+04  0.12499818617E+03 0.  0.
          2    1    1    2  501    0 -0.28570150342E+02  0.67255333130E+02  0.18265814718E+02  0.75320470738E+02  0.00000000000E+00 0. -1.
          1    1    1    2  502    0 -0.15803843884E+01  0.43369321757E+02  0.85972628698E+03  0.86082093621E+03  0.00000000000E+00 0. -1.
         22    1    3    3    0    0  0.25704544384E+02  0.22275700478E+02  0.18798226903E+03  0.19103471911E+03  0.00000000000E+00 0.  1.
         22    1    3    3    0    0  0.44459903468E+01 -0.13290035536E+03  0.11455144159E+04  0.11532066373E+04  0.00000000000E+00 0.  1.
</event>
<event>
 7    1  0.6888431E-006  0.9561621E+02  0.7818608E-02  0.1471021E+00
          2   -1    0    0  502    0  0.00000000000E+00  0.00000000000E+00  0.14348825763E+04  0.14348825763E+04  0.00000000000E+00 0. -1.
          1   -1    0    0  501    0 -0.00000000000E+00 -0.00000000000E+00 -0.65934675923E+02  0.65934675923E+02  0.00000000000E+00 0. -1.
         25    2    1    2    0    0  0.10844355897E+03 -0.27558230270E+02  0.10089436478E+04  0.10227965384E+04  0.12500405221E+03 0.  0.
          2    1    1    2  501    0 -0.88210789718E+02  0.35363878682E+02 -0.20233089815E+02  0.97165453025E+02  0.00000000000E+00 0. -1.
          1    1    1    2  502    0 -0.20232769249E+02 -0.78056484126E+01  0.38023734242E+03  0.38085526079E+03  0.00000000000E+00 0. -1.
         22    1    3    3    0    0  0.11248257849E+03  0.21183707006E+02  0.80348775880E+03  0.81159944459E+03  0.00000000000E+00 0. -1.
         22    1    3    3    0    0 -0.40390195260E+01 -0.48741937276E+02  0.20545588900E+03  0.21119709385E+03  0.00000000000E+00 0. -1.
</event>
<event>
 7    1  0.6888431E-006  0.2350323E+03  0.7818608E-02  0.1233835E+00
          2   -1    0    0  502    0  0.00000000000E+00  0.00000000000E+00  0.15628506352E+04  0.15628506352E+04  0.00000000000E+00 0. -1.
          1   -1    0    0  501    0 -0.00000000000E+00 -0.00000000000E+00 -0.64603925209E+03  0.64603925209E+03  0.00000000000E+00 0. -1.
         25    2    1    2    0    0  0.17163122756E+03 -0.14588830275E+03 -0.14603721184E+03  0.29612938229E+03  0.12500027465E+03 0.  0.
          2    1    1    2  501    0  0.44178651610E+02  0.50804262852E+02 -0.41286695391E+03  0.41832038920E+03  0.00000000000E+00 0. -1.
          1    1    1    2  502    0 -0.21580987917E+03  0.95084039894E+02  0.14757155489E+04  0.14944401158E+04  0.00000000000E+00 0. -1.
         22    1    3    3    0    0  0.21733298460E+02  0.22903505953E+02 -0.22728335603E+02  0.38903522799E+02  0.00000000000E+00 0.  1.
         22    1    3    3    0    0  0.14989792910E+03 -0.16879180870E+03 -0.12330887623E+03  0.25722585949E+03  0.00000000000E+00 0.  1.
</event>
<event>
 7    1  0.6888431E-006  0.7733252E+02  0.7818608E-02  0.1386294E+00
          2   -1    0    0  502    0  0.00000000000E+00  0.00000000000E+00  0.14747037616E+04  0.14747037616E+04  0.00000000000E+00 0. -1.
          1   -1    0    0  501    0 -0.00000000000E+00 -0.00000000000E+00 -0.79489723564E+02  0.79489723564E+02  0.00000000000E+00 0. -1.
         25    2    1    2    0    0 -0.48199247336E+02 -0.10147096977E+03  0.37307272070E+03  0.40917949383E+03  0.12500031237E+03 0.  0.
          2    1    1    2  501    0 -0.72799195324E+01  0.50538386627E+02 -0.49272128017E+02  0.70956806231E+02  0.00000000000E+00 0. -1.
          1    1    1    2  502    0  0.55479166868E+02  0.50932583141E+02  0.10714134454E+04  0.10740571851E+04  0.00000000000E+00 0. -1.
         22    1    3    3    0    0  0.38607554260E+02 -0.78390142977E+01  0.70297473245E+02  0.80583671645E+02  0.00000000000E+00 0.  1.
         22    1    3    3    0    0 -0.86806801596E+02 -0.93631955470E+02  0.30277524745E+03  0.32859582219E+03  0.00000000000E+00 0.  1.
</event>
<event>
 7    1  0.6888431E-006  0.7988038E+02  0.7818608E-02  0.1507099E+00
          2   -1    0    0  502    0  0.00000000000E+00  0.00000000000E+00  0.72320992704E+02  0.72320992704E+02  0.00000000000E+00 0. -1.
          1   -1    0    0  501    0 -0.00000000000E+00 -0.00000000000E+00 -0.29083424625E+03  0.29083424625E+03  0.00000000000E+00 0. -1.
         25    2    1    2    0    0 -0.93642011503E+02 -0.14048756942E+02 -0.15949687669E+03  0.22367202550E+03  0.12499490960E+03 0.  0.
          2    1    1    2  501    0  0.16681752571E+02  0.11359411306E+02 -0.59126315236E+02  0.62475901334E+02  0.00000000000E+00 0. -1.
          1    1    1    2  502    0  0.76960258932E+02  0.26893456356E+01  0.10993837170E+00  0.77007312129E+02  0.00000000000E+00 0. -1.
         22    1    3    3    0    0 -0.43974320310E+01  0.76648315163E+01 -0.12538190265E+03  0.12569291373E+03  0.00000000000E+00 0. -1.
         22    1    3    3    0    0 -0.89244579472E+02 -0.21713588458E+02 -0.34114974040E+02  0.97979111767E+02  0.00000000000E+00 0. -1.
</event>
<event>
 7    1  0.6888431E-006  0.2481750E+02  0.7818608E-02  0.1683815E+00
          2   -1    0    0  502    0  0.00000000000E+00  0.00000000000E+00  0.57968827699E+03  0.57968827699E+03  0.00000000000E+00 0. -1.
          1   -1    0    0  501    0 -0.00000000000E+00 -0.00000000000E+00 -0.67448609213E+03  0.67448609213E+03  0.00000000000E+00 0. -1.
         25    2    1    2    0    0 -0.44978372069E+02  0.13362127632E+02 -0.33404610081E+02  0.13763196867E+03  0.12500036166E+03 0.  0.
          2    1    1    2  501    0  0.21552715500E+02 -0.53975084177E+01 -0.58846794317E+03  0.58888723265E+03  0.00000000000E+00 0. -1.
          1    1    1    2  502    0  0.23425656568E+02 -0.79646192145E+01  0.52707473812E+03  0.52765516780E+03  0.00000000000E+00 0. -1.
         22    1    3    3    0    0 -0.84550312255E+02 -0.13591532431E+02 -0.21117984454E+02  0.88201214978E+02  0.00000000000E+00 0. -1.
         22    1    3    3    0    0  0.39571940186E+02  0.26953660063E+02 -0.12286625627E+02  0.49430753688E+02  0.00000000000E+00 0. -1.
</event>
<event>
 7    1  0.6888431E-006  0.1488266E+03  0.7818608E-02  0.1354946E+00
          2   -1    0    0  502    0  0.00000000000E+00  0.00000000000E+00  0.55618412700E+03  0.55618412700E+03  0.00000000000E+00 0. -1.
          1   -1    0    0  501    0 -0.00000000000E+00 -0.00000000000E+00 -0.14379877182E+03  0.14379877182E+03  0.00000000000E+00 0. -1.
         25    2    1    2    0    0 -0.16257937766E+03 -0.69511114593E+02  0.12048101621E+03  0.24779921321E+03  0.12499970284E+03 0.  0.
          2    1    1    2  501    0  0.29740797475E+02  0.17257597928E+02 -0.61821727450E+02  0.70740834781E+02  0.00000000000E+00 0. -1.
          1    1    1    2  502    0  0.13283858018E+03  0.52253516665E+02  0.35372606641E+03  0.38144285083E+03  0.00000000000E+00 0. -1.
         22    1    3    3    0    0 -0.15665961795E+03 -0.91487591660E+02  0.12994053156E+03  0.22315186995E+03  0.00000000000E+00 0. -1.
         22    1    3    3    0    0 -0.59197597131E+01  0.21976477067E+02 -0.94595153404E+01  0.24647343261E+02  0.00000000000E+00 0. -1.
</event>
<event>
 7    1  0.6888431E-006  0.9837527E+02  0.7818608E-02  0.1294483E+00
          2   -1    0    0  502    0  0.00000000000E+00  0.00000000000E+00  0.11362855682E+03  0.11362855682E+03  0.00000000000E+00 0. -1.
          1   -1    0    0  501    0 -0.00000000000E+00 -0.00000000000E+00 -0.20029778972E+04  0.20029778972E+04  0.00000000000E+00 0. -1.
         25    2    1    2    0    0  0.92511689152E+02 -0.92950243573E+01 -0.74882896835E+03  0.76486299453E+03  0.12500306577E+03 0.  0.
          2    1    1    2  501    0 -0.58616142686E+02  0.91539313739E+02 -0.12245560892E+04  0.12293709423E+04  0.00000000000E+00 0. -1.
          1    1    1    2  502    0 -0.33895546466E+02 -0.82244289381E+02  0.84035717176E+02  0.12237251721E+03  0.00000000000E+00 0. -1.
         22    1    3    3    0    0 -0.25804364291E+02 -0.12710673766E+02 -0.68192754259E+02  0.74011338169E+02  0.00000000000E+00 0. -1.
         22    1    3    3    0    0  0.11831605344E+03  0.34156494084E+01 -0.68063621409E+03  0.69085165636E+03  0.00000000000E+00 0. -1.
</event>
<event>
 7    1  0.6888431E-006  0.7953556E+02  0.7818608E-02  0.1446746E+00
          2   -1    0    0  502    0  0.00000000000E+00  0.00000000000E+00  0.68887758943E+03  0.68887758943E+03  0.00000000000E+00 0. -1.
          1   -1    0    0  501    0 -0.00000000000E+00 -0.00000000000E+00 -0.28671703967E+03  0.28671703967E+03  0.00000000000E+00 0. -1.
         25    2    1    2    0    0 -0.10059927838E+02 -0.67956252627E+02 -0.47023596739E+02  0.15018259154E+03  0.12499735091E+03 0.  0.
          2    1    1    2  501    0  0.29601180282E+02 -0.95616133054E+01 -0.18429838501E+03  0.18690518730E+03  0.00000000000E+00 0. -1.
          1    1    1    2  502    0 -0.19541252444E+02  0.77517865933E+02  0.63348253152E+03  0.63850685025E+03  0.00000000000E+00 0. -1.
         22    1    3    3    0    0 -0.21860848503E+02  0.70965842026E+01  0.32755667323E+02  0.40014896556E+02  0.00000000000E+00 0.  1.
         22    1    3    3    0    0  0.11800920665E+02 -0.75052836830E+02 -0.79779264062E+02  0.11016769499E+03  0.00000000000E+00 0.  1.
</event>
<event>
 7    1  0.6888431E-006  0.2477329E+03  0.7818608E-02  0.1281893E+00
          2   -1    0    0  502    0  0.00000000000E+00  0.00000000000E+00  0.16886762922E+04  0.16886762922E+04  0.00000000000E+00 0. -1.
          1   -1    0    0  501    0 -0.00000000000E+00 -0.00000000000E+00 -0.11048005971E+03  0.11048005971E+03  0.00000000000E+00 0. -1.
         25    2    1    2    0    0  0.44676375052E+01  0.23038499771E+03  0.84664862263E+03  0.88630478419E+03  0.12500029328E+03 0.  0.
          2    1    1    2  501    0 -0.15967897819E+02  0.36410973348E+02 -0.63073461585E+02  0.74558663462E+02  0.00000000000E+00 0. -1.
          1    1    1    2  502    0  0.11500260314E+02 -0.26679597105E+03  0.79462107146E+03  0.83829290428E+03  0.00000000000E+00 0. -1.
         22    1    3    3    0    0 -0.52484483978E+02  0.59338520064E+02  0.31979005925E+03  0.32945616251E+03  0.00000000000E+00 0.  1.
         22    1    3    3    0    0  0.56952121483E+02  0.17104647764E+03  0.52685856339E+03  0.55684862168E+03  0.00000000000E+00 0.  1.
</event>
<event>
 7    1  0.6888431E-006  0.1079404E+03  0.7818608E-02  0.1380774E+00
          2   -1    0    0  502    0  0.00000000000E+00  0.00000000000E+00  0.10819975919E+04  0.10819975919E+04  0.00000000000E+00 0. -1.
          1   -1    0    0  501    0 -0.00000000000E+00 -0.00000000000E+00 -0.11123018218E+04  0.11123018218E+04  0.00000000000E+00 0. -1.
         25    2    1    2    0    0 -0.29366463612E+02  0.13737661717E+03 -0.12162643564E+03  0.22394652462E+03  0.12499732762E+03 0.  0.
          2    1    1    2  501    0  0.77324959104E+01 -0.10582432757E+03 -0.93616237526E+03  0.94215634194E+03  0.00000000000E+00 0. -1.
          1    1    1    2  502    0  0.21633967701E+02 -0.31552289605E+02  0.10274845810E+04  0.10281965472E+04  0.00000000000E+00 0. -1.
         22    1    3    3    0    0 -0.29849360742E+02 -0.14602649592E+02 -0.37993115460E+02  0.50474731641E+02  0.00000000000E+00 0. -1.
         22    1    3    3    0    0  0.48289713059E+00  0.15197926677E+03 -0.83633320177E+02  0.17347179298E+03  0.00000000000E+00 0. -1.
</event>
<event>
 7    1  0.6888431E-006  0.7749658E+02  0.7818608E-02  0.1422600E+00
          2   -1    0    0  502    0  0.00000000000E+00  0.00000000000E+00  0.62923191451E+02  0.62923191451E+02  0.00000000000E+00 0. -1.
          1   -1    0    0  501    0 -0.00000000000E+00 -0.00000000000E+00 -0.14792687079E+04  0.14792687079E+04  0.00000000000E+00 0. -1.
         25    2    1    2    0    0 -0.62944966341E+02 -0.16072760463E+02 -0.98676232690E+02  0.17199657209E+03  0.12500167798E+03 0.  0.
          2    1    1    2  501    0 -0.43839714921E+01 -0.38039992158E+02 -0.12718307394E+04  0.12724070457E+04  0.00000000000E+00 0. -1.
          1    1    1    2  502    0  0.67328937833E+02  0.54112752620E+02 -0.45838544362E+02  0.97788281584E+02  0.00000000000E+00 0. -1.
         22    1    3    3    0    0  0.99067032372E+01 -0.28856090101E+02  0.16825904771E+02  0.34841466335E+02  0.00000000000E+00 0. -1.
         22    1    3    3    0    0 -0.72851669578E+02  0.12783329639E+02 -0.11550213746E+03  0.13715510576E+03  0.00000000000E+00 0. -1.
</event>
<event>
 7    1  0.6888431E-006  0.4386677E+02  0.7818608E-02  0.1508065E+00
          2   -1    0    0  502    0  0.00000000000E+00  0.00000000000E+00  0.16563995478E+04  0.16563995478E+04  0.00000000000E+00 0. -1.
          1   -1    0    0  501    0 -0.00000000000E+00 -0.00000000000E+00 -0.98047763108E+02  0.98047763108E+02  0.00000000000E+00 0. -1.
         25    2    1    2    0    0 -0.29997029499E+02 -0.53446955540E+01  0.26382667520E+01  0.12868656248E+03  0.12499953345E+03 0.  0.
          2    1    1    2  501    0  0.11599130858E+02 -0.34618897320E+02 -0.25118632721E+02  0.44316516087E+02  0.00000000000E+00 0. -1.
          1    1    1    2  502    0  0.18397898642E+02  0.39963592874E+02  0.15808321507E+04  0.15814442324E+04  0.00000000000E+00 0. -1.
         22    1    3    3    0    0  0.28362519097E+01 -0.32281715595E+02  0.53423685940E+02  0.62483947587E+02  0.00000000000E+00 0.  1.
         22    1    3    3    0    0 -0.32833281409E+02  0.26937020041E+02 -0.50785419188E+02  0.66202614895E+02  0.00000000000E+00 0.  1.
</event>
<event>
 7    1  0.6888431E-006  0.1361065E+03  0.7818608E-02  0.1337286E+00
          2   -1    0    0  502    0  0.00000000000E+00  0.00000000000E+00  0.69366356763E+03  0.69366356763E+03  0.00000000000E+00 0. -1.
          1   -1    0    0  501    0 -0.00000000000E+00 -0.00000000000E+00 -0.22256070924E+04  0.22256070924E+04  0.00000000000E+00 0. -1.
         25    2    1    2    0    0 -0.10511433703E+03 -0.95193529802E+02  0.27021993606E+03  0.32977930747E+03  0.12499898329E+03 0.  0.
          2    1    1    2  501    0  0.67795014560E+02  0.11802977172E+03 -0.21924946690E+04  0.21967157450E+04  0.00000000000E+00 0. -1.
          1    1    1    2  502    0  0.37319322469E+02 -0.22836241922E+02  0.39033120818E+03  0.39277560750E+03  0.00000000000E+00 0. -1.
         22    1    3    3    0    0 -0.11052372825E+03 -0.10709875090E+03  0.27558375189E+03  0.31564543598E+03  0.00000000000E+00 0.  1.
         22    1    3    3    0    0  0.54093912238E+01  0.11905221097E+02 -0.53638158320E+01  0.14133871482E+02  0.00000000000E+00 0.  1.
</event>
<event>
 7    1  0.6888431E-006  0.6158222E+02  0.7818608E-02  0.1499442E+00
          2   -1    0    0  502    0  0.00000000000E+00  0.00000000000E+00  0.11885369767E+04  0.11885369767E+04  0.00000000000E+00 0. -1.
          1   -1    0    0  501    0 -0.00000000000E+00 -0.00000000000E+00 -0.11756348172E+04  0.11756348172E+04  0.00000000000E+00 0. -1.
         25    2    1    2    0    0  0.13716614518E+02  0.51353929336E+02  0.84253785487E+03  0.85341737537E+03  0.12500323243E+03 0.  0.
          2    1    1    2  501    0 -0.40806011204E+02 -0.46139903508E+02 -0.11688241268E+04  0.11704460092E+04  0.00000000000E+00 0. -1.
          1    1    1    2  502    0  0.27089396685E+02 -0.52140258279E+01  0.33918843140E+03  0.34030840935E+03  0.00000000000E+00 0. -1.
         22    1    3    3    0    0  0.19684072814E+02 -0.15277093624E+02  0.34190332391E+02  0.42306395984E+02  0.00000000000E+00 0. -1.
         22    1    3    3    0    0 -0.59674582960E+01  0.66631022960E+02  0.80834752248E+03  0.81111097939E+03  0.00000000000E+00 0. -1.
</event>
