<event>
 7    1  0.6507405E-006  0.1311711E+03  0.7818608E-02  0.1336570E+00
          2   -1    0    0  502    0  0.00000000000E+00  0.00000000000E+00  0.41426886701E+04  0.41426886701E+04  0.00000000000E+00 0. -1.
          1   -1    0    0  501    0 -0.00000000000E+00 -0.00000000000E+00 -0.33308560665E+02  0.33308560665E+02  0.00000000000E+00 0. -1.
         25    2    1    2    0    0  0.31387652413E+02 -0.16811861169E+03  0.56076001475E+03  0.59943751376E+03  0.12499794573E+03 0.  0.
          2    1    1    2  501    0 -0.22781442860E+02  0.39595854982E+02  0.27991830201E+02  0.53575819439E+02  0.00000000000E+00 0. -1.
          1    1    1    2  502    0 -0.86062095522E+01  0.12852275671E+03  0.35206282645E+04  0.35229838976E+04  0.00000000000E+00 0. -1.
         22    1    3    3    0    0  0.65754059125E+02 -0.35702161366E+02  0.21114982244E+03  0.22401448198E+03  0.00000000000E+00 0.  1.
         22    1    3    3    0    0 -0.34366406712E+02 -0.13241645033E+03  0.34961019231E+03  0.37542303179E+03  0.00000000000E+00 0.  1.
</event>
<event>
 7    1  0.6507405E-006  0.1290530E+03  0.7818608E-02  0.1424407E+00
          2   -1    0    0  502    0  0.00000000000E+00  0.00000000000E+00  0.11644161241E+04  0.11644161241E+04  0.00000000000E+00 0. -1.
          1   -1    0    0  501    0 -0.00000000000E+00 -0.00000000000E+00 -0.98371879121E+03  0.98371879121E+03  0.00000000000E+00 0. -1.
         25    2    1    2    0    0 -0.11110902438E+03  0.94902728059E+02 -0.40784911799E+03  0.45090776713E+03  0.12500067328E+03 0.  0.
          2    1    1    2  501    0  0.92394651205E+02 -0.82092920025E+02 -0.54733647691E+03  0.56111784685E+03  0.00000000000E+00 0. -1.
          1    1    1    2  502    0  0.18714373175E+02 -0.12809808034E+02  0.11358829278E+04  0.11361093014E+04  0.00000000000E+00 0. -1.
         22    1    3    3    0    0 -0.12377707587E+02  0.77210168111E+02 -0.26545454337E+03  0.27673223936E+03  0.00000000000E+00 0. -1.
         22    1    3    3    0    0 -0.98731316792E+02  0.17692559948E+02 -0.14239457462E+03  0.17417552777E+03  0.00000000000E+00 0. -1.
</event>
<event>
 7    1  0.6507405E-006  0.1655860E+03  0.7818608E-02  0.1270509E+00
          2   -1    0    0  502    0  0.00000000000E+00  0.00000000000E+00  0.19103452332E+03  0.19103452332E+03  0.00000000000E+00 0. -1.
          1   -1    0    0  501    0 -0.00000000000E+00 -0.00000000000E+00 -0.69941691290E+03  0.69941691290E+03  0.00000000000E+00 0. -1.
         25    2    1    2    0    0  0.17332028154E+03  0.39202146829E+02 -0.19450330697E+03  0.29160266424E+03  0.12499539616E+03 0.  0.
          2    1    1    2  501    0 -0.10148357706E+02 -0.65550439905E+02 -0.40480535183E+03  0.41020387883E+03  0.00000000000E+00 0. -1.
          1    1    1    2  502    0 -0.16317192383E+03  0.26348293076E+02  0.90926269225E+02  0.18864489315E+03  0.00000000000E+00 0. -1.
         22    1    3    3    0    0  0.13644416425E+03 -0.20220669699E+02 -0.16664076247E+03  0.21632158736E+03  0.00000000000E+00 0.  1.
         22    1    3    3    0    0  0.36876117287E+02  0.59422816528E+02 -0.27862544506E+02  0.75281076883E+02  0.00000000000E+00 0.  1.
</event>
<event>
 7    1  0.6507405E-006  0.5815101E+02  0.7818608E-02  0.1551542E+00
          2   -1    0    0  502    0  0.00000000000E+00  0.00000000000E+00  0.15151471073E+04  0.15151471073E+04  0.00000000000E+00 0. -1.
          1   -1    0    0  501    0 -0.00000000000E+00 -0.00000000000E+00 -0.18895044076E+03  0.18895044076E+03  0.00000000000E+00 0. -1.
         25    2    1    2    0    0  0.46410754032E+02  0.19883521906E+02  0.13035765454E+04  0.13105289591E+04  0.12500012168E+03 0.  0.
          2    1    1    2  501    0 -0.42154045324E+02 -0.40112113232E+02 -0.18037246610E+03  0.18952617680E+03  0.00000000000E+00 0. -1.
          1    1    1    2  502    0 -0.42567087078E+01  0.20228591327E+02  0.20299258721E+03  0.20404241210E+03  0.00000000000E+00 0. -1.
         22    1    3    3    0    0  0.40164557267E+02  0.49239167847E+02  0.12212556613E+04  0.12229076325E+04  0.00000000000E+00 0.  1.
         22    1    3    3    0    0  0.62461967649E+01 -0.29355645941E+02  0.82320884122E+02  0.87621326657E+02  0.00000000000E+00 0.  1.
</event>
<event>
 7    1  0.6507405E-006  0.3586010E+02  0.7818608E-02  0.1583072E+00
          2   -1    0    0  502    0  0.00000000000E+00  0.00000000000E+00  0.73828914926E+03  0.73828914926E+03  0.00000000000E+00 0. -1.
          1   -1    0    0  501    0 -0.00000000000E+00 -0.00000000000E+00 -0.10326861876E+03  0.10326861876E+03  0.00000000000E+00 0. -1.
         25    2    1    2    0    0 -0.20449789809E+01 -0.44137163263E+02  0.11223451138E+03  0.17371158080E+03  0.12500742633E+03 0.  0.
          2    1    1    2  501    0  0.23028052124E+02  0.15033641800E+02 -0.69360573400E+02  0.74613609434E+02  0.00000000000E+00 0. -1.
          1    1    1    2  502    0 -0.20983073143E+02  0.29103521463E+02  0.59214659252E+03  0.59323257779E+03  0.00000000000E+00 0. -1.
         22    1    3    3    0    0 -0.44973092736E+02  0.10581366780E+01 -0.39105479661E+00  0.44987238717E+02  0.00000000000E+00 0. -1.
         22    1    3    3    0    0  0.42928113756E+02 -0.45195299941E+02  0.11262556618E+03  0.12872434208E+03  0.00000000000E+00 0. -1.
</event>
<event>
 7    1  0.8209878E-006  0.6127685E+02  0.7818608E-02  0.1397383E+00
          2   -1    0    0  502    0  0.00000000000E+00  0.00000000000E+00  0.10633455569E+04  0.10633455569E+04  0.00000000000E+00 0. -1.
          1   -1    0    0  501    0 -0.00000000000E+00 -0.00000000000E+00 -0.20598881186E+04  0.20598881186E+04  0.00000000000E+00 0. -1.
         25    2    1    2    0    0  0.35978065672E+02  0.53728708771E+02 -0.40199778388E+03  0.42591509989E+03  0.12498103341E+03 0.  0.
          2    1    1    2  501    0 -0.58874477105E+02  0.31675476678E+01 -0.16445085383E+04  0.16455651217E+04  0.00000000000E+00 0. -1.
          1    1    1    2  502    0  0.22896411433E+02 -0.56896256439E+02  0.10499637605E+04  0.10517534540E+04  0.00000000000E+00 0. -1.
         22    1    3    3    0    0 -0.30055155553E+02 -0.11815376869E+02 -0.21104871607E+03  0.21350521319E+03  0.00000000000E+00 0. -1.
         22    1    3    3    0    0  0.66033221225E+02  0.65544085640E+02 -0.19094906782E+03  0.21240988670E+03  0.00000000000E+00 0. -1.
</event>
<event>
 7    1  0.6507405E-006  0.5626657E+02  0.7818608E-02  0.1556167E+00
          2   -1    0    0  502    0  0.00000000000E+00  0.00000000000E+00  0.29569902018E+03  0.29569902018E+03  0.00000000000E+00 0. -1.
          1   -1    0    0  501    0 -0.00000000000E+00 -0.00000000000E+00 -0.97840737253E+02  0.97840737253E+02  0.00000000000E+00 0. -1.
         25    2    1    2    0    0 -0.21590306583E+02  0.38091462233E+02 -0.10078151904E+02  0.13282630800E+03  0.12499663243E+03 0.  0.
          2    1    1    2  501    0  0.29921646902E+02 -0.57086529253E+02  0.14365517690E+02  0.66034421887E+02  0.00000000000E+00 0. -1.
          1    1    1    2  502    0 -0.83313403184E+01  0.18995067020E+02  0.19357091714E+03  0.19467902754E+03  0.00000000000E+00 0. -1.
         22    1    3    3    0    0 -0.73683407919E+02  0.15786419641E+02 -0.10982224533E+02  0.76151591601E+02  0.00000000000E+00 0. -1.
         22    1    3    3    0    0  0.52093101336E+02  0.22305042592E+02  0.90407262941E+00  0.56674716401E+02  0.00000000000E+00 0. -1.
</event>
<event>
 7    1  0.6507405E-006  0.4834196E+02  0.7818608E-02  0.1491081E+00
          2   -1    0    0  502    0  0.00000000000E+00  0.00000000000E+00  0.26545016784E+03  0.26545016784E+03  0.00000000000E+00 0. -1.
          1   -1    0    0  501    0 -0.00000000000E+00 -0.00000000000E+00 -0.89472825087E+03  0.89472825087E+03  0.00000000000E+00 0. -1.
         25    2    1    2    0    0  0.40776222931E+02 -0.26969669002E+01 -0.29802353595E+03  0.32575206317E+03  0.12500561865E+03 0.  0.
          2    1    1    2  501    0 -0.62050141088E+01  0.36713495228E+02 -0.57990035932E+03  0.58109449290E+03  0.00000000000E+00 0. -1.
          1    1    1    2  502    0 -0.34571208822E+02 -0.34016528328E+02  0.24864581225E+03  0.25333186264E+03  0.00000000000E+00 0. -1.
         22    1    3    3    0    0 -0.27330537504E+02  0.20275085596E+02 -0.21996220085E+02  0.40520008319E+02  0.00000000000E+00 0.  1.
         22    1    3    3    0    0  0.68106760435E+02 -0.22972052496E+02 -0.27602731587E+03  0.28523205485E+03  0.00000000000E+00 0.  1.
</event>
<event>
 7    1  0.6507405E-006  0.1609703E+03  0.7818608E-02  0.1250811E+00
          2   -1    0    0  502    0  0.00000000000E+00  0.00000000000E+00  0.10204724646E+04  0.10204724646E+04  0.00000000000E+00 0. -1.
          1   -1    0    0  501    0 -0.00000000000E+00 -0.00000000000E+00 -0.15292339664E+03  0.15292339664E+03  0.00000000000E+00 0. -1.
         25    2    1    2    0    0 -0.40026944161E+02  0.14195092093E+03  0.18391131219E+03  0.26683499214E+03  0.12500128826E+03 0.  0.
          2    1    1    2  501    0  0.11976974034E+03 -0.11969097228E+03 -0.43421367109E+02  0.17480313118E+03  0.00000000000E+00 0. -1.
          1    1    1    2  502    0 -0.79742796181E+02 -0.22259948648E+02  0.72705912287E+03  0.73175773792E+03  0.00000000000E+00 0. -1.
         22    1    3    3    0    0 -0.12359495746E+02  0.94093861466E+02  0.18883079203E+03  0.21133736044E+03  0.00000000000E+00 0. -1.
         22    1    3    3    0    0 -0.27667448415E+02  0.47857059464E+02 -0.49194798368E+01  0.55497631699E+02  0.00000000000E+00 0. -1.
</event>
<event>
 7    1  0.6507405E-006  0.4406297E+02  0.7818608E-02  0.1500528E+00
          2   -1    0    0  502    0  0.00000000000E+00  0.00000000000E+00  0.10889053206E+04  0.10889053206E+04  0.00000000000E+00 0. -1.
          1   -1    0    0  501    0 -0.00000000000E+00 -0.00000000000E+00 -0.11365114615E+04  0.11365114615E+04  0.00000000000E+00 0. -1.
         25    2    1    2    0    0 -0.13560933468E+01  0.38480943584E+02 -0.88676365825E+03  0.89635769455E+03  0.12499883588E+03 0.  0.
          2    1    1    2  501    0 -0.36893741814E+02 -0.37292521696E+02 -0.24179970249E+03  0.24742468851E+03  0.00000000000E+00 0. -1.
          1    1    1    2  502    0  0.38249835160E+02 -0.11884218879E+01  0.10809572198E+04  0.10816343991E+04  0.00000000000E+00 0. -1.
         22    1    3    3    0    0 -0.24722225734E+02 -0.24968669218E+02 -0.88270485216E+02  0.95006849479E+02  0.00000000000E+00 0.  1.
         22    1    3    3    0    0  0.23366132387E+02  0.63449612801E+02 -0.79849317303E+03  0.80135084507E+03  0.00000000000E+00 0.  1.
</event>
<event>
 7    1  0.6507405E-006  0.4210136E+02  0.7818608E-02  0.1508378E+00
          2   -1    0    0  502    0  0.00000000000E+00  0.00000000000E+00  0.14598003789E+04  0.14598003789E+04  0.00000000000E+00 0. -1.
          1   -1    0    0  501    0 -0.00000000000E+00 -0.00000000000E+00 -0.31114144703E+02  0.31114144703E+02  0.00000000000E+00 0. -1.
         25    2    1    2    0    0 -0.11483270449E+02  0.50441685766E+01  0.47274427544E+03  0.48915077599E+03  0.12499609013E+03 0.  0.
          2    1    1    2  501    0  0.37102320390E+02  0.22967654334E+02 -0.14107497828E+01  0.43658739547E+02  0.00000000000E+00 0. -1.
          1    1    1    2  502    0 -0.25619049941E+02 -0.28011822911E+02  0.95735270852E+03  0.95810500805E+03  0.00000000000E+00 0. -1.
         22    1    3    3    0    0  0.15097116136E+01  0.64358733057E+02  0.22086518833E+03  0.23005598703E+03  0.00000000000E+00 0. -1.
         22    1    3    3    0    0 -0.12992982063E+02 -0.59314564480E+02  0.25187908711E+03  0.25909478896E+03  0.00000000000E+00 0. -1.
</event>
<event>
 7    1  0.6507405E-006  0.8835508E+02  0.7818608E-02  0.1338660E+00
          2   -1    0    0  502    0  0.00000000000E+00  0.00000000000E+00  0.96408907214E+03  0.96408907214E+03  0.00000000000E+00 0. -1.
          1   -1    0    0  501    0 -0.00000000000E+00 -0.00000000000E+00 -0.48169794341E+03  0.48169794341E+03  0.00000000000E+00 0. -1.
         25    2    1    2    0    0 -0.56213247228E+02  0.13657435336E+03  0.38300809078E+03  0.42910707668E+03  0.12500080999E+03 0.  0.
          2    1    1    2  501    0  0.11744690931E+02 -0.86998642229E+02 -0.45242714135E+03  0.46086551156E+03  0.00000000000E+00 0. -1.
          1    1    1    2  502    0  0.44468556297E+02 -0.49575711127E+02  0.55181017930E+03  0.55581442731E+03  0.00000000000E+00 0. -1.
         22    1    3    3    0    0 -0.72829946012E+02  0.15123558390E+03  0.35973916607E+03  0.39697439524E+03  0.00000000000E+00 0.  1.
         22    1    3    3    0    0  0.16616698784E+02 -0.14661230541E+02  0.23268924714E+02  0.32132681445E+02  0.00000000000E+00 0.  1.
</event>
<event>
 7    1  0.6507405E-006  0.7041407E+02  0.7818608E-02  0.1379312E+00
          2   -1    0    0  502    0  0.00000000000E+00  0.00000000000E+00  0.12719558567E+04  0.12719558567E+04  0.00000000000E+00 0. -1.
          1   -1    0    0  501    0 -0.00000000000E+00 -0.00000000000E+00 -0.31685540259E+02  0.31685540259E+02  0.00000000000E+00 0. -1.
         25    2    1    2    0    0  0.56987549983E+02 -0.12646630546E+02  0.15164477586E+03  0.20500932728E+03  0.12500067243E+03 0.  0.
          2    1    1    2  501    0 -0.26565083578E+02 -0.53070899441E+02  0.25270369600E+03  0.25957924032E+03  0.00000000000E+00 0. -1.
          1    1    1    2  502    0 -0.30422466405E+02  0.65717529986E+02  0.83592184459E+03  0.83905282937E+03  0.00000000000E+00 0. -1.
         22    1    3    3    0    0 -0.17008959386E+01  0.28283267524E+02 -0.85210281041E+01  0.29587906123E+02  0.00000000000E+00 0.  1.
         22    1    3    3    0    0  0.58688445922E+02 -0.40929898069E+02  0.16016580397E+03  0.17542142116E+03  0.00000000000E+00 0.  1.
</event>
<event>
 7    1  0.6507405E-006  0.5244095E+02  0.7818608E-02  0.1436230E+00
          2   -1    0    0  502    0  0.00000000000E+00  0.00000000000E+00  0.29759805887E+04  0.29759805887E+04  0.00000000000E+00 0. -1.
          1   -1    0    0  501    0 -0.00000000000E+00 -0.00000000000E+00 -0.10036428479E+04  0.10036428479E+04  0.00000000000E+00 0. -1.
         25    2    1    2    0    0  0.94648320999E+02 -0.17537266703E+02 -0.14823521741E+03  0.21648206896E+03  0.12499978445E+03 0.  0.
          2    1    1    2  501    0 -0.50815116802E+02 -0.85871813114E+01 -0.82025418674E+03  0.82187155118E+03  0.00000000000E+00 0. -1.
          1    1    1    2  502    0 -0.43833204197E+02  0.26124448014E+02  0.29408271450E+04  0.29412698165E+04  0.00000000000E+00 0. -1.
         22    1    3    3    0    0  0.15990186411E+02 -0.20894276474E+02  0.18452755678E+02  0.32136599742E+02  0.00000000000E+00 0. -1.
         22    1    3    3    0    0  0.78658134588E+02  0.33570097710E+01 -0.16668797309E+03  0.18434546922E+03  0.00000000000E+00 0. -1.
</event>
<event>
 7    1  0.6507405E-006  0.5383849E+02  0.7818608E-02  0.1435474E+00
          2   -1    0    0  502    0  0.00000000000E+00  0.00000000000E+00  0.26764325123E+04  0.26764325123E+04  0.00000000000E+00 0. -1.
          1   -1    0    0  501    0 -0.00000000000E+00 -0.00000000000E+00 -0.27088251042E+03  0.27088251042E+03  0.00000000000E+00 0. -1.
         25    2    1    2    0    0  0.85468535840E+02 -0.34138358655E+02  0.29290184331E+03  0.33149430767E+03  0.12500675205E+03 0.  0.
          2    1    1    2  501    0 -0.49685475487E+02 -0.54786852964E+01 -0.24879871262E+03  0.25377049054E+03  0.00000000000E+00 0. -1.
          1    1    1    2  502    0 -0.35783060353E+02  0.39617043951E+02  0.23614468712E+04  0.23620502245E+04  0.00000000000E+00 0. -1.
         22    1    3    3    0    0  0.38905446550E+02 -0.53808369296E+02  0.26614302481E+03  0.27430108281E+03  0.00000000000E+00 0.  1.
         22    1    3    3    0    0  0.46563089289E+02  0.19670010641E+02  0.26758818498E+02  0.57193224863E+02  0.00000000000E+00 0.  1.
</event>
<event>
 7    1  0.6507405E-006  0.4711495E+02  0.7818608E-02  0.1490455E+00
          2   -1    0    0  502    0  0.00000000000E+00  0.00000000000E+00  0.11363754798E+03  0.11363754798E+03  0.00000000000E+00 0. -1.
          1   -1    0    0  501    0 -0.00000000000E+00 -0.00000000000E+00 -0.72182835832E+03  0.72182835832E+03  0.00000000000E+00 0. -1.
         25    2    1    2    0    0 -0.43932021231E+02  0.27711477913E+02 -0.50700495148E+02  0.14453983571E+03  0.12499310142E+03 0.  0.
          2    1    1    2  501    0 -0.28245357529E+01 -0.38266413645E+02 -0.61492302217E+03  0.61611899793E+03  0.00000000000E+00 0. -1.
          1    1    1    2  502    0  0.46756556984E+02  0.10554935732E+02  0.57432706974E+02  0.74807072658E+02  0.00000000000E+00 0. -1.
         22    1    3    3    0    0 -0.56995946374E+02  0.54172647087E+02 -0.73199651222E+02  0.10743091983E+03  0.00000000000E+00 0.  1.
         22    1    3    3    0    0  0.13063925144E+02 -0.26461169174E+02  0.22499156074E+02  0.37108915886E+02  0.00000000000E+00 0.  1.
</event>
<event>
 7    1  0.6507405E-006  0.8719115E+02  0.7818608E-02  0.1444626E+00
          2   -1    0    0  502    0  0.00000000000E+00  0.00000000000E+00  0.14413121201E+03  0.14413121201E+03  0.00000000000E+00 0. -1.
          1   -1    0    0  501    0 -0.00000000000E+00 -0.00000000000E+00 -0.80970751482E+03  0.80970751482E+03  0.00000000000E+00 0. -1.
         25    2    1    2    0    0  0.66903984099E+02 -0.22457625469E+02 -0.21460981628E+02  0.14514913057E+03  0.12500883306E+03 0.  0.
          2    1    1    2  501    0 -0.71862334751E+02  0.50853331098E+02 -0.72111621940E+03  0.72647013588E+03  0.00000000000E+00 0. -1.
          1    1    1    2  502    0  0.49583506522E+01 -0.28395705629E+02  0.77000898216E+02  0.82219460381E+02  0.00000000000E+00 0. -1.
         22    1    3    3    0    0  0.96792222634E+02 -0.21926726681E+02 -0.43147294036E+02  0.10821831956E+03  0.00000000000E+00 0.  1.
         22    1    3    3    0    0 -0.29888238535E+02 -0.53089878799E+00  0.21686312408E+02  0.36930811013E+02  0.00000000000E+00 0.  1.
</event>
<event>
 7    1  0.6507405E-006  0.5155106E+02  0.7818608E-02  0.1502147E+00
          2   -1    0    0  502    0  0.00000000000E+00  0.00000000000E+00  0.30024775882E+03  0.30024775882E+03  0.00000000000E+00 0. -1.
          1   -1    0    0  501    0 -0.00000000000E+00 -0.00000000000E+00 -0.11585769955E+03  0.11585769955E+03  0.00000000000E+00 0. -1.
         25    2    1    2    0    0 -0.65228560201E+02  0.21410910460E+02  0.16395717268E+03  0.21730167368E+03  0.12499948303E+03 0.  0.
          2    1    1    2  501    0  0.29824723831E+02  0.12525978423E+02 -0.80407352923E+02  0.86670391087E+02  0.00000000000E+00 0. -1.
          1    1    1    2  502    0  0.35403836370E+02 -0.33936888883E+02  0.10084023951E+03  0.11213339360E+03  0.00000000000E+00 0. -1.
         22    1    3    3    0    0 -0.40490129425E+02 -0.15898561068E+02  0.16686472295E+03  0.17244144105E+03  0.00000000000E+00 0.  1.
         22    1    3    3    0    0 -0.24738430776E+02  0.37309471529E+02 -0.29075502760E+01  0.44860232630E+02  0.00000000000E+00 0.  1.
</event>
<event>
 7    1  0.6507405E-006  0.7903479E+02  0.7818608E-02  0.1403008E+00
          2   -1    0    0  502    0  0.00000000000E+00  0.00000000000E+00  0.70376609394E+03  0.70376609394E+03  0.00000000000E+00 0. -1.
          1   -1    0    0  501    0 -0.00000000000E+00 -0.00000000000E+00 -0.11310275540E+04  0.11310275540E+04  0.00000000000E+00 0. -1.
         25    2    1    2    0    0 -0.37699974725E+02 -0.40626846046E+02  0.88449394069E+02  0.16284936852E+03  0.12499917120E+03 0.  0.
          2    1    1    2  501    0  0.20054016119E+02 -0.38851193990E+02 -0.10905210801E+04  0.10913971802E+04  0.00000000000E+00 0. -1.
          1    1    1    2  502    0  0.17645958606E+02  0.79478040036E+02  0.57481022589E+03  0.58054709929E+03  0.00000000000E+00 0. -1.
         22    1    3    3    0    0 -0.40932651917E+02  0.38639667255E+02  0.26609709915E+02  0.62262207962E+02  0.00000000000E+00 0.  1.
         22    1    3    3    0    0  0.32326771924E+01 -0.79266513300E+02  0.61839684154E+02  0.10058716056E+03  0.00000000000E+00 0.  1.
</event>
<event>
 7    1  0.6507405E-006  0.1055257E+03  0.7818608E-02  0.1380522E+00
          2   -1    0    0  502    0  0.00000000000E+00  0.00000000000E+00  0.95523118312E+03  0.95523118312E+03  0.00000000000E+00 0. -1.
          1   -1    0    0  501    0 -0.00000000000E+00 -0.00000000000E+00 -0.44308681678E+03  0.44308681678E+03  0.00000000000E+00 0. -1.
         25    2    1    2    0    0  0.10262264918E+03 -0.54483247551E+02  0.12454077592E+03  0.21127128891E+03  0.12500128104E+03 0.  0.
          2    1    1    2  501    0 -0.10423397963E+03  0.15303827707E+02 -0.39227874094E+03  0.40617919721E+03  0.00000000000E+00 0. -1.
          1    1    1    2  502    0  0.16113304471E+01  0.39179419844E+02  0.77988233135E+03  0.78086751378E+03  0.00000000000E+00 0. -1.
         22    1    3    3    0    0  0.42174946657E+01 -0.32444487221E+02  0.10311016004E+03  0.10817641664E+03  0.00000000000E+00 0. -1.
         22    1    3    3    0    0  0.98405154514E+02 -0.22038760330E+02  0.21430615880E+02  0.10309487227E+03  0.00000000000E+00 0. -1.
</event>
<event>
 7    1  0.6507405E-006  0.9511975E+02  0.7818608E-02  0.1343617E+00
          2   -1    0    0  502    0  0.00000000000E+00  0.00000000000E+00  0.63280647610E+03  0.63280647610E+03  0.00000000000E+00 0. -1.
          1   -1    0    0  501    0 -0.00000000000E+00 -0.00000000000E+00 -0.53237064763E+03  0.53237064763E+03  0.00000000000E+00 0. -1.
         25    2    1    2    0    0  0.34723822728E+02  0.10288270463E+03  0.25436100311E+03  0.30350493230E+03  0.12500051701E+03 0.  0.
          2    1    1    2  501    0 -0.74633062547E+02 -0.59069004742E+02 -0.50080322434E+03  0.50976770284E+03  0.00000000000E+00 0. -1.
          1    1    1    2  502    0  0.39909239819E+02 -0.43813699887E+02  0.34687804970E+03  0.35190448858E+03  0.00000000000E+00 0. -1.
         22    1    3    3    0    0 -0.92613634990E+00  0.10651802360E+03  0.24394325399E+03  0.26618651027E+03  0.00000000000E+00 0.  1.
         22    1    3    3    0    0  0.35649959078E+02 -0.36353189751E+01  0.10417749118E+02  0.37318422032E+02  0.00000000000E+00 0.  1.
</event>
<event>
 7    1  0.6507405E-006  0.7344902E+02  0.7818608E-02  0.1391226E+00
          2   -1    0    0  502    0  0.00000000000E+00  0.00000000000E+00  0.11811299838E+03  0.11811299838E+03  0.00000000000E+00 0. -1.
          1   -1    0    0  501    0 -0.00000000000E+00 -0.00000000000E+00 -0.24091062044E+04  0.24091062044E+04  0.00000000000E+00 0. -1.
         25    2    1    2    0    0 -0.85440422403E+02  0.22711813856E+02 -0.14151545492E+03  0.20848969070E+03  0.12500173950E+03 0.  0.
          2    1    1    2  501    0  0.46610773001E+02 -0.56796399547E+02 -0.22255543008E+04  0.22267667909E+04  0.00000000000E+00 0. -1.
          1    1    1    2  502    0  0.38829649403E+02  0.34084585691E+02  0.76076549763E+02  0.91962721133E+02  0.00000000000E+00 0. -1.
         22    1    3    3    0    0 -0.11036543922E+03  0.37763433919E+02 -0.13543666912E+03  0.17874478581E+03  0.00000000000E+00 0.  1.
         22    1    3    3    0    0  0.24925016813E+02 -0.15051620063E+02 -0.60787858024E+01  0.29744904883E+02  0.00000000000E+00 0.  1.
</event>
<event>
 7    1  0.6507405E-006  0.1172848E+03  0.7818608E-02  0.1310945E+00
          2   -1    0    0  502    0  0.00000000000E+00  0.00000000000E+00  0.32351270491E+03  0.32351270491E+03  0.00000000000E+00 0. -1.
          1   -1    0    0  501    0 -0.00000000000E+00 -0.00000000000E+00 -0.21367218152E+04  0.21367218152E+04  0.00000000000E+00 0. -1.
         25    2    1    2    0    0  0.58971416403E+02  0.68748122159E+02 -0.36523001653E+03  0.39651185799E+03  0.12499902521E+03 0.  0.
          2    1    1    2  501    0 -0.21282032910E+02 -0.12065855182E+03 -0.17503443900E+04  0.17546272808E+04  0.00000000000E+00 0. -1.
          1    1    1    2  502    0 -0.37689383493E+02  0.51910429663E+02  0.30236529626E+03  0.30909538126E+03  0.00000000000E+00 0. -1.
         22    1    3    3    0    0  0.66161481232E+02  0.10740444669E+01 -0.82768374402E+02  0.10596744298E+03  0.00000000000E+00 0.  1.
         22    1    3    3    0    0 -0.71900648288E+01  0.67674077692E+02 -0.28246164212E+03  0.29054441501E+03  0.00000000000E+00 0.  1.
</event>
<event>
 7    1  0.6507405E-006  0.9103458E+02  0.7818608E-02  0.1381653E+00
          2   -1    0    0  502    0  0.00000000000E+00  0.00000000000E+00  0.97638680694E+03  0.97638680694E+03  0.00000000000E+00 0. -1.
          1   -1    0    0  501    0 -0.00000000000E+00 -0.00000000000E+00 -0.17506420146E+03  0.17506420146E+03  0.00000000000E+00 0. -1.
         25    2    1    2    0    0 -0.87055447488E+02 -0.66988254944E+02  0.13205199914E+03  0.21243509574E+03  0.12499944874E+03 0.  0.
          2    1    1    2  501    0  0.43372637450E+02 -0.12133758127E+02 -0.12848862123E+03  0.13615336776E+03  0.00000000000E+00 0. -1.
          1    1    1    2  502    0  0.43682810038E+02  0.79122013071E+02  0.79775922756E+03  0.80286254490E+03  0.00000000000E+00 0. -1.
         22    1    3    3    0    0 -0.10626568276E+03 -0.34532430593E+02  0.50567423670E+02  0.12264562134E+03  0.00000000000E+00 0. -1.
         22    1    3    3    0    0  0.19210235277E+02 -0.32455824351E+02  0.81484575473E+02  0.89789474404E+02  0.00000000000E+00 0. -1.
</event>
<event>
 7    1  0.6507405E-006  0.9194989E+02  0.7818608E-02  0.1323694E+00
          2   -1    0    0  502    0  0.00000000000E+00  0.00000000000E+00  0.65444963790E+03  0.65444963790E+03  0.00000000000E+00 0. -1.
          1   -1    0    0  501    0 -0.00000000000E+00 -0.00000000000E+00 -0.52745330803E+03  0.52745330803E+03  0.00000000000E+00 0. -1.
         25    2    1    2    0    0  0.11722394633E+03 -0.66124697964E+02 -0.29935728025E+03  0.35121741953E+03  0.12499986107E+03 0.  0.
          2    1    1    2  501    0 -0.25549687386E+02  0.68362585082E+02 -0.19208661388E+03  0.20548356819E+03  0.00000000000E+00 0. -1.
          1    1    1    2  502    0 -0.91674258942E+02 -0.22378871179E+01  0.61844022400E+03  0.62520195821E+03  0.00000000000E+00 0. -1.
         22    1    3    3    0    0  0.11317367530E+03  0.37110472804E-01 -0.15081313715E+03  0.18855472546E+03  0.00000000000E+00 0.  1.
         22    1    3    3    0    0  0.40502710305E+01 -0.66161808437E+02 -0.14854414310E+03  0.16266269407E+03  0.00000000000E+00 0.  1.
</event>
<event>
 7    1  0.6507405E-006  0.8208039E+02  0.7818608E-02  0.1340797E+00
          2   -1    0    0  502    0  0.00000000000E+00  0.00000000000E+00  0.62511520326E+03  0.62511520326E+03  0.00000000000E+00 0. -1.
          1   -1    0    0  501    0 -0.00000000000E+00 -0.00000000000E+00 -0.69407979230E+02  0.69407979230E+02  0.00000000000E+00 0. -1.
         25    2    1    2    0    0  0.21932951227E+02  0.59811746006E+01  0.16085572580E+03  0.20498634471E+03  0.12501203221E+03 0.  0.
          2    1    1    2  501    0  0.14192804854E+02 -0.80844016319E+02 -0.39394902241E+01  0.82174876133E+02  0.00000000000E+00 0. -1.
          1    1    1    2  502    0 -0.36125756081E+02  0.74862841718E+02  0.39879098845E+03  0.40736196164E+03  0.00000000000E+00 0. -1.
         22    1    3    3    0    0 -0.47945684168E+02  0.25750939138E+02  0.67222075449E+02  0.86491080028E+02  0.00000000000E+00 0. -1.
         22    1    3    3    0    0  0.69878635395E+02 -0.19769764538E+02  0.93633650351E+02  0.11849526468E+03  0.00000000000E+00 0. -1.
</event>
<event>
 7    1  0.6507405E-006  0.2175204E+03  0.7818608E-02  0.1246605E+00
          2   -1    0    0  502    0  0.00000000000E+00  0.00000000000E+00  0.16665606734E+04  0.16665606734E+04  0.00000000000E+00 0. -1.
          1   -1    0    0  501    0 -0.00000000000E+00 -0.00000000000E+00 -0.99868357283E+02  0.99868357283E+02  0.00000000000E+00 0. -1.
         25    2    1    2    0    0  0.48342289403E+02  0.18189522469E+03  0.88970797180E+03  0.91794785745E+03  0.12500057679E+03 0.  0.
          2    1    1    2  501    0 -0.11116263108E+03 -0.19360488981E+03  0.64092139435E+02  0.23226662749E+03  0.00000000000E+00 0. -1.
          1    1    1    2  502    0  0.62820341674E+02  0.11709665120E+02  0.61289220490E+03  0.61621454576E+03  0.00000000000E+00 0. -1.
         22    1    3    3    0    0  0.49847660515E+02  0.19916638190E+03  0.85287602389E+03  0.87723973295E+03  0.00000000000E+00 0.  1.
         22    1    3    3    0    0 -0.15053711126E+01 -0.17271157205E+02  0.36831947911E+02  0.40708124500E+02  0.00000000000E+00 0.  1.
</event>
<event>
 7    1  0.6507405E-006  0.1132258E+03  0.7818608E-02  0.1317585E+00
          2   -1    0    0  502    0  0.00000000000E+00  0.00000000000E+00  0.70283902456E+03  0.70283902456E+03  0.00000000000E+00 0. -1.
          1   -1    0    0  501    0 -0.00000000000E+00 -0.00000000000E+00 -0.10914434473E+04  0.10914434473E+04  0.00000000000E+00 0. -1.
         25    2    1    2    0    0  0.11819628312E+03  0.33325382131E+02 -0.26272109010E+03  0.31579886531E+03  0.12500243882E+03 0.  0.
          2    1    1    2  501    0 -0.79031146837E+02 -0.82146047982E+02 -0.79666973636E+03  0.80478355115E+03  0.00000000000E+00 0. -1.
          1    1    1    2  502    0 -0.39165136285E+02  0.48820665851E+02  0.67078640369E+03  0.67370005543E+03  0.00000000000E+00 0. -1.
         22    1    3    3    0    0  0.12562784042E+03  0.64267028615E+02 -0.19228487919E+03  0.23850802926E+03  0.00000000000E+00 0. -1.
         22    1    3    3    0    0 -0.74315572954E+01 -0.30941646483E+02 -0.70436210905E+02  0.77290836052E+02  0.00000000000E+00 0. -1.
</event>
<event>
 7    1  0.6507405E-006  0.8080600E+02  0.7818608E-02  0.1386300E+00
          2   -1    0    0  502    0  0.00000000000E+00  0.00000000000E+00  0.24853116391E+03  0.24853116391E+03  0.00000000000E+00 0. -1.
          1   -1    0    0  501    0 -0.00000000000E+00 -0.00000000000E+00 -0.24233853213E+03  0.24233853213E+03  0.00000000000E+00 0. -1.
         25    2    1    2    0    0  0.15325282599E+02 -0.33446368304E+02  0.39317359366E+02  0.13610181376E+03  0.12499730046E+03 0.  0.
          2    1    1    2  501    0 -0.36421234760E+02  0.77520681758E+02 -0.18034507132E+03  0.19965046253E+03  0.00000000000E+00 0. -1.
          1    1    1    2  502    0  0.21095952161E+02 -0.44074313455E+02  0.14722034372E+03  0.15511741975E+03  0.00000000000E+00 0. -1.
         22    1    3    3    0    0  0.49600303943E+02  0.81864814453E+01 -0.21625581360E+02  0.54725445625E+02  0.00000000000E+00 0. -1.
         22    1    3    3    0    0 -0.34275021345E+02 -0.41632849749E+02  0.60942940726E+02  0.81376368134E+02  0.00000000000E+00 0. -1.
</event>
<event>
 7    1  0.6507405E-006  0.1972956E+03  0.7818608E-02  0.1175332E+00
          2   -1    0    0  502    0  0.00000000000E+00  0.00000000000E+00  0.20152262639E+04  0.20152262639E+04  0.00000000000E+00 0. -1.
          1   -1    0    0  501    0 -0.00000000000E+00 -0.00000000000E+00 -0.31036518353E+03  0.31036518353E+03  0.00000000000E+00 0. -1.
         25    2    1    2    0    0 -0.23698097577E+03  0.56928871350E+02 -0.25422030013E+02  0.27508509524E+03  0.12499860297E+03 0.  0.
          2    1    1    2  501    0  0.57553091246E+02 -0.13928545217E+03 -0.11818722110E+03  0.19152288305E+03  0.00000000000E+00 0. -1.
          1    1    1    2  502    0  0.17942788452E+03  0.82356580819E+02  0.18484703314E+04  0.18589834691E+04  0.00000000000E+00 0. -1.
         22    1    3    3    0    0 -0.19473462838E+03  0.48923395364E+02 -0.70485798448E+02  0.21279878263E+03  0.00000000000E+00 0.  1.
         22    1    3    3    0    0 -0.42246347389E+02  0.80054759861E+01  0.45063768435E+02  0.62286312614E+02  0.00000000000E+00 0.  1.
</event>
<event>
 7    1  0.6658706E-006  0.7771277E+02  0.7818608E-02  0.1362486E+00
          2   -1    0    0  502    0  0.00000000000E+00  0.00000000000E+00  0.12636882039E+04  0.12636882039E+04  0.00000000000E+00 0. -1.
          1   -1    0    0  501    0 -0.00000000000E+00 -0.00000000000E+00 -0.41842595882E+03  0.41842595882E+03  0.00000000000E+00 0. -1.
         25    2    1    2    0    0  0.23694091767E+02 -0.35086314573E+02 -0.12351324159E+03  0.18075438937E+03  0.12499667584E+03 0.  0.
          2    1    1    2  501    0  0.67891625556E+01  0.88844779885E+02 -0.25803878751E+03  0.27298993297E+03  0.00000000000E+00 0. -1.
          1    1    1    2  502    0 -0.30483254323E+02 -0.53758465311E+02  0.12268142742E+04  0.12283698404E+04  0.00000000000E+00 0. -1.
         22    1    3    3    0    0  0.19876048278E+02 -0.46272465542E+02  0.59874919199E+01  0.50715366724E+02  0.00000000000E+00 0.  1.
         22    1    3    3    0    0  0.38180434895E+01  0.11186150968E+02 -0.12950073351E+03  0.13003902264E+03  0.00000000000E+00 0.  1.
</event>
<event>
 7    1  0.6507405E-006  0.6345144E+02  0.7818608E-02  0.1510962E+00
          2   -1    0    0  502    0  0.00000000000E+00  0.00000000000E+00  0.34973156541E+03  0.34973156541E+03  0.00000000000E+00 0. -1.
          1   -1    0    0  501    0 -0.00000000000E+00 -0.00000000000E+00 -0.18832624413E+04  0.18832624413E+04  0.00000000000E+00 0. -1.
         25    2    1    2    0    0  0.26349238560E+02  0.44888777396E+02  0.47331867873E+02  0.14343905594E+03  0.12500068938E+03 0.  0.
          2    1    1    2  501    0  0.24312745885E+02 -0.46320035774E+01 -0.18310081641E+04  0.18311754318E+04  0.00000000000E+00 0. -1.
          1    1    1    2  502    0 -0.50661984445E+02 -0.40256773818E+02  0.25014542033E+03  0.25837951896E+03  0.00000000000E+00 0. -1.
         22    1    3    3    0    0  0.33684714343E+02  0.20439845142E+02 -0.37776729960E+02  0.54585058178E+02  0.00000000000E+00 0.  1.
         22    1    3    3    0    0 -0.73354757837E+01  0.24448932253E+02  0.85108597833E+02  0.88853997763E+02  0.00000000000E+00 0.  1.
</event>
<event>
 7    1  0.6507405E-006  0.3179911E+02  0.7818608E-02  0.1581573E+00
          2   -1    0    0  502    0  0.00000000000E+00  0.00000000000E+00  0.51994792247E+03  0.51994792247E+03  0.00000000000E+00 0. -1.
          1   -1    0    0  501    0 -0.00000000000E+00 -0.00000000000E+00 -0.68479196597E+03  0.68479196597E+03  0.00000000000E+00 0. -1.
         25    2    1    2    0    0  0.43458557731E+02 -0.16581495756E+02 -0.20602091049E+03  0.24542387997E+03  0.12499869223E+03 0.  0.
          2    1    1    2  501    0 -0.14413140819E+02  0.28247145176E+02 -0.45803117659E+03  0.45912764954E+03  0.00000000000E+00 0. -1.
          1    1    1    2  502    0 -0.29045416912E+02 -0.11665649420E+02  0.49920804359E+03  0.50018835892E+03  0.00000000000E+00 0. -1.
         22    1    3    3    0    0 -0.88506625228E+01 -0.48916242153E+02 -0.16289980829E+03  0.17031582579E+03  0.00000000000E+00 0. -1.
         22    1    3    3    0    0  0.52309220253E+02  0.32334746397E+02 -0.43121102198E+02  0.75108054181E+02  0.00000000000E+00 0. -1.
</event>
<event>
 7    1  0.6507405E-006  0.9700770E+02  0.7818608E-02  0.1318356E+00
          2   -1    0    0  502    0  0.00000000000E+00  0.00000000000E+00  0.42770064698E+03  0.42770064698E+03  0.00000000000E+00 0. -1.
          1   -1    0    0  501    0 -0.00000000000E+00 -0.00000000000E+00 -0.46499570839E+03  0.46499570839E+03  0.00000000000E+00 0. -1.
         25    2    1    2    0    0  0.72645216316E+02 -0.85667094509E+02 -0.27862059276E+02  0.17033177107E+03  0.12498175608E+03 0.  0.
          2    1    1    2  501    0 -0.96272134027E+02  0.17072382538E+02 -0.35553818355E+03  0.36873729131E+03  0.00000000000E+00 0. -1.
          1    1    1    2  502    0  0.23626917711E+02  0.68594711971E+02  0.34610518141E+03  0.35362729300E+03  0.00000000000E+00 0. -1.
         22    1    3    3    0    0  0.83917142054E+02 -0.11165287718E+03 -0.24546196551E+02  0.14181314283E+03  0.00000000000E+00 0.  1.
         22    1    3    3    0    0 -0.11271925738E+02  0.25985782673E+02 -0.33158627248E+01  0.28518628238E+02  0.00000000000E+00 0.  1.
</event>
<event>
 7    1  0.6507405E-006  0.3962197E+02  0.7818608E-02  0.1513741E+00
          2   -1    0    0  502    0  0.00000000000E+00  0.00000000000E+00  0.14407735670E+04  0.14407735670E+04  0.00000000000E+00 0. -1.
          1   -1    0    0  501    0 -0.00000000000E+00 -0.00000000000E+00 -0.67917477540E+02  0.67917477540E+02  0.00000000000E+00 0. -1.
         25    2    1    2    0    0 -0.12382164798E+02 -0.10984837598E+02  0.12259546958E+03  0.17588516981E+03  0.12502783344E+03 0.  0.
          2    1    1    2  501    0  0.29715352965E+02 -0.25101106828E+02 -0.31725180272E+02  0.50195167388E+02  0.00000000000E+00 0. -1.
          1    1    1    2  502    0 -0.17333188167E+02  0.36085944426E+02  0.12819858002E+04  0.12826107074E+04  0.00000000000E+00 0. -1.
         22    1    3    3    0    0  0.37021691472E+01 -0.12964808939E+02  0.14643750256E+03  0.14705690900E+03  0.00000000000E+00 0. -1.
         22    1    3    3    0    0 -0.16084333945E+02  0.19799713412E+01 -0.23842032980E+02  0.28828260814E+02  0.00000000000E+00 0. -1.
</event>
<event>
 7    1  0.6507405E-006  0.3993696E+02  0.7818608E-02  0.1515921E+00
          2   -1    0    0  502    0  0.00000000000E+00  0.00000000000E+00  0.19553456857E+03  0.19553456857E+03  0.00000000000E+00 0. -1.
          1   -1    0    0  501    0 -0.00000000000E+00 -0.00000000000E+00 -0.13133093215E+04  0.13133093215E+04  0.00000000000E+00 0. -1.
         25    2    1    2    0    0 -0.32464578076E+02  0.10214295587E+02 -0.24755945422E+02  0.13189217231E+03  0.12499763045E+03 0.  0.
          2    1    1    2  501    0  0.79461225483E+01 -0.39283845185E+02 -0.12321068353E+04  0.12327585388E+04  0.00000000000E+00 0. -1.
          1    1    1    2  502    0  0.24518455528E+02  0.29069549598E+02  0.13908802781E+03  0.14419317895E+03  0.00000000000E+00 0. -1.
         22    1    3    3    0    0 -0.74980757734E+02 -0.19315429787E+02 -0.10046748225E+02  0.78077762571E+02  0.00000000000E+00 0.  1.
         22    1    3    3    0    0  0.42516179658E+02  0.29529725374E+02 -0.14709197197E+02  0.53814409739E+02  0.00000000000E+00 0.  1.
</event>
<event>
 7    1  0.6507405E-006  0.9288011E+02  0.7818608E-02  0.1304102E+00
          2   -1    0    0  502    0  0.00000000000E+00  0.00000000000E+00  0.14169183967E+04  0.14169183967E+04  0.00000000000E+00 0. -1.
          1   -1    0    0  501    0 -0.00000000000E+00 -0.00000000000E+00 -0.58888703732E+03  0.58888703732E+03  0.00000000000E+00 0. -1.
         25    2    1    2    0    0  0.15176174605E+03  0.28111819015E+02  0.14662004766E+03  0.24686822611E+03  0.12499832300E+03 0.  0.
          2    1    1    2  501    0 -0.64953772774E+02 -0.56693263553E+02 -0.53358656070E+03  0.54050692548E+03  0.00000000000E+00 0. -1.
          1    1    1    2  502    0 -0.86807973279E+02  0.28581444538E+02  0.12149978725E+04  0.12184302825E+04  0.00000000000E+00 0. -1.
         22    1    3    3    0    0 -0.21848481055E+00  0.32400473948E+02  0.68847249627E+02  0.76090618534E+02  0.00000000000E+00 0. -1.
         22    1    3    3    0    0  0.15198023086E+03 -0.42886549333E+01  0.77772798035E+02  0.17077760757E+03  0.00000000000E+00 0. -1.
</event>
<event>
 7    1  0.6507405E-006  0.6930909E+02  0.7818608E-02  0.1487597E+00
          2   -1    0    0  502    0  0.00000000000E+00  0.00000000000E+00  0.32842205637E+04  0.32842205637E+04  0.00000000000E+00 0. -1.
          1   -1    0    0  501    0 -0.00000000000E+00 -0.00000000000E+00 -0.63761323658E+03  0.63761323658E+03  0.00000000000E+00 0. -1.
         25    2    1    2    0    0  0.78074798062E+02  0.49285175587E+02  0.27136425922E+03  0.31271171565E+03  0.12500141318E+03 0.  0.
          2    1    1    2  501    0 -0.26335894714E+02 -0.38012418107E+01 -0.61625586560E+03  0.61683005819E+03  0.00000000000E+00 0. -1.
          1    1    1    2  502    0 -0.51738903348E+02 -0.45483933777E+02  0.29914989335E+04  0.29922920264E+04  0.00000000000E+00 0. -1.
         22    1    3    3    0    0  0.31689808857E+02  0.84553337721E+02  0.20729373778E+03  0.22610662226E+03  0.00000000000E+00 0. -1.
         22    1    3    3    0    0  0.46384989205E+02 -0.35268162133E+02  0.64070521431E+02  0.86605093386E+02  0.00000000000E+00 0. -1.
</event>
<event>
 7    1  0.6507405E-006  0.1439660E+03  0.7818608E-02  0.1363801E+00
          2   -1    0    0  502    0  0.00000000000E+00  0.00000000000E+00  0.96579456202E+03  0.96579456202E+03  0.00000000000E+00 0. -1.
          1   -1    0    0  501    0 -0.00000000000E+00 -0.00000000000E+00 -0.54077911958E+03  0.54077911958E+03  0.00000000000E+00 0. -1.
         25    2    1    2    0    0  0.10325432139E+03  0.78952402161E+02  0.76991769652E+02  0.19607317114E+03  0.12498807605E+03 0.  0.
          2    1    1    2  501    0  0.28501155563E+02 -0.16623457863E+02 -0.47425619606E+03  0.47540256070E+03  0.00000000000E+00 0. -1.
          1    1    1    2  502    0 -0.13175547695E+03 -0.62328944299E+02  0.82227986884E+03  0.83509794977E+03  0.00000000000E+00 0. -1.
         22    1    3    3    0    0  0.30715311367E+02 -0.11406743621E+02  0.73130856918E+02  0.80135300499E+02  0.00000000000E+00 0. -1.
         22    1    3    3    0    0  0.72539010020E+02  0.90359145783E+02  0.38609127337E+01  0.11593787064E+03  0.00000000000E+00 0. -1.
</event>
<event>
 7    1  0.6507405E-006  0.9909665E+02  0.7818608E-02  0.1323512E+00
          2   -1    0    0  502    0  0.00000000000E+00  0.00000000000E+00  0.14314744704E+04  0.14314744704E+04  0.00000000000E+00 0. -1.
          1   -1    0    0  501    0 -0.00000000000E+00 -0.00000000000E+00 -0.16565686260E+04  0.16565686260E+04  0.00000000000E+00 0. -1.
         25    2    1    2    0    0  0.21115691669E+01  0.79042572929E+02  0.47651570708E+03  0.49894134031E+03  0.12499221940E+03 0.  0.
          2    1    1    2  501    0  0.67689116609E+02  0.43258129660E+01 -0.16415213509E+04  0.16429220538E+04  0.00000000000E+00 0. -1.
          1    1    1    2  502    0 -0.69800685776E+02 -0.83368385895E+02  0.93991148824E+03  0.94617970240E+03  0.00000000000E+00 0. -1.
         22    1    3    3    0    0 -0.60843509512E+01  0.10758261045E+03  0.27686711219E+03  0.29709667654E+03  0.00000000000E+00 0.  1.
         22    1    3    3    0    0  0.81959201181E+01 -0.28540037522E+02  0.19964859489E+03  0.20184466377E+03  0.00000000000E+00 0.  1.
</event>
<event>
 7    1  0.6507405E-006  0.8652496E+02  0.7818608E-02  0.1370024E+00
          2   -1    0    0  502    0  0.00000000000E+00  0.00000000000E+00  0.10501383685E+04  0.10501383685E+04  0.00000000000E+00 0. -1.
          1   -1    0    0  501    0 -0.00000000000E+00 -0.00000000000E+00 -0.19695450230E+03  0.19695450230E+03  0.00000000000E+00 0. -1.
         25    2    1    2    0    0 -0.29014630191E+02 -0.90854876675E+02 -0.24112246916E+02  0.15906747284E+03  0.12499841232E+03 0.  0.
          2    1    1    2  501    0  0.51629287872E+02  0.72054369200E+01 -0.96873777378E+02  0.11000922884E+03  0.00000000000E+00 0. -1.
          1    1    1    2  502    0 -0.22614657680E+02  0.83649439755E+02  0.97416989047E+03  0.97801616910E+03  0.00000000000E+00 0. -1.
         22    1    3    3    0    0  0.48024371674E+02 -0.50778983888E+02 -0.17050474721E+02  0.71941393979E+02  0.00000000000E+00 0.  1.
         22    1    3    3    0    0 -0.77039001865E+02 -0.40075892786E+02 -0.70617721943E+01  0.87126078860E+02  0.00000000000E+00 0.  1.
</event>
<event>
 7    1  0.6507405E-006  0.6575323E+02  0.7818608E-02  0.1499006E+00
          2   -1    0    0  502    0  0.00000000000E+00  0.00000000000E+00  0.52552387980E+03  0.52552387980E+03  0.00000000000E+00 0. -1.
          1   -1    0    0  501    0 -0.00000000000E+00 -0.00000000000E+00 -0.18776796951E+04  0.18776796951E+04  0.00000000000E+00 0. -1.
         25    2    1    2    0    0  0.36808002392E+02 -0.24117535578E+02 -0.99552248935E+03  0.10043032377E+04  0.12499392706E+03 0.  0.
          2    1    1    2  501    0  0.25677753950E+02  0.34930315700E+01 -0.87549722114E+03  0.87588066113E+03  0.00000000000E+00 0. -1.
          1    1    1    2  502    0 -0.62485756342E+02  0.20624504008E+02  0.51886389517E+03  0.52301967613E+03  0.00000000000E+00 0. -1.
         22    1    3    3    0    0  0.54902992460E+02 -0.10836100426E+02 -0.18060110730E+03  0.18907278919E+03  0.00000000000E+00 0.  1.
         22    1    3    3    0    0 -0.18094990068E+02 -0.13281435152E+02 -0.81492138205E+03  0.81523044847E+03  0.00000000000E+00 0.  1.
</event>
<event>
 7    1  0.6507405E-006  0.6349110E+02  0.7818608E-02  0.1475787E+00
          2   -1    0    0  502    0  0.00000000000E+00  0.00000000000E+00  0.28459951804E+04  0.28459951804E+04  0.00000000000E+00 0. -1.
          1   -1    0    0  501    0 -0.00000000000E+00 -0.00000000000E+00 -0.18641786846E+02  0.18641786846E+02  0.00000000000E+00 0. -1.
         25    2    1    2    0    0 -0.25706056529E+02  0.22739607115E+02  0.10629278798E+04  0.10708029344E+04  0.12500142298E+03 0.  0.
          2    1    1    2  501    0  0.44414965738E+02 -0.48166203821E+02  0.59157661807E+02  0.88274012724E+02  0.00000000000E+00 0. -1.
          1    1    1    2  502    0 -0.18708909209E+02  0.25426596705E+02  0.17052678520E+04  0.17055600201E+04  0.00000000000E+00 0. -1.
         22    1    3    3    0    0 -0.22307556466E+02  0.29361055690E+02  0.82716937831E+02  0.90563737063E+02  0.00000000000E+00 0.  1.
         22    1    3    3    0    0 -0.33985000631E+01 -0.66214485745E+01  0.98021094193E+03  0.98023919737E+03  0.00000000000E+00 0.  1.
</event>
<event>
 7    1  0.6507405E-006  0.5205528E+02  0.7818608E-02  0.1554924E+00
          2   -1    0    0  502    0  0.00000000000E+00  0.00000000000E+00  0.85901734083E+03  0.85901734083E+03  0.00000000000E+00 0. -1.
          1   -1    0    0  501    0 -0.00000000000E+00 -0.00000000000E+00 -0.24369975339E+03  0.24369975339E+03  0.00000000000E+00 0. -1.
         25    2    1    2    0    0 -0.31414482668E+02  0.63402623926E+00 -0.32468317519E+02  0.13291333448E+03  0.12499796450E+03 0.  0.
          2    1    1    2  501    0  0.53772529282E+02 -0.39201226555E+01 -0.15633223857E+03  0.16536813806E+03  0.00000000000E+00 0. -1.
          1    1    1    2  502    0 -0.22358046614E+02  0.32860964163E+01  0.80411814353E+03  0.80443562169E+03  0.00000000000E+00 0. -1.
         22    1    3    3    0    0 -0.17305961030E+02  0.76196401010E+00  0.48097260961E+02  0.51121652832E+02  0.00000000000E+00 0. -1.
         22    1    3    3    0    0 -0.14108521639E+02 -0.12793777084E+00 -0.80565578480E+02  0.81791681647E+02  0.00000000000E+00 0. -1.
</event>
<event>
 7    1  0.9731356E-006  0.8924979E+02  0.7818608E-02  0.1407092E+00
          2   -1    0    0  502    0  0.00000000000E+00  0.00000000000E+00  0.21093153409E+04  0.21093153409E+04  0.00000000000E+00 0. -1.
          1   -1    0    0  501    0 -0.00000000000E+00 -0.00000000000E+00 -0.13739826910E+04  0.13739826910E+04  0.00000000000E+00 0. -1.
         25    2    1    2    0    0 -0.67846918501E+02 -0.82783919811E+02 -0.25402840139E+03  0.30267241440E+03  0.12499511990E+03 0.  0.
          2    1    1    2  501    0  0.30353005631E+02  0.82972777790E+02 -0.10936821848E+04  0.10972449627E+04  0.00000000000E+00 0. -1.
          1    1    1    2  502    0  0.37493912869E+02 -0.18885797913E+00  0.20830432361E+04  0.20833806548E+04  0.00000000000E+00 0. -1.
         22    1    3    3    0    0 -0.68710521760E+02 -0.36914602221E+02 -0.47971561217E+02  0.91570160769E+02  0.00000000000E+00 0.  1.
         22    1    3    3    0    0  0.86360325964E+00 -0.45869317589E+02 -0.20605684018E+03  0.21110225363E+03  0.00000000000E+00 0.  1.
</event>
<event>
 7    1  0.6507405E-006  0.3253631E+02  0.7818608E-02  0.1647762E+00
          2   -1    0    0  502    0  0.00000000000E+00  0.00000000000E+00  0.57326408582E+03  0.57326408582E+03  0.00000000000E+00 0. -1.
          1   -1    0    0  501    0 -0.00000000000E+00 -0.00000000000E+00 -0.13418583213E+04  0.13418583213E+04  0.00000000000E+00 0. -1.
         25    2    1    2    0    0  0.32476906420E+02 -0.20073303057E+02 -0.20574557820E+03  0.24375047029E+03  0.12500144748E+03 0.  0.
          2    1    1    2  501    0 -0.13994815033E+02  0.29377770870E+02 -0.11166800764E+04  0.11171541081E+04  0.00000000000E+00 0. -1.
          1    1    1    2  502    0 -0.18482091386E+02 -0.93044678129E+01  0.55383141913E+03  0.55421782869E+03  0.00000000000E+00 0. -1.
         22    1    3    3    0    0 -0.90279066302E+01 -0.67252888347E+02 -0.10544021149E+03  0.12538776770E+03  0.00000000000E+00 0.  1.
         22    1    3    3    0    0  0.41504813050E+02  0.47179585290E+02 -0.10030536671E+03  0.11836270259E+03  0.00000000000E+00 0.  1.
</event>
<event>
 7    1  0.6507405E-006  0.5348297E+02  0.7818608E-02  0.1532748E+00
          2   -1    0    0  502    0  0.00000000000E+00  0.00000000000E+00  0.49843618471E+03  0.49843618471E+03  0.00000000000E+00 0. -1.
          1   -1    0    0  501    0 -0.00000000000E+00 -0.00000000000E+00 -0.63829918597E+03  0.63829918597E+03  0.00000000000E+00 0. -1.
         25    2    1    2    0    0  0.56294220171E+02  0.47434222131E+02 -0.10463328115E+03  0.17886426815E+03  0.12500103297E+03 0.  0.
          2    1    1    2  501    0 -0.25027819028E+02 -0.42836349828E+01 -0.49468488278E+03  0.49533612275E+03  0.00000000000E+00 0. -1.
          1    1    1    2  502    0 -0.31266401143E+02 -0.43150587148E+02  0.45945516267E+03  0.46253497978E+03  0.00000000000E+00 0. -1.
         22    1    3    3    0    0  0.79415645440E+02  0.61167917664E+02 -0.38339012501E+02  0.10732305797E+03  0.00000000000E+00 0.  1.
         22    1    3    3    0    0 -0.23121425270E+02 -0.13733695533E+02 -0.66294268647E+02  0.71541210186E+02  0.00000000000E+00 0.  1.
</event>
<event>
 7    1  0.6507405E-006  0.3841163E+02  0.7818608E-02  0.1598188E+00
          2   -1    0    0  502    0  0.00000000000E+00  0.00000000000E+00  0.56898787300E+03  0.56898787300E+03  0.00000000000E+00 0. -1.
          1   -1    0    0  501    0 -0.00000000000E+00 -0.00000000000E+00 -0.17654533797E+03  0.17654533797E+03  0.00000000000E+00 0. -1.
         25    2    1    2    0    0  0.43313010016E+01  0.44947319801E+02  0.52919779350E+03  0.54563180361E+03  0.12499895493E+03 0.  0.
          2    1    1    2  501    0 -0.18465276374E+02 -0.14399976053E+02 -0.15824456875E+03  0.15996771324E+03  0.00000000000E+00 0. -1.
          1    1    1    2  502    0  0.14133975372E+02 -0.30547343748E+02  0.21489310272E+02  0.39933694117E+02  0.00000000000E+00 0. -1.
         22    1    3    3    0    0 -0.24701375883E+02 -0.36322751168E+02  0.23359185177E+03  0.23768603963E+03  0.00000000000E+00 0. -1.
         22    1    3    3    0    0  0.29032676885E+02  0.81270070969E+02  0.29560594174E+03  0.30794576398E+03  0.00000000000E+00 0. -1.
</event>
<event>
 7    1  0.6507405E-006  0.7001044E+02  0.7818608E-02  0.1368343E+00
          2   -1    0    0  502    0  0.00000000000E+00  0.00000000000E+00  0.41332021151E+03  0.41332021151E+03  0.00000000000E+00 0. -1.
          1   -1    0    0  501    0 -0.00000000000E+00 -0.00000000000E+00 -0.21274309876E+03  0.21274309876E+03  0.00000000000E+00 0. -1.
         25    2    1    2    0    0 -0.30007725789E+02  0.43474586906E+02  0.23158230652E+03  0.26841398618E+03  0.12500079988E+03 0.  0.
          2    1    1    2  501    0  0.70809307683E+02  0.75482183794E+01 -0.18075106547E+03  0.19427269835E+03  0.00000000000E+00 0. -1.
          1    1    1    2  502    0 -0.40801581894E+02 -0.51022805285E+02  0.14974587171E+03  0.16337662574E+03  0.00000000000E+00 0. -1.
         22    1    3    3    0    0  0.34528292462E+02  0.57288388849E+02  0.89331205205E+02  0.11159850671E+03  0.00000000000E+00 0. -1.
         22    1    3    3    0    0 -0.64536018251E+02 -0.13813801943E+02  0.14225110131E+03  0.15681547947E+03  0.00000000000E+00 0. -1.
</event>
<event>
 7    1  0.6507405E-006  0.3201605E+02  0.7818608E-02  0.1589934E+00
          2   -1    0    0  502    0  0.00000000000E+00  0.00000000000E+00  0.29060415835E+03  0.29060415835E+03  0.00000000000E+00 0. -1.
          1   -1    0    0  501    0 -0.00000000000E+00 -0.00000000000E+00 -0.54438180552E+03  0.54438180552E+03  0.00000000000E+00 0. -1.
         25    2    1    2    0    0  0.35806751698E+02 -0.19314998458E+02  0.10586958848E+03  0.16878594208E+03  0.12500052739E+03 0.  0.
          2    1    1    2  501    0 -0.51436230172E+01  0.29084408291E+02 -0.51080309771E+03  0.51165629508E+03  0.00000000000E+00 0. -1.
          1    1    1    2  502    0 -0.30663128681E+02 -0.97694098324E+01  0.15115586206E+03  0.15454372670E+03  0.00000000000E+00 0. -1.
         22    1    3    3    0    0 -0.24073631708E+02 -0.56187481854E+02  0.48517976456E+02  0.78042084160E+02  0.00000000000E+00 0.  1.
         22    1    3    3    0    0  0.59880383406E+02  0.36872483396E+02  0.57351612024E+02  0.90743857921E+02  0.00000000000E+00 0.  1.
</event>
<event>
 7    1  0.6507405E-006  0.1070120E+03  0.7818608E-02  0.1288040E+00
          2   -1    0    0  502    0  0.00000000000E+00  0.00000000000E+00  0.30450598487E+04  0.30450598487E+04  0.00000000000E+00 0. -1.
          1   -1    0    0  501    0 -0.00000000000E+00 -0.00000000000E+00 -0.11586752143E+04  0.11586752143E+04  0.00000000000E+00 0. -1.
         25    2    1    2    0    0 -0.10605178639E+03 -0.21172080451E+02 -0.56260082893E+02  0.17460989643E+03  0.12501272181E+03 0.  0.
          2    1    1    2  501    0  0.56645133682E+02  0.92601390867E+02 -0.10397825261E+04  0.10454335896E+04  0.00000000000E+00 0. -1.
          1    1    1    2  502    0  0.49406652710E+02 -0.71429310416E+02  0.29824272434E+04  0.29836915769E+04  0.00000000000E+00 0. -1.
         22    1    3    3    0    0 -0.72193136891E+02 -0.34084223217E+02  0.26618628389E+02  0.84155419694E+02  0.00000000000E+00 0.  1.
         22    1    3    3    0    0 -0.33858649501E+02  0.12912142767E+02 -0.82878711283E+02  0.90454476731E+02  0.00000000000E+00 0.  1.
</event>
<event>
 7    1  0.6507405E-006  0.4385295E+02  0.7818608E-02  0.1537996E+00
          2   -1    0    0  502    0  0.00000000000E+00  0.00000000000E+00  0.92453269272E+02  0.92453269272E+02  0.00000000000E+00 0. -1.
          1   -1    0    0  501    0 -0.00000000000E+00 -0.00000000000E+00 -0.23576249119E+04  0.23576249119E+04  0.00000000000E+00 0. -1.
         25    2    1    2    0    0 -0.16339358129E+02 -0.16501259126E+02 -0.72970266993E+03  0.74069609504E+03  0.12500181011E+03 0.  0.
          2    1    1    2  501    0  0.66354143890E+01  0.44805439425E+02 -0.16195255270E+04  0.16201587851E+04  0.00000000000E+00 0. -1.
          1    1    1    2  502    0  0.97039437402E+01 -0.28304180299E+02  0.84056554275E+02  0.89223301122E+02  0.00000000000E+00 0. -1.
         22    1    3    3    0    0  0.26619892494E+02 -0.32404196647E+02 -0.62507109202E+03  0.62647627307E+03  0.00000000000E+00 0.  1.
         22    1    3    3    0    0 -0.42959250623E+02  0.15902937521E+02 -0.10463157791E+03  0.11421982197E+03  0.00000000000E+00 0.  1.
</event>
<event>
 7    1  0.6507405E-006  0.1202615E+03  0.7818608E-02  0.1286451E+00
          2   -1    0    0  502    0  0.00000000000E+00  0.00000000000E+00  0.18465368361E+04  0.18465368361E+04  0.00000000000E+00 0. -1.
          1   -1    0    0  501    0 -0.00000000000E+00 -0.00000000000E+00 -0.61952486118E+03  0.61952486118E+03  0.00000000000E+00 0. -1.
         25    2    1    2    0    0 -0.77340726830E+02  0.15449910745E+03  0.29759936608E+03  0.36611571209E+03  0.12499507880E+03 0.  0.
          2    1    1    2  501    0  0.72220709226E+01 -0.11932501561E+03 -0.57813189644E+03  0.59036184442E+03  0.00000000000E+00 0. -1.
          1    1    1    2  502    0  0.70118655908E+02 -0.35174091843E+02  0.15075445053E+04  0.15095841408E+04  0.00000000000E+00 0. -1.
         22    1    3    3    0    0 -0.97828851573E+02  0.14460005189E+03  0.19811753385E+03  0.26406479589E+03  0.00000000000E+00 0. -1.
         22    1    3    3    0    0  0.20488124742E+02  0.98990555622E+01  0.99481832222E+02  0.10205091621E+03  0.00000000000E+00 0. -1.
</event>
<event>
 7    1  0.6507405E-006  0.2886946E+02  0.7818608E-02  0.1649177E+00
          2   -1    0    0  502    0  0.00000000000E+00  0.00000000000E+00  0.17463716495E+04  0.17463716495E+04  0.00000000000E+00 0. -1.
          1   -1    0    0  501    0 -0.00000000000E+00 -0.00000000000E+00 -0.37168397792E+03  0.37168397792E+03  0.00000000000E+00 0. -1.
         25    2    1    2    0    0 -0.36943541185E+01 -0.17255159669E+02  0.14175750368E+04  0.14231849796E+04  0.12500044989E+03 0.  0.
          2    1    1    2  501    0 -0.22942199747E+02 -0.29752985844E+01 -0.36765650336E+03  0.36838363345E+03  0.00000000000E+00 0. -1.
          1    1    1    2  502    0  0.26636553866E+02  0.20230458254E+02  0.32476913815E+03  0.32648701435E+03  0.00000000000E+00 0. -1.
         22    1    3    3    0    0  0.44411353771E+02  0.26343193569E+02  0.36814886438E+03  0.37175249634E+03  0.00000000000E+00 0.  1.
         22    1    3    3    0    0 -0.48105707890E+02 -0.43598353238E+02  0.10494261724E+04  0.10514324832E+04  0.00000000000E+00 0.  1.
</event>
<event>
 7    1  0.6507405E-006  0.1817879E+03  0.7818608E-02  0.1385725E+00
          2   -1    0    0  502    0  0.00000000000E+00  0.00000000000E+00  0.75583754606E+03  0.75583754606E+03  0.00000000000E+00 0. -1.
          1   -1    0    0  501    0 -0.00000000000E+00 -0.00000000000E+00 -0.47715951577E+03  0.47715951577E+03  0.00000000000E+00 0. -1.
         25    2    1    2    0    0 -0.19028518647E+02  0.19472129934E+03  0.39916559745E+03  0.46177741562E+03  0.12500695359E+03 0.  0.
          2    1    1    2  501    0  0.33228075817E+02 -0.17815238929E+03 -0.42703429199E+03  0.46389725734E+03  0.00000000000E+00 0. -1.
          1    1    1    2  502    0 -0.14199557170E+02 -0.16568910052E+02  0.30654672483E+03  0.30732238888E+03  0.00000000000E+00 0. -1.
         22    1    3    3    0    0 -0.51663678425E+02  0.22509597699E+02  0.11115890275E+03  0.12462792351E+03  0.00000000000E+00 0.  1.
         22    1    3    3    0    0  0.32635159779E+02  0.17221170164E+03  0.28800669470E+03  0.33714949211E+03  0.00000000000E+00 0.  1.
</event>
<event>
 7    1  0.6507405E-006  0.1293930E+03  0.7818608E-02  0.1263175E+00
          2   -1    0    0  502    0  0.00000000000E+00  0.00000000000E+00  0.16069247380E+04  0.16069247380E+04  0.00000000000E+00 0. -1.
          1   -1    0    0  501    0 -0.00000000000E+00 -0.00000000000E+00 -0.52445607577E+02  0.52445607577E+02  0.00000000000E+00 0. -1.
         25    2    1    2    0    0 -0.51210500867E+02  0.75742007884E+02  0.54171019408E+03  0.56341195998E+03  0.12499494039E+03 0.  0.
          2    1    1    2  501    0  0.42668066807E+02  0.80554366105E+02  0.23168651583E+02  0.94055070250E+02  0.00000000000E+00 0. -1.
          1    1    1    2  502    0  0.85424340602E+01 -0.15629637399E+03  0.98960028477E+03  0.10019033154E+04  0.00000000000E+00 0. -1.
         22    1    3    3    0    0 -0.44145372162E+02 -0.63870104640E+01  0.60351687373E+02  0.75046212128E+02  0.00000000000E+00 0. -1.
         22    1    3    3    0    0 -0.70651287056E+01  0.82129018348E+02  0.48135850671E+03  0.48836574785E+03  0.00000000000E+00 0. -1.
</event>
<event>
 7    1  0.6507405E-006  0.1122817E+03  0.7818608E-02  0.1352324E+00
          2   -1    0    0  502    0  0.00000000000E+00  0.00000000000E+00  0.21088922907E+04  0.21088922907E+04  0.00000000000E+00 0. -1.
          1   -1    0    0  501    0 -0.00000000000E+00 -0.00000000000E+00 -0.64491615650E+03  0.64491615650E+03  0.00000000000E+00 0. -1.
         25    2    1    2    0    0  0.12642975893E+02 -0.84608415681E+02 -0.81952354331E+02  0.17221808541E+03  0.12499780686E+03 0.  0.
          2    1    1    2  501    0  0.23052592949E+02  0.11456764925E+03 -0.51097020213E+03  0.52416382531E+03  0.00000000000E+00 0. -1.
          1    1    1    2  502    0 -0.35695568842E+02 -0.29959233566E+02  0.20568986907E+04  0.20574265365E+04  0.00000000000E+00 0. -1.
         22    1    3    3    0    0 -0.31412283553E+02 -0.67151064532E+02 -0.97374410596E+02  0.12238371160E+03  0.00000000000E+00 0.  1.
         22    1    3    3    0    0  0.44055259446E+02 -0.17457351149E+02  0.15422056265E+02  0.49834373814E+02  0.00000000000E+00 0.  1.
</event>
<event>
 7    1  0.6507405E-006  0.1064987E+03  0.7818608E-02  0.1284451E+00
          2   -1    0    0  502    0  0.00000000000E+00  0.00000000000E+00  0.45331297536E+03  0.45331297536E+03  0.00000000000E+00 0. -1.
          1   -1    0    0  501    0 -0.00000000000E+00 -0.00000000000E+00 -0.39344454719E+03  0.39344454719E+03  0.00000000000E+00 0. -1.
         25    2    1    2    0    0  0.20181725464E+02 -0.27484987305E+02 -0.80898159697E+02  0.15274593529E+03  0.12499632769E+03 0.  0.
          2    1    1    2  501    0  0.55991748809E+02  0.10191324310E+03 -0.25708121532E+03  0.28215622680E+03  0.00000000000E+00 0. -1.
          1    1    1    2  502    0 -0.76173474272E+02 -0.74428255799E+02  0.39784780318E+03  0.41185536046E+03  0.00000000000E+00 0. -1.
         22    1    3    3    0    0  0.16224209179E+02  0.31828403597E+02  0.15938384850E+02  0.39119104676E+02  0.00000000000E+00 0.  1.
         22    1    3    3    0    0  0.39575162849E+01 -0.59313390902E+02 -0.96836544546E+02  0.11362683061E+03  0.00000000000E+00 0.  1.
</event>
<event>
 7    1  0.6507405E-006  0.2376114E+03  0.7818608E-02  0.1211138E+00
          2   -1    0    0  502    0  0.00000000000E+00  0.00000000000E+00  0.19237285871E+04  0.19237285871E+04  0.00000000000E+00 0. -1.
          1   -1    0    0  501    0 -0.00000000000E+00 -0.00000000000E+00 -0.13317599039E+03  0.13317599039E+03  0.00000000000E+00 0. -1.
         25    2    1    2    0    0  0.24285182055E+03  0.22344601247E+01  0.44382622685E+03  0.52114059756E+03  0.12499521285E+03 0.  0.
          2    1    1    2  501    0 -0.22411638912E+03 -0.84561934635E+02  0.60887654323E+02  0.24715619173E+03  0.00000000000E+00 0. -1.
          1    1    1    2  502    0 -0.18735431428E+02  0.82327474511E+02  0.12858387155E+04  0.12886077882E+04  0.00000000000E+00 0. -1.
         22    1    3    3    0    0  0.24084765257E+03  0.20905088869E+02  0.43990569534E+03  0.50195780229E+03  0.00000000000E+00 0. -1.
         22    1    3    3    0    0  0.20041679798E+01 -0.18670628745E+02  0.39205315033E+01  0.19182795268E+02  0.00000000000E+00 0. -1.
</event>
<event>
 7    1  0.6507405E-006  0.1710695E+03  0.7818608E-02  0.1373304E+00
          2   -1    0    0  502    0  0.00000000000E+00  0.00000000000E+00  0.44445341660E+03  0.44445341660E+03  0.00000000000E+00 0. -1.
          1   -1    0    0  501    0 -0.00000000000E+00 -0.00000000000E+00 -0.81602097499E+03  0.81602097499E+03  0.00000000000E+00 0. -1.
         25    2    1    2    0    0  0.98313782192E+02  0.12780517681E+03  0.23459995139E+03  0.31090573116E+03  0.12500189392E+03 0.  0.
          2    1    1    2  501    0 -0.84306018468E+02 -0.14930705757E+03 -0.76739202723E+03  0.78631458440E+03  0.00000000000E+00 0. -1.
          1    1    1    2  502    0 -0.14007763723E+02  0.21501880756E+02  0.16122451744E+03  0.16325407604E+03  0.00000000000E+00 0. -1.
         22    1    3    3    0    0  0.14517453368E+02  0.11832446942E+03  0.14780680108E+03  0.18989019712E+03  0.00000000000E+00 0.  1.
         22    1    3    3    0    0  0.83796328823E+02  0.94807073877E+01  0.86793150317E+02  0.12101553404E+03  0.00000000000E+00 0.  1.
</event>
<event>
 7    1  0.6507405E-006  0.1217989E+03  0.7818608E-02  0.1279539E+00
          2   -1    0    0  502    0  0.00000000000E+00  0.00000000000E+00  0.61701369799E+03  0.61701369799E+03  0.00000000000E+00 0. -1.
          1   -1    0    0  501    0 -0.00000000000E+00 -0.00000000000E+00 -0.57145295132E+03  0.57145295132E+03  0.00000000000E+00 0. -1.
         25    2    1    2    0    0  0.13680206784E+03 -0.14982131675E+03 -0.27775748323E+03  0.36597241477E+03  0.12500142464E+03 0.  0.
          2    1    1    2  501    0 -0.55223252201E+02  0.61555736124E+02 -0.23617614489E+03  0.25023566422E+03  0.00000000000E+00 0. -1.
          1    1    1    2  502    0 -0.81578815636E+02  0.88265580629E+02  0.55949437479E+03  0.57225857032E+03  0.00000000000E+00 0. -1.
         22    1    3    3    0    0  0.12131475017E+03 -0.16568479782E+03 -0.27560834605E+03  0.34369853251E+03  0.00000000000E+00 0.  1.
         22    1    3    3    0    0  0.15487317672E+02  0.15863481070E+02 -0.21491371873E+01  0.22273882261E+02  0.00000000000E+00 0.  1.
</event>
<event>
 7    1  0.9284154E-006  0.4028684E+02  0.7818608E-02  0.1531593E+00
          2   -1    0    0  502    0  0.00000000000E+00  0.00000000000E+00  0.12436245881E+04  0.12436245881E+04  0.00000000000E+00 0. -1.
          1   -1    0    0  501    0 -0.00000000000E+00 -0.00000000000E+00 -0.10652390566E+04  0.10652390566E+04  0.00000000000E+00 0. -1.
         25    2    1    2    0    0 -0.32783585865E+01 -0.71654930785E+01 -0.30075218618E+03  0.32579063648E+03  0.12500227756E+03 0.  0.
          2    1    1    2  501    0  0.90237492511E+01 -0.32745413753E+02 -0.75125364792E+03  0.75202109923E+03  0.00000000000E+00 0. -1.
          1    1    1    2  502    0 -0.57453906646E+01  0.39910906832E+02  0.12303913656E+04  0.12310519090E+04  0.00000000000E+00 0. -1.
         22    1    3    3    0    0 -0.62693637372E+02 -0.15899799045E+02 -0.17069707474E+03  0.18253982333E+03  0.00000000000E+00 0. -1.
         22    1    3    3    0    0  0.59415278785E+02  0.87343059665E+01 -0.13005511144E+03  0.14325081314E+03  0.00000000000E+00 0. -1.
</event>
<event>
 7    1  0.6507405E-006  0.1166844E+03  0.7818608E-02  0.1264812E+00
          2   -1    0    0  502    0  0.00000000000E+00  0.00000000000E+00  0.71910587841E+03  0.71910587841E+03  0.00000000000E+00 0. -1.
          1   -1    0    0  501    0 -0.00000000000E+00 -0.00000000000E+00 -0.10932312024E+04  0.10932312024E+04  0.00000000000E+00 0. -1.
         25    2    1    2    0    0 -0.25969700739E+02  0.47710055808E+02 -0.27074891789E+01  0.13631819525E+03  0.12499858030E+03 0.  0.
          2    1    1    2  501    0  0.74368557605E+02  0.66075998782E+02 -0.10154056988E+04  0.10202673439E+04  0.00000000000E+00 0. -1.
          1    1    1    2  502    0 -0.48398856866E+02 -0.11378605459E+03  0.64398786391E+03  0.65575154169E+03  0.00000000000E+00 0. -1.
         22    1    3    3    0    0  0.14352346598E+02  0.57806583510E+02 -0.46779967338E+02  0.75736096375E+02  0.00000000000E+00 0. -1.
         22    1    3    3    0    0 -0.40322047337E+02 -0.10096527701E+02  0.44072478159E+02  0.60582098875E+02  0.00000000000E+00 0. -1.
</event>
<event>
 7    1  0.6507405E-006  0.1578585E+03  0.7818608E-02  0.1340830E+00
          2   -1    0    0  502    0  0.00000000000E+00  0.00000000000E+00  0.32938679726E+03  0.32938679726E+03  0.00000000000E+00 0. -1.
          1   -1    0    0  501    0 -0.00000000000E+00 -0.00000000000E+00 -0.17177853043E+03  0.17177853043E+03  0.00000000000E+00 0. -1.
         25    2    1    2    0    0  0.10941104976E+03  0.84013325872E+02  0.57939440835E+02  0.19495886638E+03  0.12499185591E+03 0.  0.
          2    1    1    2  501    0  0.10019512959E+02  0.35181821486E+02 -0.62344804189E+02  0.72284340021E+02  0.00000000000E+00 0. -1.
          1    1    1    2  502    0 -0.11943056272E+03 -0.11919514736E+03  0.16201363018E+03  0.23392212129E+03  0.00000000000E+00 0. -1.
         22    1    3    3    0    0  0.11916087950E+03  0.10138410947E+03  0.27912121495E+02  0.15892494890E+03  0.00000000000E+00 0. -1.
         22    1    3    3    0    0 -0.97498297409E+01 -0.17370783596E+02  0.30027319340E+02  0.36033917487E+02  0.00000000000E+00 0. -1.
</event>
<event>
 7    1  0.6507405E-006  0.1465437E+03  0.7818608E-02  0.1257538E+00
          2   -1    0    0  502    0  0.00000000000E+00  0.00000000000E+00  0.23822587119E+04  0.23822587119E+04  0.00000000000E+00 0. -1.
          1   -1    0    0  501    0 -0.00000000000E+00 -0.00000000000E+00 -0.77027678608E+03  0.77027678608E+03  0.00000000000E+00 0. -1.
         25    2    1    2    0    0 -0.17370917761E+02 -0.70970961275E+02  0.34303370941E+02  0.14879520459E+03  0.12499866209E+03 0.  0.
          2    1    1    2  501    0  0.33986545815E+02 -0.77986603945E+02 -0.70803028069E+03  0.71312262204E+03  0.00000000000E+00 0. -1.
          1    1    1    2  502    0 -0.16615628054E+02  0.14895756522E+03  0.22857088356E+04  0.22906176714E+04  0.00000000000E+00 0. -1.
         22    1    3    3    0    0 -0.42758687667E+02  0.22072099907E+02  0.15327126327E+02  0.50501522420E+02  0.00000000000E+00 0.  1.
         22    1    3    3    0    0  0.25387769906E+02 -0.93043061182E+02  0.18976244614E+02  0.98293682170E+02  0.00000000000E+00 0.  1.
</event>
<event>
 7    1  0.6507405E-006  0.7237241E+02  0.7818608E-02  0.1409244E+00
          2   -1    0    0  502    0  0.00000000000E+00  0.00000000000E+00  0.14147746015E+03  0.14147746015E+03  0.00000000000E+00 0. -1.
          1   -1    0    0  501    0 -0.00000000000E+00 -0.00000000000E+00 -0.20690708240E+04  0.20690708240E+04  0.00000000000E+00 0. -1.
         25    2    1    2    0    0  0.11746679120E+02 -0.81193628209E+02 -0.14497343531E+04  0.14574243358E+04  0.12500244149E+03 0.  0.
          2    1    1    2  501    0 -0.42659578116E+02  0.15727174898E+02 -0.60505842525E+03  0.60676427186E+03  0.00000000000E+00 0. -1.
          1    1    1    2  502    0  0.30912898995E+02  0.65466453311E+02  0.12719941452E+03  0.14635967644E+03  0.00000000000E+00 0. -1.
         22    1    3    3    0    0  0.24170882143E+02 -0.10477151013E+03 -0.13471630270E+04  0.13514471955E+04  0.00000000000E+00 0.  1.
         22    1    3    3    0    0 -0.12424203022E+02  0.23577881924E+02 -0.10257132608E+03  0.10597714032E+03  0.00000000000E+00 0.  1.
</event>
<event>
 7    1  0.6507405E-006  0.6203272E+02  0.7818608E-02  0.1416437E+00
          2   -1    0    0  502    0  0.00000000000E+00  0.00000000000E+00  0.21120891083E+03  0.21120891083E+03  0.00000000000E+00 0. -1.
          1   -1    0    0  501    0 -0.00000000000E+00 -0.00000000000E+00 -0.18623799244E+04  0.18623799244E+04  0.00000000000E+00 0. -1.
         25    2    1    2    0    0 -0.13116893141E+02  0.78389093963E+02 -0.11202264447E+03  0.18571265127E+03  0.12499285191E+03 0.  0.
          2    1    1    2  501    0  0.46554388081E+02 -0.40998665904E+02 -0.17093304043E+04  0.17104556799E+04  0.00000000000E+00 0. -1.
          1    1    1    2  502    0 -0.33437494941E+02 -0.37390428060E+02  0.17018203520E+03  0.17742050412E+03  0.00000000000E+00 0. -1.
         22    1    3    3    0    0 -0.40646068185E+02 -0.17471932330E+02 -0.15391485100E+02  0.46843026074E+02  0.00000000000E+00 0. -1.
         22    1    3    3    0    0  0.27529175044E+02  0.95861026293E+02 -0.96631159366E+02  0.13886962519E+03  0.00000000000E+00 0. -1.
</event>
<event>
 7    1  0.6507405E-006  0.2381244E+02  0.7818608E-02  0.1704677E+00
          2   -1    0    0  502    0  0.00000000000E+00  0.00000000000E+00  0.14556137911E+02  0.14556137911E+02  0.00000000000E+00 0. -1.
          1   -1    0    0  501    0 -0.00000000000E+00 -0.00000000000E+00 -0.63414334315E+03  0.63414334315E+03  0.00000000000E+00 0. -1.
         25    2    1    2    0    0  0.41273524865E+02  0.84145317032E+01 -0.37560224464E+03  0.39809257544E+03  0.12500537687E+03 0.  0.
          2    1    1    2  501    0 -0.20677495765E+02 -0.11932493645E+01 -0.20403808073E+03  0.20508661844E+03  0.00000000000E+00 0. -1.
          1    1    1    2  502    0 -0.20596029100E+02 -0.72212823387E+01 -0.39946879871E+02  0.45520287178E+02  0.00000000000E+00 0. -1.
         22    1    3    3    0    0  0.26808741043E+02 -0.54950662823E+02 -0.12433039390E+03  0.13855082384E+03  0.00000000000E+00 0. -1.
         22    1    3    3    0    0  0.14464783822E+02  0.63365194526E+02 -0.25127185074E+03  0.25954175160E+03  0.00000000000E+00 0. -1.
</event>
<event>
 7    1  0.6507405E-006  0.6992954E+02  0.7818608E-02  0.1366536E+00
          2   -1    0    0  502    0  0.00000000000E+00  0.00000000000E+00  0.15215260541E+03  0.15215260541E+03  0.00000000000E+00 0. -1.
          1   -1    0    0  501    0 -0.00000000000E+00 -0.00000000000E+00 -0.85076152329E+03  0.85076152329E+03  0.00000000000E+00 0. -1.
         25    2    1    2    0    0  0.98682347385E+02 -0.44424085436E+02 -0.48930297256E+03  0.51648151597E+03  0.12499620927E+03 0.  0.
          2    1    1    2  501    0 -0.64398719536E+02 -0.16160046845E+02 -0.33566443513E+03  0.34216802189E+03  0.00000000000E+00 0. -1.
          1    1    1    2  502    0 -0.34283627849E+02  0.60584132281E+02  0.12635848981E+03  0.14426459084E+03  0.00000000000E+00 0. -1.
         22    1    3    3    0    0  0.66802643009E+01 -0.44669926316E+02 -0.48884726461E+02  0.66556327493E+02  0.00000000000E+00 0.  1.
         22    1    3    3    0    0  0.92002083084E+02  0.24584087988E+00 -0.44041824610E+03  0.44992518848E+03  0.00000000000E+00 0.  1.
</event>
<event>
 7    1  0.6507405E-006  0.8442576E+02  0.7818608E-02  0.1327789E+00
          2   -1    0    0  502    0  0.00000000000E+00  0.00000000000E+00  0.43261831810E+04  0.43261831810E+04  0.00000000000E+00 0. -1.
          1   -1    0    0  501    0 -0.00000000000E+00 -0.00000000000E+00 -0.12184263472E+03  0.12184263472E+03  0.00000000000E+00 0. -1.
         25    2    1    2    0    0 -0.10449703514E+03 -0.61802409981E+01  0.26419473849E+04  0.26469737181E+04  0.12500421448E+03 0.  0.
          2    1    1    2  501    0  0.61878097897E+02 -0.57535019077E+02 -0.10337990025E+03  0.13351622072E+03  0.00000000000E+00 0. -1.
          1    1    1    2  502    0  0.42618937245E+02  0.63715260075E+02  0.16657730616E+04  0.16675358769E+04  0.00000000000E+00 0. -1.
         22    1    3    3    0    0 -0.68555975806E+02 -0.62508577580E+02  0.12593642233E+04  0.12627768968E+04  0.00000000000E+00 0.  1.
         22    1    3    3    0    0 -0.35941059335E+02  0.56328336582E+02  0.13825831617E+04  0.13841968213E+04  0.00000000000E+00 0.  1.
</event>
<event>
 7    1  0.6507405E-006  0.8646709E+02  0.7818608E-02  0.1408446E+00
          2   -1    0    0  502    0  0.00000000000E+00  0.00000000000E+00  0.13489822233E+04  0.13489822233E+04  0.00000000000E+00 0. -1.
          1   -1    0    0  501    0 -0.00000000000E+00 -0.00000000000E+00 -0.34872835031E+02  0.34872835031E+02  0.00000000000E+00 0. -1.
         25    2    1    2    0    0 -0.61454706647E+02 -0.23773856268E+01  0.25875014606E+03  0.29386893580E+03  0.12499992165E+03 0.  0.
          2    1    1    2  501    0  0.99743963568E+02  0.18434970679E+01  0.13015404441E+03  0.16398881677E+03  0.00000000000E+00 0. -1.
          1    1    1    2  502    0 -0.38289256921E+02  0.53388855893E+00  0.92520519784E+03  0.92599730580E+03  0.00000000000E+00 0. -1.
         22    1    3    3    0    0  0.93120973037E+01  0.49891536241E+02  0.82044426258E+02  0.96473667002E+02  0.00000000000E+00 0.  1.
         22    1    3    3    0    0 -0.70766803950E+02 -0.52268921868E+02  0.17670571980E+03  0.19739526880E+03  0.00000000000E+00 0.  1.
</event>
<event>
 7    1  0.6507405E-006  0.1170338E+03  0.7818608E-02  0.1421704E+00
          2   -1    0    0  502    0  0.00000000000E+00  0.00000000000E+00  0.92320329475E+02  0.92320329475E+02  0.00000000000E+00 0. -1.
          1   -1    0    0  501    0 -0.00000000000E+00 -0.00000000000E+00 -0.13316758460E+04  0.13316758460E+04  0.00000000000E+00 0. -1.
         25    2    1    2    0    0  0.11063593673E+03  0.25939659012E+02 -0.16954934369E+03  0.23934328348E+03  0.12500020398E+03 0.  0.
          2    1    1    2  501    0 -0.10590037528E+03 -0.51027223390E+02 -0.11211584299E+04  0.11273042588E+04  0.00000000000E+00 0. -1.
          1    1    1    2  502    0 -0.47355614566E+01  0.25087564378E+02  0.51352257031E+02  0.57348633209E+02  0.00000000000E+00 0. -1.
         22    1    3    3    0    0  0.12419070337E+03  0.55635386826E+02 -0.14129583721E+03  0.19617120249E+03  0.00000000000E+00 0. -1.
         22    1    3    3    0    0 -0.13554766640E+02 -0.29695727815E+02 -0.28253506473E+02  0.43172080992E+02  0.00000000000E+00 0. -1.
</event>
<event>
 7    1  0.6507405E-006  0.6911597E+02  0.7818608E-02  0.1363198E+00
          2   -1    0    0  502    0  0.00000000000E+00  0.00000000000E+00  0.24108598518E+04  0.24108598518E+04  0.00000000000E+00 0. -1.
          1   -1    0    0  501    0 -0.00000000000E+00 -0.00000000000E+00 -0.29456068043E+04  0.29456068043E+04  0.00000000000E+00 0. -1.
         25    2    1    2    0    0 -0.48392223582E+01  0.12514723093E+02  0.26630833988E+03  0.29449143569E+03  0.12500014976E+03 0.  0.
          2    1    1    2  501    0 -0.61502187114E+02 -0.31751224049E+02 -0.29305466408E+04  0.29313638930E+04  0.00000000000E+00 0. -1.
          1    1    1    2  502    0  0.66341409472E+02  0.19236500957E+02  0.21294913484E+04  0.21306113274E+04  0.00000000000E+00 0. -1.
         22    1    3    3    0    0  0.52686622693E+02 -0.19921392467E+02  0.15680883353E+03  0.16661858348E+03  0.00000000000E+00 0. -1.
         22    1    3    3    0    0 -0.57525845052E+02  0.32436115560E+02  0.10949950635E+03  0.12787285221E+03  0.00000000000E+00 0. -1.
</event>
<event>
 7    1  0.6507405E-006  0.1254409E+03  0.7818608E-02  0.1346870E+00
          2   -1    0    0  502    0  0.00000000000E+00  0.00000000000E+00  0.61022598634E+03  0.61022598634E+03  0.00000000000E+00 0. -1.
          1   -1    0    0  501    0 -0.00000000000E+00 -0.00000000000E+00 -0.43281262374E+03  0.43281262374E+03  0.00000000000E+00 0. -1.
         25    2    1    2    0    0  0.93128429382E+02  0.36562609843E+02  0.87830183527E+02  0.18261552286E+03  0.12499823700E+03 0.  0.
          2    1    1    2  501    0 -0.99820838758E+02 -0.79748280996E+02 -0.37377506494E+03  0.39500859148E+03  0.00000000000E+00 0. -1.
          1    1    1    2  502    0  0.66924093756E+01  0.43185671153E+02  0.46335824402E+03  0.46541449573E+03  0.00000000000E+00 0. -1.
         22    1    3    3    0    0 -0.35776888055E+01  0.45657250040E+02  0.70318027690E+02  0.83916681039E+02  0.00000000000E+00 0.  1.
         22    1    3    3    0    0  0.96706118188E+02 -0.90946401974E+01  0.17512155837E+02  0.98698841824E+02  0.00000000000E+00 0.  1.
</event>
<event>
 7    1  0.6507405E-006  0.7173671E+02  0.7818608E-02  0.1367716E+00
          2   -1    0    0  502    0  0.00000000000E+00  0.00000000000E+00  0.12301367792E+04  0.12301367792E+04  0.00000000000E+00 0. -1.
          1   -1    0    0  501    0 -0.00000000000E+00 -0.00000000000E+00 -0.15417849836E+04  0.15417849836E+04  0.00000000000E+00 0. -1.
         25    2    1    2    0    0 -0.10063440553E+03 -0.79531150649E+02  0.15757370527E+03  0.23855164401E+03  0.12499970708E+03 0.  0.
          2    1    1    2  501    0  0.60133018674E+02  0.22173956902E+02 -0.14994164089E+04  0.15007855382E+04  0.00000000000E+00 0. -1.
          1    1    1    2  502    0  0.40501386852E+02  0.57357193748E+02  0.10301944992E+04  0.10325845806E+04  0.00000000000E+00 0. -1.
         22    1    3    3    0    0 -0.10849527581E+02 -0.17317273474E+02  0.12195884236E+03  0.12365904512E+03  0.00000000000E+00 0.  1.
         22    1    3    3    0    0 -0.89784877945E+02 -0.62213877176E+02  0.35614862910E+02  0.11489259890E+03  0.00000000000E+00 0.  1.
</event>
<event>
 7    1  0.6507405E-006  0.7344929E+02  0.7818608E-02  0.1404040E+00
          2   -1    0    0  502    0  0.00000000000E+00  0.00000000000E+00  0.17036131124E+04  0.17036131124E+04  0.00000000000E+00 0. -1.
          1   -1    0    0  501    0 -0.00000000000E+00 -0.00000000000E+00 -0.14063379905E+03  0.14063379905E+03  0.00000000000E+00 0. -1.
         25    2    1    2    0    0 -0.11745875725E+03 -0.18054112308E+02  0.62133281056E+02  0.18332601654E+03  0.12500149238E+03 0.  0.
          2    1    1    2  501    0  0.44807862844E+02  0.13036100597E+02 -0.72320673285E+02  0.86069531634E+02  0.00000000000E+00 0. -1.
          1    1    1    2  502    0  0.72650894409E+02  0.50180117113E+01  0.15731667055E+04  0.15748513632E+04  0.00000000000E+00 0. -1.
         22    1    3    3    0    0  0.18258064931E+02 -0.36927583071E+01 -0.17296508417E+02  0.25419728605E+02  0.00000000000E+00 0. -1.
         22    1    3    3    0    0 -0.13571682218E+03 -0.14361354001E+02  0.79429789473E+02  0.15790628793E+03  0.00000000000E+00 0. -1.
</event>
<event>
 7    1  0.6507405E-006  0.7259455E+02  0.7818608E-02  0.1418677E+00
          2   -1    0    0  502    0  0.00000000000E+00  0.00000000000E+00  0.18059526627E+03  0.18059526627E+03  0.00000000000E+00 0. -1.
          1   -1    0    0  501    0 -0.00000000000E+00 -0.00000000000E+00 -0.13560166946E+04  0.13560166946E+04  0.00000000000E+00 0. -1.
         25    2    1    2    0    0 -0.37943015101E+02  0.90758393854E+02 -0.70878441016E+03  0.72641348528E+03  0.12499781221E+03 0.  0.
          2    1    1    2  501    0  0.46903029880E+02 -0.49593741553E+02 -0.63397484817E+03  0.63763903701E+03  0.00000000000E+00 0. -1.
          1    1    1    2  502    0 -0.89600147789E+01 -0.41164652300E+02  0.16733783004E+03  0.17255943854E+03  0.00000000000E+00 0. -1.
         22    1    3    3    0    0 -0.72900618419E+02  0.47685355824E+02 -0.25980706933E+03  0.27402209144E+03  0.00000000000E+00 0. -1.
         22    1    3    3    0    0  0.34957603318E+02  0.43073038030E+02 -0.44897734084E+03  0.45239139384E+03  0.00000000000E+00 0. -1.
</event>
<event>
 7    1  0.6507405E-006  0.5548460E+02  0.7818608E-02  0.1516094E+00
          2   -1    0    0  502    0  0.00000000000E+00  0.00000000000E+00  0.86443822209E+03  0.86443822209E+03  0.00000000000E+00 0. -1.
          1   -1    0    0  501    0 -0.00000000000E+00 -0.00000000000E+00 -0.12772602401E+04  0.12772602401E+04  0.00000000000E+00 0. -1.
         25    2    1    2    0    0  0.49091619310E+02 -0.57661819451E+02 -0.29943905116E+03  0.33320251608E+03  0.12500119541E+03 0.  0.
          2    1    1    2  501    0 -0.27762216149E+01  0.27199589681E+02 -0.95983813894E+03  0.96022746162E+03  0.00000000000E+00 0. -1.
          1    1    1    2  502    0 -0.46315397695E+02  0.30462229770E+02  0.84645517207E+03  0.84826848452E+03  0.00000000000E+00 0. -1.
         22    1    3    3    0    0  0.55483949010E+02 -0.36047899960E+02 -0.30321397488E+03  0.31034921339E+03  0.00000000000E+00 0. -1.
         22    1    3    3    0    0 -0.63923296999E+01 -0.21613919491E+02  0.37749237215E+01  0.22853302690E+02  0.00000000000E+00 0. -1.
</event>
<event>
 7    1  0.6507405E-006  0.7161514E+02  0.7818608E-02  0.1491178E+00
          2   -1    0    0  502    0  0.00000000000E+00  0.00000000000E+00  0.67856973251E+02  0.67856973251E+02  0.00000000000E+00 0. -1.
          1   -1    0    0  501    0 -0.00000000000E+00 -0.00000000000E+00 -0.20931500898E+04  0.20931500898E+04  0.00000000000E+00 0. -1.
         25    2    1    2    0    0 -0.10883539568E+02 -0.60569317678E+02 -0.16375731947E+04  0.16434880800E+04  0.12498002768E+03 0.  0.
          2    1    1    2  501    0 -0.25068536002E+02 -0.15602534853E+01 -0.43229430117E+03  0.43302335816E+03  0.00000000000E+00 0. -1.
          1    1    1    2  502    0  0.35952075570E+02  0.62129571163E+02  0.44574379277E+02  0.84495624968E+02  0.00000000000E+00 0. -1.
         22    1    3    3    0    0  0.21425045014E+02 -0.40827177931E+02 -0.15025327575E+04  0.15032400269E+04  0.00000000000E+00 0.  1.
         22    1    3    3    0    0 -0.32308584582E+02 -0.19742139747E+02 -0.13504043719E+03  0.14024805309E+03  0.00000000000E+00 0.  1.
</event>
<event>
 7    1  0.6507405E-006  0.7661824E+02  0.7818608E-02  0.1453758E+00
          2   -1    0    0  502    0  0.00000000000E+00  0.00000000000E+00  0.94808310418E+03  0.94808310418E+03  0.00000000000E+00 0. -1.
          1   -1    0    0  501    0 -0.00000000000E+00 -0.00000000000E+00 -0.49464861615E+03  0.49464861615E+03  0.00000000000E+00 0. -1.
         25    2    1    2    0    0 -0.27420623080E+02 -0.47975081089E+02  0.59475543171E+02  0.14905127683E+03  0.12500177564E+03 0.  0.
          2    1    1    2  501    0  0.12260121881E+02 -0.28108823567E+02 -0.44755180143E+03  0.44860119429E+03  0.00000000000E+00 0. -1.
          1    1    1    2  502    0  0.15160501199E+02  0.76083904657E+02  0.84151074629E+03  0.84507924922E+03  0.00000000000E+00 0. -1.
         22    1    3    3    0    0 -0.45531822266E+02 -0.80187144385E+02  0.18825509117E+02  0.94114423746E+02  0.00000000000E+00 0.  1.
         22    1    3    3    0    0  0.18111199186E+02  0.32212063296E+02  0.40650034054E+02  0.54936853080E+02  0.00000000000E+00 0.  1.
</event>
<event>
 7    1  0.6507405E-006  0.5837799E+02  0.7818608E-02  0.1495411E+00
          2   -1    0    0  502    0  0.00000000000E+00  0.00000000000E+00  0.54442020924E+03  0.54442020924E+03  0.00000000000E+00 0. -1.
          1   -1    0    0  501    0 -0.00000000000E+00 -0.00000000000E+00 -0.64582393037E+02  0.64582393037E+02  0.00000000000E+00 0. -1.
         25    2    1    2    0    0 -0.64666189830E+01 -0.32216381541E+02  0.13089087668E+03  0.18394965263E+03  0.12500136280E+03 0.  0.
          2    1    1    2  501    0  0.83365215613E+01  0.62078809115E+02 -0.11230451517E+02  0.63634889598E+02  0.00000000000E+00 0. -1.
          1    1    1    2  502    0 -0.18699025784E+01 -0.29862427574E+02  0.36017739103E+03  0.36141806005E+03  0.00000000000E+00 0. -1.
         22    1    3    3    0    0  0.35270193178E+02 -0.19519640027E+00  0.12631366551E+03  0.13114559360E+03  0.00000000000E+00 0.  1.
         22    1    3    3    0    0 -0.41736812160E+02 -0.32021185141E+02  0.45772111767E+01  0.52804059023E+02  0.00000000000E+00 0.  1.
</event>
<event>
 7    1  0.6507405E-006  0.6325182E+02  0.7818608E-02  0.1419387E+00
          2   -1    0    0  502    0  0.00000000000E+00  0.00000000000E+00  0.10577514954E+04  0.10577514954E+04  0.00000000000E+00 0. -1.
          1   -1    0    0  501    0 -0.00000000000E+00 -0.00000000000E+00 -0.11462969492E+04  0.11462969492E+04  0.00000000000E+00 0. -1.
         25    2    1    2    0    0 -0.59306334943E+02 -0.91080266112E+02  0.29794666298E+03  0.34089587318E+03  0.12499970452E+03 0.  0.
          2    1    1    2  501    0  0.25397127618E+02  0.40833453011E+02 -0.11230627440E+04  0.11240917720E+04  0.00000000000E+00 0. -1.
          1    1    1    2  502    0  0.33909207325E+02  0.50246813101E+02  0.73657062714E+03  0.73906079948E+03  0.00000000000E+00 0. -1.
         22    1    3    3    0    0 -0.34567757032E+02 -0.10277580683E+03  0.29386120197E+03  0.31322867416E+03  0.00000000000E+00 0. -1.
         22    1    3    3    0    0 -0.24738577910E+02  0.11695540722E+02  0.40854610135E+01  0.27667199018E+02  0.00000000000E+00 0. -1.
</event>
<event>
 7    1  0.6507405E-006  0.5078364E+02  0.7818608E-02  0.1456092E+00
          2   -1    0    0  502    0  0.00000000000E+00  0.00000000000E+00  0.21126920964E+03  0.21126920964E+03  0.00000000000E+00 0. -1.
          1   -1    0    0  501    0 -0.00000000000E+00 -0.00000000000E+00 -0.38762461733E+03  0.38762461733E+03  0.00000000000E+00 0. -1.
         25    2    1    2    0    0  0.30483564470E+02 -0.59778198186E+01  0.28611586433E+02  0.13194735939E+03  0.12500600282E+03 0.  0.
          2    1    1    2  501    0 -0.98476065894E+01 -0.44404547454E+02 -0.32866477889E+03  0.33179704048E+03  0.00000000000E+00 0. -1.
          1    1    1    2  502    0 -0.20635957881E+02  0.50382367273E+02  0.12369778476E+03  0.13514942709E+03  0.00000000000E+00 0. -1.
         22    1    3    3    0    0  0.71629731685E+02 -0.12541633462E+02 -0.12070086220E+02  0.73714299919E+02  0.00000000000E+00 0.  1.
         22    1    3    3    0    0 -0.41146167215E+02  0.65638136436E+01  0.40681672653E+02  0.58233059475E+02  0.00000000000E+00 0.  1.
</event>
<event>
 7    1  0.6507405E-006  0.5117014E+02  0.7818608E-02  0.1484804E+00
          2   -1    0    0  502    0  0.00000000000E+00  0.00000000000E+00  0.70739950853E+03  0.70739950853E+03  0.00000000000E+00 0. -1.
          1   -1    0    0  501    0 -0.00000000000E+00 -0.00000000000E+00 -0.87151457891E+02  0.87151457891E+02  0.00000000000E+00 0. -1.
         25    2    1    2    0    0  0.73927137186E+02 -0.33053159145E+02  0.21780800410E+03  0.26386119678E+03  0.12499868628E+03 0.  0.
          2    1    1    2  501    0 -0.24625546450E+02  0.27283233370E+02 -0.57410927592E+02  0.68167492018E+02  0.00000000000E+00 0. -1.
          1    1    1    2  502    0 -0.49301590736E+02  0.57699257751E+01  0.45985097412E+03  0.46252227762E+03  0.00000000000E+00 0. -1.
         22    1    3    3    0    0 -0.23156398503E+02  0.11578776812E+02  0.59231275334E+01  0.26558808404E+02  0.00000000000E+00 0.  1.
         22    1    3    3    0    0  0.97083535689E+02 -0.44631935958E+02  0.21188487657E+03  0.23730238838E+03  0.00000000000E+00 0.  1.
</event>
<event>
 7    1  0.6507405E-006  0.1837508E+03  0.7818608E-02  0.1271822E+00
          2   -1    0    0  502    0  0.00000000000E+00  0.00000000000E+00  0.78452441266E+03  0.78452441266E+03  0.00000000000E+00 0. -1.
          1   -1    0    0  501    0 -0.00000000000E+00 -0.00000000000E+00 -0.52109770512E+03  0.52109770512E+03  0.00000000000E+00 0. -1.
         25    2    1    2    0    0  0.28036350721E+02 -0.22714040196E+03 -0.13236292719E+03  0.29244472708E+03  0.12500069895E+03 0.  0.
          2    1    1    2  501    0 -0.13478123992E+02  0.16994231500E+03 -0.28378051871E+03  0.33104898890E+03  0.00000000000E+00 0. -1.
          1    1    1    2  502    0 -0.14558226729E+02  0.57198086955E+02  0.67957015344E+03  0.68212840181E+03  0.00000000000E+00 0. -1.
         22    1    3    3    0    0 -0.30205048783E+02 -0.10931870664E+02  0.40814166798E+00  0.32125026814E+02  0.00000000000E+00 0.  1.
         22    1    3    3    0    0  0.58241399503E+02 -0.21620853129E+03 -0.13277106886E+03  0.26031970026E+03  0.00000000000E+00 0.  1.
</event>
<event>
 7    1  0.6507405E-006  0.7297375E+02  0.7818608E-02  0.1370500E+00
          2   -1    0    0  502    0  0.00000000000E+00  0.00000000000E+00  0.84699549208E+03  0.84699549208E+03  0.00000000000E+00 0. -1.
          1   -1    0    0  501    0 -0.00000000000E+00 -0.00000000000E+00 -0.59408590274E+03  0.59408590274E+03  0.00000000000E+00 0. -1.
         25    2    1    2    0    0  0.32193983582E+02  0.12826062065E+03  0.56318017195E+02  0.19048449840E+03  0.12500154272E+03 0.  0.
          2    1    1    2  501    0 -0.89326266024E+01 -0.71256727947E+02 -0.52323594134E+03  0.52814123434E+03  0.00000000000E+00 0. -1.
          1    1    1    2  502    0 -0.23261356980E+02 -0.57003892699E+02  0.71982751348E+03  0.72245566208E+03  0.00000000000E+00 0. -1.
         22    1    3    3    0    0 -0.16567991014E+02  0.16088120137E+02 -0.32111513717E+02  0.39553448004E+02  0.00000000000E+00 0. -1.
         22    1    3    3    0    0  0.48761974596E+02  0.11217250051E+03  0.88429530912E+02  0.15093105040E+03  0.00000000000E+00 0. -1.
</event>
<event>
 7    1  0.6507405E-006  0.5853255E+02  0.7818608E-02  0.1437282E+00
          2   -1    0    0  502    0  0.00000000000E+00  0.00000000000E+00  0.17631262512E+03  0.17631262512E+03  0.00000000000E+00 0. -1.
          1   -1    0    0  501    0 -0.00000000000E+00 -0.00000000000E+00 -0.26863650586E+04  0.26863650586E+04  0.00000000000E+00 0. -1.
         25    2    1    2    0    0 -0.59892769001E+02 -0.59943297598E+02  0.21167432705E+02  0.15248818720E+03  0.12499697726E+03 0.  0.
          2    1    1    2  501    0  0.44997901237E+02  0.57009053966E+01 -0.26116485127E+04  0.26120423551E+04  0.00000000000E+00 0. -1.
          1    1    1    2  502    0  0.14894867764E+02  0.54242392201E+02  0.80428646437E+02  0.98147141400E+02  0.00000000000E+00 0. -1.
         22    1    3    3    0    0 -0.66173784785E+02 -0.86153921440E+02  0.43958284166E+02  0.11719129114E+03  0.00000000000E+00 0.  1.
         22    1    3    3    0    0  0.62810157837E+01  0.26210623842E+02 -0.22790851461E+02  0.35296896064E+02  0.00000000000E+00 0.  1.
</event>
<event>
 7    1  0.6507405E-006  0.6023993E+02  0.7818608E-02  0.1444181E+00
          2   -1    0    0  502    0  0.00000000000E+00  0.00000000000E+00  0.46480866249E+03  0.46480866249E+03  0.00000000000E+00 0. -1.
          1   -1    0    0  501    0 -0.00000000000E+00 -0.00000000000E+00 -0.19617974395E+03  0.19617974395E+03  0.00000000000E+00 0. -1.
         25    2    1    2    0    0  0.12509267269E+02  0.23155596994E+02 -0.91036424463E+02  0.15685990925E+03  0.12499894844E+03 0.  0.
          2    1    1    2  501    0  0.41575010885E+02  0.48738240535E+01 -0.63798746753E+02  0.76305411199E+02  0.00000000000E+00 0. -1.
          1    1    1    2  502    0 -0.54084278154E+02 -0.28029421047E+02  0.42346408976E+03  0.42782308599E+03  0.00000000000E+00 0. -1.
         22    1    3    3    0    0 -0.40218442212E+02  0.31482184145E+02 -0.89983675437E+02  0.10346841478E+03  0.00000000000E+00 0.  1.
         22    1    3    3    0    0  0.52727709481E+02 -0.83265871510E+01 -0.10527490254E+01  0.53391494465E+02  0.00000000000E+00 0.  1.
</event>
<event>
 7    1  0.6507405E-006  0.9819714E+02  0.7818608E-02  0.1333422E+00
          2   -1    0    0  502    0  0.00000000000E+00  0.00000000000E+00  0.29367276422E+03  0.29367276422E+03  0.00000000000E+00 0. -1.
          1   -1    0    0  501    0 -0.00000000000E+00 -0.00000000000E+00 -0.21867132267E+04  0.21867132267E+04  0.00000000000E+00 0. -1.
         25    2    1    2    0    0  0.15135998689E+03 -0.45820316183E+02 -0.29055083991E+03  0.35364947628E+03  0.12505524577E+03 0.  0.
          2    1    1    2  501    0 -0.93255247379E+02  0.22202591034E+02 -0.18596087170E+04  0.18620778922E+04  0.00000000000E+00 0. -1.
          1    1    1    2  502    0 -0.58104739513E+02  0.23617725149E+02  0.25711909445E+03  0.26465862243E+03  0.00000000000E+00 0. -1.
         22    1    3    3    0    0  0.11773042944E+03 -0.48951591974E+02 -0.29324767051E+03  0.31976695988E+03  0.00000000000E+00 0. -1.
         22    1    3    3    0    0  0.33629557449E+02  0.31312757908E+01  0.26968305988E+01  0.33882516400E+02  0.00000000000E+00 0. -1.
</event>
<event>
 7    1  0.6507405E-006  0.5824011E+02  0.7818608E-02  0.1411705E+00
          2   -1    0    0  502    0  0.00000000000E+00  0.00000000000E+00  0.17797745198E+04  0.17797745198E+04  0.00000000000E+00 0. -1.
          1   -1    0    0  501    0 -0.00000000000E+00 -0.00000000000E+00 -0.24178147441E+02  0.24178147441E+02  0.00000000000E+00 0. -1.
         25    2    1    2    0    0 -0.38910709725E+02 -0.58353062915E+02  0.50356956452E+03  0.52357070145E+03  0.12499939930E+03 0.  0.
          2    1    1    2  501    0 -0.19784506239E+02  0.51773726317E+02  0.43616249205E+02  0.70528877905E+02  0.00000000000E+00 0. -1.
          1    1    1    2  502    0  0.58695215964E+02  0.65793365981E+01  0.12084105587E+04  0.12098530879E+04  0.00000000000E+00 0. -1.
         22    1    3    3    0    0 -0.41753548624E+01 -0.93684548701E+02  0.33204555989E+03  0.34503403035E+03  0.00000000000E+00 0.  1.
         22    1    3    3    0    0 -0.34735354862E+02  0.35331485787E+02  0.17152400462E+03  0.17853667110E+03  0.00000000000E+00 0.  1.
</event>
<event>
 7    1  0.6507405E-006  0.6590618E+02  0.7818608E-02  0.1451336E+00
          2   -1    0    0  502    0  0.00000000000E+00  0.00000000000E+00  0.11399969410E+04  0.11399969410E+04  0.00000000000E+00 0. -1.
          1   -1    0    0  501    0 -0.00000000000E+00 -0.00000000000E+00 -0.18140938088E+03  0.18140938088E+03  0.00000000000E+00 0. -1.
         25    2    1    2    0    0  0.31697038759E+02  0.49817300719E+02  0.93326672447E+03  0.94345028652E+03  0.12500079363E+03 0.  0.
          2    1    1    2  501    0  0.35874547584E+02 -0.54771275042E+01 -0.16618139507E+03  0.17009773119E+03  0.00000000000E+00 0. -1.
          1    1    1    2  502    0 -0.67571586344E+02 -0.44340173215E+02  0.19150223073E+03  0.20785830418E+03  0.00000000000E+00 0. -1.
         22    1    3    3    0    0  0.22390492075E+02  0.47967642412E+02  0.13328670786E+03  0.14341399983E+03  0.00000000000E+00 0.  1.
         22    1    3    3    0    0  0.93065466840E+01  0.18496583072E+01  0.79998001661E+03  0.80003628669E+03  0.00000000000E+00 0.  1.
</event>
<event>
 7    1  0.6507405E-006  0.4820610E+02  0.7818608E-02  0.1456832E+00
          2   -1    0    0  502    0  0.00000000000E+00  0.00000000000E+00  0.64853058296E+03  0.64853058296E+03  0.00000000000E+00 0. -1.
          1   -1    0    0  501    0 -0.00000000000E+00 -0.00000000000E+00 -0.46153802401E+03  0.46153802401E+03  0.00000000000E+00 0. -1.
         25    2    1    2    0    0  0.56419677720E+02 -0.20411892767E+01  0.53057075770E+02  0.14706118337E+03  0.12499836749E+03 0.  0.
          2    1    1    2  501    0 -0.30252897365E+02 -0.37789849525E+02 -0.41208128254E+03  0.41491480324E+03  0.00000000000E+00 0. -1.
          1    1    1    2  502    0 -0.26166780355E+02  0.39831038802E+02  0.54601676572E+03  0.54809262037E+03  0.00000000000E+00 0. -1.
         22    1    3    3    0    0 -0.25423960315E+02  0.37142096780E+02  0.78713287959E+01  0.45693226285E+02  0.00000000000E+00 0. -1.
         22    1    3    3    0    0  0.81843638035E+02 -0.39183286056E+02  0.45185746974E+02  0.10136795708E+03  0.00000000000E+00 0. -1.
</event>
<event>
 7    1  0.6507405E-006  0.1192513E+03  0.7818608E-02  0.1249856E+00
          2   -1    0    0  502    0  0.00000000000E+00  0.00000000000E+00  0.83756800286E+03  0.83756800286E+03  0.00000000000E+00 0. -1.
          1   -1    0    0  501    0 -0.00000000000E+00 -0.00000000000E+00 -0.85175393625E+03  0.85175393625E+03  0.00000000000E+00 0. -1.
         25    2    1    2    0    0  0.98060644918E+02  0.17183634896E+03  0.12957782345E+02  0.23438531682E+03  0.12499980684E+03 0.  0.
          2    1    1    2  501    0 -0.10127103675E+03 -0.59056598829E+02 -0.73188826246E+03  0.74121787180E+03  0.00000000000E+00 0. -1.
          1    1    1    2  502    0  0.32103918299E+01 -0.11277975013E+03  0.70474454673E+03  0.71371875049E+03  0.00000000000E+00 0. -1.
         22    1    3    3    0    0 -0.23111546954E+02  0.74529471971E+02 -0.35012863813E+01  0.78109185127E+02  0.00000000000E+00 0. -1.
         22    1    3    3    0    0  0.12117219187E+03  0.97306876990E+02  0.16459068727E+02  0.15627613169E+03  0.00000000000E+00 0. -1.
</event>
<event>
 7    1  0.6507405E-006  0.5729931E+02  0.7818608E-02  0.1477364E+00
          2   -1    0    0  502    0  0.00000000000E+00  0.00000000000E+00  0.34434146437E+03  0.34434146437E+03  0.00000000000E+00 0. -1.
          1   -1    0    0  501    0 -0.00000000000E+00 -0.00000000000E+00 -0.11923870571E+04  0.11923870571E+04  0.00000000000E+00 0. -1.
         25    2    1    2    0    0  0.57306909185E+02 -0.45156582724E+02  0.32196959345E+02  0.14827170738E+03  0.12499862485E+03 0.  0.
          2    1    1    2  501    0 -0.33938109008E+02 -0.66836566841E+01 -0.11309006888E+04  0.11314295534E+04  0.00000000000E+00 0. -1.
          1    1    1    2  502    0 -0.23368800177E+02  0.51840239408E+02  0.25065813668E+03  0.25702726067E+03  0.00000000000E+00 0. -1.
         22    1    3    3    0    0  0.40822539070E+02  0.39753052979E+02  0.32950514076E+01  0.57075759137E+02  0.00000000000E+00 0. -1.
         22    1    3    3    0    0  0.16484370115E+02 -0.84909635703E+02  0.28901907938E+02  0.91195948242E+02  0.00000000000E+00 0. -1.
</event>
<event>
 7    1  0.6507405E-006  0.9438772E+02  0.7818608E-02  0.1311320E+00
          2   -1    0    0  502    0  0.00000000000E+00  0.00000000000E+00  0.49238167093E+03  0.49238167093E+03  0.00000000000E+00 0. -1.
          1   -1    0    0  501    0 -0.00000000000E+00 -0.00000000000E+00 -0.25171251138E+03  0.25171251138E+03  0.00000000000E+00 0. -1.
         25    2    1    2    0    0 -0.14004599464E+03  0.22782935202E+02  0.25383004171E+03  0.31652178077E+03  0.12499761947E+03 0.  0.
          2    1    1    2  501    0  0.86303443540E+02  0.35720403488E+02 -0.20208443876E+03  0.22262603617E+03  0.00000000000E+00 0. -1.
          1    1    1    2  502    0  0.53742551104E+02 -0.58503338690E+02  0.18892355660E+03  0.20494636537E+03  0.00000000000E+00 0. -1.
         22    1    3    3    0    0 -0.54579530203E+02  0.16284499005E+02  0.96936321283E+01  0.57776089595E+02  0.00000000000E+00 0. -1.
         22    1    3    3    0    0 -0.85466464441E+02  0.64984361973E+01  0.24413640959E+03  0.25874569118E+03  0.00000000000E+00 0. -1.
</event>
<event>
 7    1  0.6507405E-006  0.1871242E+03  0.7818608E-02  0.1238286E+00
          2   -1    0    0  502    0  0.00000000000E+00  0.00000000000E+00  0.98800187789E+03  0.98800187789E+03  0.00000000000E+00 0. -1.
          1   -1    0    0  501    0 -0.00000000000E+00 -0.00000000000E+00 -0.11707205036E+04  0.11707205036E+04  0.00000000000E+00 0. -1.
         25    2    1    2    0    0  0.24117706850E+02  0.17061416055E+03 -0.20850376681E+03  0.29797614325E+03  0.12500042244E+03 0.  0.
          2    1    1    2  501    0 -0.80290553678E+02  0.90855327639E+01 -0.90627022750E+03  0.90986528957E+03  0.00000000000E+00 0. -1.
          1    1    1    2  502    0  0.56172846828E+02 -0.17969969332E+03  0.93205536857E+03  0.95088094869E+03  0.00000000000E+00 0. -1.
         22    1    3    3    0    0  0.56569705298E+02  0.82534975768E+02 -0.16843491464E+03  0.19591445646E+03  0.00000000000E+00 0.  1.
         22    1    3    3    0    0 -0.32451998448E+02  0.88079184786E+02 -0.40068852169E+02  0.10206168679E+03  0.00000000000E+00 0.  1.
</event>
<event>
 7    1  0.1024140E-005  0.9015486E+02  0.7818608E-02  0.1305582E+00
          2   -1    0    0  502    0  0.00000000000E+00  0.00000000000E+00  0.12028499237E+04  0.12028499237E+04  0.00000000000E+00 0. -1.
          1   -1    0    0  501    0 -0.00000000000E+00 -0.00000000000E+00 -0.96284420835E+03  0.96284420835E+03  0.00000000000E+00 0. -1.
         25    2    1    2    0    0 -0.98176425754E+02  0.11294601171E+02 -0.40868578630E+03  0.43865088859E+03  0.12499740616E+03 0.  0.
          2    1    1    2  501    0  0.43874773245E+02 -0.83261465218E+02 -0.53333924553E+03  0.54157937381E+03  0.00000000000E+00 0. -1.
          1    1    1    2  502    0  0.54301652509E+02  0.71966864047E+02  0.11820307472E+04  0.11854638696E+04  0.00000000000E+00 0. -1.
         22    1    3    3    0    0 -0.12089831664E+03  0.27098130473E+02 -0.37564176737E+03  0.39554702506E+03  0.00000000000E+00 0. -1.
         22    1    3    3    0    0  0.22721890888E+02 -0.15803529302E+02 -0.33044018930E+02  0.43103863527E+02  0.00000000000E+00 0. -1.
</event>
<event>
 7    1  0.6507405E-006  0.3484051E+02  0.7818608E-02  0.1588671E+00
          2   -1    0    0  502    0  0.00000000000E+00  0.00000000000E+00  0.34903295035E+03  0.34903295035E+03  0.00000000000E+00 0. -1.
          1   -1    0    0  501    0 -0.00000000000E+00 -0.00000000000E+00 -0.16894879002E+04  0.16894879002E+04  0.00000000000E+00 0. -1.
         25    2    1    2    0    0  0.11464318054E+02  0.70254847911E+01  0.14539942291E+03  0.19221474830E+03  0.12499891702E+03 0.  0.
          2    1    1    2  501    0 -0.33720252440E+02  0.88730646787E+01 -0.16648589269E+04  0.16652240189E+04  0.00000000000E+00 0. -1.
          1    1    1    2  502    0  0.22255934386E+02 -0.15898549470E+02  0.17900455416E+03  0.18108208332E+03  0.00000000000E+00 0. -1.
         22    1    3    3    0    0 -0.13843754982E+02  0.59089207052E+02  0.10615042455E+03  0.12227467675E+03  0.00000000000E+00 0.  1.
         22    1    3    3    0    0  0.25308073035E+02 -0.52063722261E+02  0.39248998362E+02  0.69940071553E+02  0.00000000000E+00 0.  1.
</event>
<event>
 7    1  0.6507405E-006  0.5786505E+02  0.7818608E-02  0.1512054E+00
          2   -1    0    0  502    0  0.00000000000E+00  0.00000000000E+00  0.34527632616E+03  0.34527632616E+03  0.00000000000E+00 0. -1.
          1   -1    0    0  501    0 -0.00000000000E+00 -0.00000000000E+00 -0.24586239060E+03  0.24586239060E+03  0.00000000000E+00 0. -1.
         25    2    1    2    0    0  0.76341073694E+01 -0.82620596087E+02  0.54066494365E+02  0.15948058001E+03  0.12500570825E+03 0.  0.
          2    1    1    2  501    0  0.34639095043E+00  0.56889881178E+02 -0.18817499764E+03  0.19658689759E+03  0.00000000000E+00 0. -1.
          1    1    1    2  502    0 -0.79804983198E+01  0.25730714909E+02  0.23352243883E+03  0.23507123916E+03  0.00000000000E+00 0. -1.
         22    1    3    3    0    0 -0.44344172874E+02  0.64635124875E+01  0.44670299569E+01  0.45034842269E+02  0.00000000000E+00 0. -1.
         22    1    3    3    0    0  0.51978280243E+02 -0.89084108575E+02  0.49599464408E+02  0.11444573774E+03  0.00000000000E+00 0. -1.
</event>
<event>
 7    1  0.6507405E-006  0.5220916E+02  0.7818608E-02  0.1564836E+00
          2   -1    0    0  502    0  0.00000000000E+00  0.00000000000E+00  0.27620702225E+04  0.27620702225E+04  0.00000000000E+00 0. -1.
          1   -1    0    0  501    0 -0.00000000000E+00 -0.00000000000E+00 -0.87444227614E+01  0.87444227614E+01  0.00000000000E+00 0. -1.
         25    2    1    2    0    0  0.61040362456E+02  0.30463784193E+02  0.14780625096E+04  0.14849065642E+04  0.12499901567E+03 0.  0.
          2    1    1    2  501    0 -0.49333981010E+02 -0.12837779675E+02  0.11909762547E+03  0.12954881189E+03  0.00000000000E+00 0. -1.
          1    1    1    2  502    0 -0.11706381445E+02 -0.17626004518E+02  0.11561656647E+04  0.11563592693E+04  0.00000000000E+00 0. -1.
         22    1    3    3    0    0  0.78259304689E+02 -0.23002930756E+02  0.10519355705E+04  0.10550934073E+04  0.00000000000E+00 0. -1.
         22    1    3    3    0    0 -0.17218942234E+02  0.53466714949E+02  0.42612693907E+03  0.42981315683E+03  0.00000000000E+00 0. -1.
</event>
<event>
 7    1  0.6507405E-006  0.3231455E+02  0.7818608E-02  0.1599424E+00
          2   -1    0    0  502    0  0.00000000000E+00  0.00000000000E+00  0.14417382388E+04  0.14417382388E+04  0.00000000000E+00 0. -1.
          1   -1    0    0  501    0 -0.00000000000E+00 -0.00000000000E+00 -0.18939254726E+02  0.18939254726E+02  0.00000000000E+00 0. -1.
         25    2    1    2    0    0  0.21788141432E+00 -0.28076732262E+02  0.31558100735E+03  0.34059509937E+03  0.12500119658E+03 0.  0.
          2    1    1    2  501    0 -0.26294127652E+02  0.84811131233E+01  0.24658952255E+02  0.37032071980E+02  0.00000000000E+00 0. -1.
          1    1    1    2  502    0  0.26076246238E+02  0.19595619139E+02  0.10825590245E+04  0.10830503222E+04  0.00000000000E+00 0. -1.
         22    1    3    3    0    0  0.46764235635E+02 -0.39940653729E+02  0.25981206015E+03  0.26699149079E+03  0.00000000000E+00 0.  1.
         22    1    3    3    0    0 -0.46546354221E+02  0.11863921466E+02  0.55768947192E+02  0.73603608571E+02  0.00000000000E+00 0.  1.
</event>
<event>
 7    1  0.6507405E-006  0.9445271E+02  0.7818608E-02  0.1419702E+00
          2   -1    0    0  502    0  0.00000000000E+00  0.00000000000E+00  0.19962815807E+04  0.19962815807E+04  0.00000000000E+00 0. -1.
          1   -1    0    0  501    0 -0.00000000000E+00 -0.00000000000E+00 -0.66161881191E+02  0.66161881191E+02  0.00000000000E+00 0. -1.
         25    2    1    2    0    0  0.75910050671E+02 -0.53754528454E+02  0.62879107886E+02  0.16801954431E+03  0.12499959976E+03 0.  0.
          2    1    1    2  501    0 -0.21641652569E+02 -0.23740690773E+02  0.84365331385E+01  0.33213801585E+02  0.00000000000E+00 0. -1.
          1    1    1    2  502    0 -0.54268398102E+02  0.77495219227E+02  0.18588040584E+04  0.18612101159E+04  0.00000000000E+00 0. -1.
         22    1    3    3    0    0  0.40035586572E+02 -0.68057729083E+02  0.90824597873E+02  0.12034870277E+03  0.00000000000E+00 0. -1.
         22    1    3    3    0    0  0.35874464099E+02  0.14303200629E+02 -0.27945489988E+02  0.47670841541E+02  0.00000000000E+00 0. -1.
</event>
<event>
 7    1  0.6507405E-006  0.6224816E+02  0.7818608E-02  0.1390242E+00
          2   -1    0    0  502    0  0.00000000000E+00  0.00000000000E+00  0.51641056146E+03  0.51641056146E+03  0.00000000000E+00 0. -1.
          1   -1    0    0  501    0 -0.00000000000E+00 -0.00000000000E+00 -0.55502279969E+03  0.55502279969E+03  0.00000000000E+00 0. -1.
         25    2    1    2    0    0  0.40731299103E+01 -0.57662479531E+02 -0.18652514701E+03  0.23185906618E+03  0.12500177665E+03 0.  0.
          2    1    1    2  501    0  0.54490000202E+02  0.36562874595E+02 -0.34072553511E+03  0.34698687899E+03  0.00000000000E+00 0. -1.
          1    1    1    2  502    0 -0.58563130113E+02  0.21099604936E+02  0.48863844389E+03  0.49258741598E+03  0.00000000000E+00 0. -1.
         22    1    3    3    0    0 -0.16423794155E+02  0.22733235135E+02 -0.12620018016E+03  0.12927887092E+03  0.00000000000E+00 0. -1.
         22    1    3    3    0    0  0.20496924066E+02 -0.80395714666E+02 -0.60324966854E+02  0.10258019526E+03  0.00000000000E+00 0. -1.
</event>
<event>
 7    1  0.6507405E-006  0.1286449E+03  0.7818608E-02  0.1238359E+00
          2   -1    0    0  502    0  0.00000000000E+00  0.00000000000E+00  0.82757131102E+03  0.82757131102E+03  0.00000000000E+00 0. -1.
          1   -1    0    0  501    0 -0.00000000000E+00 -0.00000000000E+00 -0.29465911476E+03  0.29465911476E+03  0.00000000000E+00 0. -1.
         25    2    1    2    0    0 -0.94068968946E+02  0.12985719256E+02  0.13771985141E+02  0.15758439654E+03  0.12500229852E+03 0.  0.
          2    1    1    2  501    0  0.72527246664E+02  0.11384274889E+03 -0.19602386964E+03  0.23800363538E+03  0.00000000000E+00 0. -1.
          1    1    1    2  502    0  0.21541722282E+02 -0.12682846815E+03  0.71516408077E+03  0.72664239386E+03  0.00000000000E+00 0. -1.
         22    1    3    3    0    0 -0.21126109263E+02  0.44878415536E+02  0.49722375247E+02  0.70233177871E+02  0.00000000000E+00 0. -1.
         22    1    3    3    0    0 -0.72942859683E+02 -0.31892696280E+02 -0.35950390106E+02  0.87351218672E+02  0.00000000000E+00 0. -1.
</event>
<event>
 7    1  0.6507405E-006  0.3273021E+02  0.7818608E-02  0.1645478E+00
          2   -1    0    0  502    0  0.00000000000E+00  0.00000000000E+00  0.18356739190E+02  0.18356739190E+02  0.00000000000E+00 0. -1.
          1   -1    0    0  501    0 -0.00000000000E+00 -0.00000000000E+00 -0.15720549195E+04  0.15720549195E+04  0.00000000000E+00 0. -1.
         25    2    1    2    0    0 -0.14601777460E+02 -0.11059504355E+01 -0.80840516066E+03  0.81814368010E+03  0.12500296983E+03 0.  0.
          2    1    1    2  501    0  0.33236497832E+02 -0.82188467875E+01 -0.75010176962E+03  0.75088273320E+03  0.00000000000E+00 0. -1.
          1    1    1    2  502    0 -0.18634720371E+02  0.93247972231E+01  0.48087499267E+01  0.21385245438E+02  0.00000000000E+00 0. -1.
         22    1    3    3    0    0 -0.68817862877E+01  0.22373780276E+02 -0.78056158666E+03  0.78091250189E+03  0.00000000000E+00 0.  1.
         22    1    3    3    0    0 -0.77199911726E+01 -0.23479730712E+02 -0.27843573997E+02  0.37231178210E+02  0.00000000000E+00 0.  1.
</event>
<event>
 7    1  0.6507405E-006  0.3548991E+02  0.7818608E-02  0.1585614E+00
          2   -1    0    0  502    0  0.00000000000E+00  0.00000000000E+00  0.65452533761E+03  0.65452533761E+03  0.00000000000E+00 0. -1.
          1   -1    0    0  501    0 -0.00000000000E+00 -0.00000000000E+00 -0.12094642635E+04  0.12094642635E+04  0.00000000000E+00 0. -1.
         25    2    1    2    0    0 -0.18614324910E+02  0.51747879920E+00 -0.62478804882E+02  0.14097934174E+03  0.12499925145E+03 0.  0.
          2    1    1    2  501    0  0.24098866649E+02  0.26284759435E+02 -0.11071438696E+04  0.11077180110E+04  0.00000000000E+00 0. -1.
          1    1    1    2  502    0 -0.54845417386E+01 -0.26802238234E+02  0.61468374856E+03  0.61529224838E+03  0.00000000000E+00 0. -1.
         22    1    3    3    0    0 -0.24897237151E+01 -0.59842171478E+02 -0.13012548398E+02  0.61291195348E+02  0.00000000000E+00 0.  1.
         22    1    3    3    0    0 -0.16124601195E+02  0.60359650277E+02 -0.49466256483E+02  0.79688146394E+02  0.00000000000E+00 0.  1.
</event>
<event>
 7    1  0.6507405E-006  0.8652734E+02  0.7818608E-02  0.1373537E+00
          2   -1    0    0  502    0  0.00000000000E+00  0.00000000000E+00  0.82506504825E+03  0.82506504825E+03  0.00000000000E+00 0. -1.
          1   -1    0    0  501    0 -0.00000000000E+00 -0.00000000000E+00 -0.43203443327E+03  0.43203443327E+03  0.00000000000E+00 0. -1.
         25    2    1    2    0    0  0.77274869061E+02 -0.58275268300E+00  0.28781754779E+03  0.32316607702E+03  0.12500251010E+03 0.  0.
          2    1    1    2  501    0 -0.18787991894E+01 -0.50603265823E+02 -0.40879004722E+03  0.41191446091E+03  0.00000000000E+00 0. -1.
          1    1    1    2  502    0 -0.75396069871E+02  0.51186018506E+02  0.51400311441E+03  0.52201894359E+03  0.00000000000E+00 0. -1.
         22    1    3    3    0    0  0.61030450842E+02 -0.21163245746E+02  0.28976227729E+03  0.29687501788E+03  0.00000000000E+00 0. -1.
         22    1    3    3    0    0  0.16244418219E+02  0.20580493063E+02 -0.19447294965E+01  0.26291059142E+02  0.00000000000E+00 0. -1.
</event>
<event>
 7    1  0.6507405E-006  0.5841956E+02  0.7818608E-02  0.1452002E+00
          2   -1    0    0  502    0  0.00000000000E+00  0.00000000000E+00  0.17180376588E+04  0.17180376588E+04  0.00000000000E+00 0. -1.
          1   -1    0    0  501    0 -0.00000000000E+00 -0.00000000000E+00 -0.19716678640E+03  0.19716678640E+03  0.00000000000E+00 0. -1.
         25    2    1    2    0    0  0.33257165906E+02  0.72041496976E+02  0.41517632276E+03  0.44078744832E+03  0.12500471688E+03 0.  0.
          2    1    1    2  501    0 -0.47466308625E+02 -0.33858585521E+02 -0.17942054885E+03  0.18865626843E+03  0.00000000000E+00 0. -1.
          1    1    1    2  502    0  0.14209142719E+02 -0.38182911454E+02  0.12851150985E+04  0.12857607284E+04  0.00000000000E+00 0. -1.
         22    1    3    3    0    0  0.36839528293E+02  0.72887591616E+02  0.42370203526E+03  0.43150106204E+03  0.00000000000E+00 0.  1.
         22    1    3    3    0    0 -0.35823623873E+01 -0.84609464069E+00 -0.85257125026E+01  0.92863862773E+01  0.00000000000E+00 0.  1.
</event>
<event>
 7    1  0.6507405E-006  0.5481232E+02  0.7818608E-02  0.1421220E+00
          2   -1    0    0  502    0  0.00000000000E+00  0.00000000000E+00  0.12447091161E+03  0.12447091161E+03  0.00000000000E+00 0. -1.
          1   -1    0    0  501    0 -0.00000000000E+00 -0.00000000000E+00 -0.25631739036E+03  0.25631739036E+03  0.00000000000E+00 0. -1.
         25    2    1    2    0    0  0.37582233987E+02 -0.54967214159E+02  0.13753580622E+02  0.14230240093E+03  0.12500797329E+03 0.  0.
          2    1    1    2  501    0  0.17183374532E+02  0.52704848850E+02 -0.16976237771E+03  0.17858424997E+03  0.00000000000E+00 0. -1.
          1    1    1    2  502    0 -0.54765608519E+02  0.22623653095E+01  0.24162318341E+02  0.59901651070E+02  0.00000000000E+00 0. -1.
         22    1    3    3    0    0 -0.56899439679E+01 -0.38468065569E+02  0.63421301592E+02  0.74393743196E+02  0.00000000000E+00 0. -1.
         22    1    3    3    0    0  0.43272177955E+02 -0.16499148590E+02 -0.49667720970E+02  0.67908657736E+02  0.00000000000E+00 0. -1.
</event>
<event>
 7    1  0.6507405E-006  0.2284275E+02  0.7818608E-02  0.1702877E+00
          2   -1    0    0  502    0  0.00000000000E+00  0.00000000000E+00  0.30472112279E+04  0.30472112279E+04  0.00000000000E+00 0. -1.
          1   -1    0    0  501    0 -0.00000000000E+00 -0.00000000000E+00 -0.55900847717E+01  0.55900847717E+01  0.00000000000E+00 0. -1.
         25    2    1    2    0    0 -0.42982510792E+02  0.87442432074E+01  0.22625334167E+04  0.22664082198E+04  0.12499919664E+03 0.  0.
          2    1    1    2  501    0  0.22471164689E+02 -0.13675713869E+01  0.32774876927E+02  0.39761992550E+02  0.00000000000E+00 0. -1.
          1    1    1    2  502    0  0.20511346103E+02 -0.73766718205E+01  0.74631284954E+03  0.74663110034E+03  0.00000000000E+00 0. -1.
         22    1    3    3    0    0 -0.21507884675E+02 -0.57869267541E+02  0.11810032550E+04  0.11826157997E+04  0.00000000000E+00 0. -1.
         22    1    3    3    0    0 -0.21474626117E+02  0.66613510749E+02  0.10815301617E+04  0.10837924201E+04  0.00000000000E+00 0. -1.
</event>
<event>
 7    1  0.6507405E-006  0.5315497E+02  0.7818608E-02  0.1468171E+00
          2   -1    0    0  502    0  0.00000000000E+00  0.00000000000E+00  0.13336558488E+04  0.13336558488E+04  0.00000000000E+00 0. -1.
          1   -1    0    0  501    0 -0.00000000000E+00 -0.00000000000E+00 -0.54257777838E+03  0.54257777838E+03  0.00000000000E+00 0. -1.
         25    2    1    2    0    0 -0.58346172490E+02 -0.31092233129E+02 -0.39496805707E+03  0.41952335675E+03  0.12501631075E+03 0.  0.
          2    1    1    2  501    0  0.21744354940E+02  0.46760762752E+02 -0.13010737964E+03  0.13995469318E+03  0.00000000000E+00 0. -1.
          1    1    1    2  502    0  0.36601817549E+02 -0.15668529623E+02  0.13161535071E+04  0.13167555772E+04  0.00000000000E+00 0. -1.
         22    1    3    3    0    0 -0.85669751101E+02  0.59491007486E+01 -0.17679989831E+03  0.19655254284E+03  0.00000000000E+00 0. -1.
         22    1    3    3    0    0  0.27323578611E+02 -0.37041333878E+02 -0.21816815876E+03  0.22297081392E+03  0.00000000000E+00 0. -1.
</event>
<event>
 7    1  0.6507405E-006  0.4977023E+02  0.7818608E-02  0.1525546E+00
          2   -1    0    0  502    0  0.00000000000E+00  0.00000000000E+00  0.54412783201E+03  0.54412783201E+03  0.00000000000E+00 0. -1.
          1   -1    0    0  501    0 -0.00000000000E+00 -0.00000000000E+00 -0.10872555306E+03  0.10872555306E+03  0.00000000000E+00 0. -1.
         25    2    1    2    0    0  0.47075665364E+01  0.65018511163E+02 -0.21657744930E+01  0.14099446434E+03  0.12500072168E+03 0.  0.
          2    1    1    2  501    0 -0.21845704347E+02 -0.18482238664E+02 -0.30121917996E+02  0.41547056312E+02  0.00000000000E+00 0. -1.
          1    1    1    2  502    0  0.17138137811E+02 -0.46536272499E+02  0.46768997144E+03  0.47031186442E+03  0.00000000000E+00 0. -1.
         22    1    3    3    0    0 -0.59646471553E+02  0.22101118232E+02 -0.20443848196E+01  0.63642285511E+02  0.00000000000E+00 0.  1.
         22    1    3    3    0    0  0.64354038090E+02  0.42917392932E+02 -0.12138967336E+00  0.77352178831E+02  0.00000000000E+00 0.  1.
</event>
<event>
 7    1  0.6507405E-006  0.4700952E+02  0.7818608E-02  0.1488402E+00
          2   -1    0    0  502    0  0.00000000000E+00  0.00000000000E+00  0.17382372709E+03  0.17382372709E+03  0.00000000000E+00 0. -1.
          1   -1    0    0  501    0 -0.00000000000E+00 -0.00000000000E+00 -0.19034248233E+04  0.19034248233E+04  0.00000000000E+00 0. -1.
         25    2    1    2    0    0 -0.69112671167E+02 -0.99414612299E+01 -0.87324950718E+03  0.88490773442E+03  0.12498641003E+03 0.  0.
          2    1    1    2  501    0  0.35230548342E+02  0.29277322053E+02 -0.10215612379E+04  0.10225877546E+04  0.00000000000E+00 0. -1.
          1    1    1    2  502    0  0.33882122824E+02 -0.19335860823E+02  0.16520964886E+03  0.16975306135E+03  0.00000000000E+00 0. -1.
         22    1    3    3    0    0 -0.83777208333E+02 -0.50478235057E+02 -0.67304324946E+03  0.68011314389E+03  0.00000000000E+00 0.  1.
         22    1    3    3    0    0  0.14664537166E+02  0.40536773827E+02 -0.20020625772E+03  0.20479459054E+03  0.00000000000E+00 0.  1.
</event>
<event>
 7    1  0.6507405E-006  0.7301281E+02  0.7818608E-02  0.1401756E+00
          2   -1    0    0  502    0  0.00000000000E+00  0.00000000000E+00  0.50759525586E+03  0.50759525586E+03  0.00000000000E+00 0. -1.
          1   -1    0    0  501    0 -0.00000000000E+00 -0.00000000000E+00 -0.17166837230E+04  0.17166837230E+04  0.00000000000E+00 0. -1.
         25    2    1    2    0    0 -0.10967024282E+03  0.74820216770E+01  0.41180384818E+02  0.17148084937E+03  0.12500525908E+03 0.  0.
          2    1    1    2  501    0  0.66863138056E+02 -0.28746121954E+02 -0.16493047307E+04  0.16509097835E+04  0.00000000000E+00 0. -1.
          1    1    1    2  502    0  0.42807104761E+02  0.21264100277E+02  0.39903587867E+03  0.40188834599E+03  0.00000000000E+00 0. -1.
         22    1    3    3    0    0 -0.51556756954E+02  0.27626389094E+02  0.79735928854E+02  0.98889508606E+02  0.00000000000E+00 0.  1.
         22    1    3    3    0    0 -0.58113485863E+02 -0.20144367417E+02 -0.38555544036E+02  0.72591340762E+02  0.00000000000E+00 0.  1.
</event>
<event>
 7    1  0.9374947E-006  0.8960828E+02  0.7818608E-02  0.1309805E+00
          2   -1    0    0  502    0  0.00000000000E+00  0.00000000000E+00  0.18069022967E+04  0.18069022967E+04  0.00000000000E+00 0. -1.
          1   -1    0    0  501    0 -0.00000000000E+00 -0.00000000000E+00 -0.10045833479E+04  0.10045833479E+04  0.00000000000E+00 0. -1.
         25    2    1    2    0    0 -0.11361204040E+03  0.21378768647E+02 -0.32187023438E+03  0.36412801191E+03  0.12499605515E+03 0.  0.
          2    1    1    2  501    0  0.41168289067E+02 -0.74176363418E+02 -0.65773331464E+03  0.66318178059E+03  0.00000000000E+00 0. -1.
          1    1    1    2  502    0  0.72443751335E+02  0.52797594771E+02  0.17819224978E+04  0.17841758521E+04  0.00000000000E+00 0. -1.
         22    1    3    3    0    0 -0.39173601050E+02 -0.35244158374E+02 -0.37239724477E+02  0.64525334542E+02  0.00000000000E+00 0. -1.
         22    1    3    3    0    0 -0.74438439352E+02  0.56622927020E+02 -0.28463050990E+03  0.29960267737E+03  0.00000000000E+00 0. -1.
</event>
<event>
 7    1  0.6507405E-006  0.1202374E+03  0.7818608E-02  0.1293104E+00
          2   -1    0    0  502    0  0.00000000000E+00  0.00000000000E+00  0.19916110425E+04  0.19916110425E+04  0.00000000000E+00 0. -1.
          1   -1    0    0  501    0 -0.00000000000E+00 -0.00000000000E+00 -0.33751772275E+03  0.33751772275E+03  0.00000000000E+00 0. -1.
         25    2    1    2    0    0 -0.56009705255E+02 -0.41097391697E+02  0.58768240210E+03  0.60483185266E+03  0.12499952628E+03 0.  0.
          2    1    1    2  501    0 -0.68908659172E+02 -0.26199630909E+02 -0.32114847329E+03  0.32950138978E+03  0.00000000000E+00 0. -1.
          1    1    1    2  502    0  0.12491836443E+03  0.67297022606E+02  0.13875593910E+04  0.13947955228E+04  0.00000000000E+00 0. -1.
         22    1    3    3    0    0 -0.68230432090E+01 -0.79162325067E+02  0.37020857295E+03  0.37863916215E+03  0.00000000000E+00 0. -1.
         22    1    3    3    0    0 -0.49186662046E+02  0.38064933370E+02  0.21747382915E+03  0.22619269051E+03  0.00000000000E+00 0. -1.
</event>
<event>
 7    1  0.6507405E-006  0.1049516E+03  0.7818608E-02  0.1270249E+00
          2   -1    0    0  502    0  0.00000000000E+00  0.00000000000E+00  0.96408589202E+02  0.96408589202E+02  0.00000000000E+00 0. -1.
          1   -1    0    0  501    0 -0.00000000000E+00 -0.00000000000E+00 -0.20815837962E+04  0.20815837962E+04  0.00000000000E+00 0. -1.
         25    2    1    2    0    0 -0.88028126260E+01  0.16161900396E+02 -0.44657249583E+03  0.46410339394E+03  0.12500507870E+03 0.  0.
          2    1    1    2  501    0  0.68881213518E+02  0.79184647538E+02 -0.15875550046E+04  0.15910203401E+04  0.00000000000E+00 0. -1.
          1    1    1    2  502    0 -0.60078400892E+02 -0.95346547934E+02  0.48952293427E+02  0.12286865137E+03  0.00000000000E+00 0. -1.
         22    1    3    3    0    0 -0.61624229243E+02 -0.14388440069E+02 -0.26885245379E+03  0.27619959223E+03  0.00000000000E+00 0. -1.
         22    1    3    3    0    0  0.52821416617E+02  0.30550340465E+02 -0.17772004204E+03  0.18790380171E+03  0.00000000000E+00 0. -1.
</event>
<event>
 7    1  0.6507405E-006  0.2787030E+03  0.7818608E-02  0.1312824E+00
          2   -1    0    0  502    0  0.00000000000E+00  0.00000000000E+00  0.22293070976E+04  0.22293070976E+04  0.00000000000E+00 0. -1.
          1   -1    0    0  501    0 -0.00000000000E+00 -0.00000000000E+00 -0.88597007241E+03  0.88597007241E+03  0.00000000000E+00 0. -1.
         25    2    1    2    0    0  0.25134867563E+03  0.84531945352E+02  0.94951752314E+03  0.99374553293E+03  0.12499940372E+03 0.  0.
          2    1    1    2  501    0  0.26211047292E+02 -0.41695207183E+01 -0.84704788834E+03  0.84746358567E+03  0.00000000000E+00 0. -1.
          1    1    1    2  502    0 -0.27755972292E+03 -0.80362424634E+02  0.12408673904E+04  0.12740680514E+04  0.00000000000E+00 0. -1.
         22    1    3    3    0    0  0.52619445357E+02  0.40193758798E+02  0.44157385823E+03  0.44651071270E+03  0.00000000000E+00 0. -1.
         22    1    3    3    0    0  0.19872923028E+03  0.44338186554E+02  0.50794366491E+03  0.54723482023E+03  0.00000000000E+00 0. -1.
</event>
<event>
 7    1  0.6507405E-006  0.1418217E+03  0.7818608E-02  0.1227690E+00
          2   -1    0    0  502    0  0.00000000000E+00  0.00000000000E+00  0.13033477373E+04  0.13033477373E+04  0.00000000000E+00 0. -1.
          1   -1    0    0  501    0 -0.00000000000E+00 -0.00000000000E+00 -0.16905584009E+04  0.16905584009E+04  0.00000000000E+00 0. -1.
         25    2    1    2    0    0 -0.18485631326E+03  0.74897997073E+02 -0.57159143091E+02  0.24222626910E+03  0.12499932513E+03 0.  0.
          2    1    1    2  501    0  0.74731384797E+02 -0.11965917883E+03 -0.15347048499E+04  0.15411755498E+04  0.00000000000E+00 0. -1.
          1    1    1    2  502    0  0.11012492847E+03  0.44761181759E+02  0.12046533293E+04  0.12105043193E+04  0.00000000000E+00 0. -1.
         22    1    3    3    0    0 -0.18479820293E+02 -0.19027474983E+02  0.22929288344E+02  0.35061386542E+02  0.00000000000E+00 0.  1.
         22    1    3    3    0    0 -0.16637649297E+03  0.93925472056E+02 -0.80088431435E+02  0.20716488255E+03  0.00000000000E+00 0.  1.
</event>
<event>
 7    1  0.6507405E-006  0.5892438E+02  0.7818608E-02  0.1462638E+00
          2   -1    0    0  502    0  0.00000000000E+00  0.00000000000E+00  0.10503699067E+04  0.10503699067E+04  0.00000000000E+00 0. -1.
          1   -1    0    0  501    0 -0.00000000000E+00 -0.00000000000E+00 -0.90926655387E+03  0.90926655387E+03  0.00000000000E+00 0. -1.
         25    2    1    2    0    0  0.25440119513E+01  0.86598866247E+02  0.57939332970E+03  0.59902311890E+03  0.12500492331E+03 0.  0.
          2    1    1    2  501    0  0.14392873689E+02 -0.34495705440E+02 -0.89743406511E+03  0.89821211845E+03  0.00000000000E+00 0. -1.
          1    1    1    2  502    0 -0.16936885640E+02 -0.52103160807E+02  0.45914408828E+03  0.46240122325E+03  0.00000000000E+00 0. -1.
         22    1    3    3    0    0  0.37124104454E+02  0.35415909190E+02  0.75054379353E+02  0.90915596106E+02  0.00000000000E+00 0. -1.
         22    1    3    3    0    0 -0.34580092502E+02  0.51182957057E+02  0.50433895034E+03  0.50810752280E+03  0.00000000000E+00 0. -1.
</event>
<event>
 7    1  0.6507405E-006  0.1247315E+03  0.7818608E-02  0.1367593E+00
          2   -1    0    0  502    0  0.00000000000E+00  0.00000000000E+00  0.13592184476E+03  0.13592184476E+03  0.00000000000E+00 0. -1.
          1   -1    0    0  501    0 -0.00000000000E+00 -0.00000000000E+00 -0.29136716719E+03  0.29136716719E+03  0.00000000000E+00 0. -1.
         25    2    1    2    0    0  0.12845571676E+03  0.41665487885E+02 -0.93523623103E+02  0.20641821778E+03  0.12499971402E+03 0.  0.
          2    1    1    2  501    0 -0.60486393666E+01 -0.36399131856E+02 -0.88161961632E+02  0.95572037316E+02  0.00000000000E+00 0. -1.
          1    1    1    2  502    0 -0.12240707739E+03 -0.52663560292E+01  0.26240262306E+02  0.12529875685E+03  0.00000000000E+00 0. -1.
         22    1    3    3    0    0  0.14758574099E+03  0.39516433619E+02 -0.10369068660E+03  0.18464792974E+03  0.00000000000E+00 0. -1.
         22    1    3    3    0    0 -0.19130024232E+02  0.21490542656E+01  0.10167063497E+02  0.21770288044E+02  0.00000000000E+00 0. -1.
</event>
<event>
 7    1  0.6507405E-006  0.4966147E+02  0.7818608E-02  0.1482608E+00
          2   -1    0    0  502    0  0.00000000000E+00  0.00000000000E+00  0.89676203502E+03  0.89676203502E+03  0.00000000000E+00 0. -1.
          1   -1    0    0  501    0 -0.00000000000E+00 -0.00000000000E+00 -0.10059819606E+03  0.10059819606E+03  0.00000000000E+00 0. -1.
         25    2    1    2    0    0 -0.37387048885E+02  0.34503731076E+02  0.22267960890E+03  0.26038574918E+03  0.12500492499E+03 0.  0.
          2    1    1    2  501    0  0.35077687534E+02  0.15767767615E+02 -0.76194136713E+02  0.85349945096E+02  0.00000000000E+00 0. -1.
          1    1    1    2  502    0  0.23093613502E+01 -0.50271498691E+02  0.64967836677E+03  0.65162453681E+03  0.00000000000E+00 0. -1.
         22    1    3    3    0    0 -0.54715473828E+02 -0.58130312543E+01  0.20635473645E+03  0.21356463112E+03  0.00000000000E+00 0. -1.
         22    1    3    3    0    0  0.17328424943E+02  0.40316762330E+02  0.16324872452E+02  0.46821118060E+02  0.00000000000E+00 0. -1.
</event>
<event>
 7    1  0.6507405E-006  0.6985230E+02  0.7818608E-02  0.1411026E+00
          2   -1    0    0  502    0  0.00000000000E+00  0.00000000000E+00  0.35648954615E+03  0.35648954615E+03  0.00000000000E+00 0. -1.
          1   -1    0    0  501    0 -0.00000000000E+00 -0.00000000000E+00 -0.10107871156E+04  0.10107871156E+04  0.00000000000E+00 0. -1.
         25    2    1    2    0    0  0.79408712141E+02  0.70422337355E+02 -0.45136665663E+03  0.48023194857E+03  0.12500326615E+03 0.  0.
          2    1    1    2  501    0 -0.58605382319E+02 -0.28884299962E+02 -0.54143737535E+03  0.54536531338E+03  0.00000000000E+00 0. -1.
          1    1    1    2  502    0 -0.20803329822E+02 -0.41538037393E+02  0.33850646252E+03  0.34167939980E+03  0.00000000000E+00 0. -1.
         22    1    3    3    0    0  0.35362267747E+02  0.68221290501E+02 -0.10002579973E+03  0.12613403613E+03  0.00000000000E+00 0.  1.
         22    1    3    3    0    0  0.44046444394E+02  0.22010468540E+01 -0.35134085690E+03  0.35409791245E+03  0.00000000000E+00 0.  1.
</event>
<event>
 7    1  0.6507405E-006  0.5427346E+02  0.7818608E-02  0.1482647E+00
          2   -1    0    0  502    0  0.00000000000E+00  0.00000000000E+00  0.11138745368E+03  0.11138745368E+03  0.00000000000E+00 0. -1.
          1   -1    0    0  501    0 -0.00000000000E+00 -0.00000000000E+00 -0.17390481497E+03  0.17390481497E+03  0.00000000000E+00 0. -1.
         25    2    1    2    0    0  0.26389994039E+02 -0.35601329563E+02  0.27749709429E+02  0.13549358478E+03  0.12499831476E+03 0.  0.
          2    1    1    2  501    0  0.22997066662E+01  0.55962676309E+02 -0.98823646025E+02  0.11359235363E+03  0.00000000000E+00 0. -1.
          1    1    1    2  502    0 -0.28689700705E+02 -0.20361346746E+02  0.85565753055E+01  0.36206330231E+02  0.00000000000E+00 0. -1.
         22    1    3    3    0    0  0.31636923115E+02  0.40146949741E+02 -0.77089100595E+01  0.51692356998E+02  0.00000000000E+00 0.  1.
         22    1    3    3    0    0 -0.52469290766E+01 -0.75748279304E+02  0.35458619488E+02  0.83801227785E+02  0.00000000000E+00 0.  1.
</event>
<event>
 7    1  0.6507405E-006  0.2097655E+03  0.7818608E-02  0.1295309E+00
          2   -1    0    0  502    0  0.00000000000E+00  0.00000000000E+00  0.10880744716E+04  0.10880744716E+04  0.00000000000E+00 0. -1.
          1   -1    0    0  501    0 -0.00000000000E+00 -0.00000000000E+00 -0.19162732914E+03  0.19162732914E+03  0.00000000000E+00 0. -1.
         25    2    1    2    0    0  0.17442831491E+03  0.10553703328E+03  0.62863130261E+02  0.24726527880E+03  0.12500017006E+03 0.  0.
          2    1    1    2  501    0 -0.20240017375E+03 -0.75017163002E+02  0.18877609998E+02  0.21667895430E+03  0.00000000000E+00 0. -1.
          1    1    1    2  502    0  0.27971858835E+02 -0.30519870277E+02  0.81470640221E+03  0.81575756764E+03  0.00000000000E+00 0. -1.
         22    1    3    3    0    0  0.13354868124E+03  0.10777270823E+03 -0.75473442575E+00  0.17161228547E+03  0.00000000000E+00 0.  1.
         22    1    3    3    0    0  0.40879633670E+02 -0.22356749531E+01  0.63617864687E+02  0.75652993324E+02  0.00000000000E+00 0.  1.
</event>
<event>
 7    1  0.6507405E-006  0.1136098E+03  0.7818608E-02  0.1345070E+00
          2   -1    0    0  502    0  0.00000000000E+00  0.00000000000E+00  0.26375613121E+04  0.26375613121E+04  0.00000000000E+00 0. -1.
          1   -1    0    0  501    0 -0.00000000000E+00 -0.00000000000E+00 -0.16269959118E+03  0.16269959118E+03  0.00000000000E+00 0. -1.
         25    2    1    2    0    0 -0.19663888512E+02 -0.11577908282E+03  0.23002815722E+03  0.28692771616E+03  0.12499238639E+03 0.  0.
          2    1    1    2  501    0  0.48679114147E+02  0.56297648805E+01 -0.12836603441E+03  0.13740156184E+03  0.00000000000E+00 0. -1.
          1    1    1    2  502    0 -0.29015225635E+02  0.11014931794E+03  0.23731995981E+04  0.23759316253E+04  0.00000000000E+00 0. -1.
         22    1    3    3    0    0  0.24907452550E+02 -0.10077765035E+03  0.21293046688E+03  0.23688794762E+03  0.00000000000E+00 0.  1.
         22    1    3    3    0    0 -0.44571341062E+02 -0.15001432478E+02  0.17097690340E+02  0.50039768539E+02  0.00000000000E+00 0.  1.
</event>
<event>
 7    1  0.6507405E-006  0.7459957E+02  0.7818608E-02  0.1355823E+00
          2   -1    0    0  502    0  0.00000000000E+00  0.00000000000E+00  0.14688249315E+04  0.14688249315E+04  0.00000000000E+00 0. -1.
          1   -1    0    0  501    0 -0.00000000000E+00 -0.00000000000E+00 -0.31268079994E+03  0.31268079994E+03  0.00000000000E+00 0. -1.
         25    2    1    2    0    0  0.12176043091E+03 -0.45835129722E+02  0.41833027457E+03  0.45557562740E+03  0.12498988763E+03 0.  0.
          2    1    1    2  501    0 -0.74059643490E+02 -0.27556989772E+01 -0.28824219695E+03  0.29761718494E+03  0.00000000000E+00 0. -1.
          1    1    1    2  502    0 -0.47700787425E+02  0.48590828699E+02  0.10260560539E+04  0.10283129191E+04  0.00000000000E+00 0. -1.
         22    1    3    3    0    0  0.66210419698E+02 -0.42087951977E+02  0.37991839523E+03  0.38793453367E+03  0.00000000000E+00 0.  1.
         22    1    3    3    0    0  0.55550011217E+02 -0.37471777442E+01  0.38411879334E+02  0.67641093732E+02  0.00000000000E+00 0.  1.
</event>
<event>
 7    1  0.6507405E-006  0.3904252E+02  0.7818608E-02  0.1559784E+00
          2   -1    0    0  502    0  0.00000000000E+00  0.00000000000E+00  0.31230716430E+02  0.31230716430E+02  0.00000000000E+00 0. -1.
          1   -1    0    0  501    0 -0.00000000000E+00 -0.00000000000E+00 -0.53589233488E+03  0.53589233488E+03  0.00000000000E+00 0. -1.
         25    2    1    2    0    0 -0.16942973616E+02  0.63303096999E+02 -0.29888833344E+03  0.33053568945E+03  0.12500103876E+03 0.  0.
          2    1    1    2  501    0  0.10465678232E+02 -0.34817326011E+02 -0.20411486411E+03  0.20732740861E+03  0.00000000000E+00 0. -1.
          1    1    1    2  502    0  0.64772953844E+01 -0.28485770988E+02 -0.16584209077E+01  0.29259953250E+02  0.00000000000E+00 0. -1.
         22    1    3    3    0    0  0.34680445387E+02 -0.22155554804E+02 -0.80606519913E+02  0.90504215114E+02  0.00000000000E+00 0.  1.
         22    1    3    3    0    0 -0.51623419004E+02  0.85458651803E+02 -0.21828181352E+03  0.24003147434E+03  0.00000000000E+00 0.  1.
</event>
<event>
 7    1  0.6507405E-006  0.4977276E+02  0.7818608E-02  0.1495762E+00
          2   -1    0    0  502    0  0.00000000000E+00  0.00000000000E+00  0.31827167592E+04  0.31827167592E+04  0.00000000000E+00 0. -1.
          1   -1    0    0  501    0 -0.00000000000E+00 -0.00000000000E+00 -0.21732206082E+03  0.21732206082E+03  0.00000000000E+00 0. -1.
         25    2    1    2    0    0  0.68540498073E+02 -0.46141263327E+02 -0.11409187711E+03  0.18833305682E+03  0.12500227122E+03 0.  0.
          2    1    1    2  501    0 -0.22836319883E+02  0.26535487357E+02 -0.61264055155E+02  0.70561420402E+02  0.00000000000E+00 0. -1.
          1    1    1    2  502    0 -0.45704178189E+02  0.19605775970E+02  0.31407506306E+04  0.31411443428E+04  0.00000000000E+00 0. -1.
         22    1    3    3    0    0  0.98427940031E+02 -0.39982400418E+02 -0.50145154906E+02  0.11747845880E+03  0.00000000000E+00 0. -1.
         22    1    3    3    0    0 -0.29887441958E+02 -0.61588629098E+01 -0.63946722208E+02  0.70854598018E+02  0.00000000000E+00 0. -1.
</event>
<event>
 7    1  0.6507405E-006  0.8657650E+02  0.7818608E-02  0.1471204E+00
          2   -1    0    0  502    0  0.00000000000E+00  0.00000000000E+00  0.11573932299E+04  0.11573932299E+04  0.00000000000E+00 0. -1.
          1   -1    0    0  501    0 -0.00000000000E+00 -0.00000000000E+00 -0.36244063892E+02  0.36244063892E+02  0.00000000000E+00 0. -1.
         25    2    1    2    0    0  0.81270209468E+02 -0.57367276072E+02  0.59956919975E+03  0.62048646155E+03  0.12499748944E+03 0.  0.
          2    1    1    2  501    0 -0.55410884870E+01  0.23268595400E+02 -0.16268817819E+02  0.28927592826E+02  0.00000000000E+00 0. -1.
          1    1    1    2  502    0 -0.75729120981E+02  0.34098680673E+02  0.53784878404E+03  0.54422323938E+03  0.00000000000E+00 0. -1.
         22    1    3    3    0    0 -0.29115462742E+02  0.78188383935E+01  0.84967783878E+02  0.90157466144E+02  0.00000000000E+00 0. -1.
         22    1    3    3    0    0  0.11038567221E+03 -0.65186114466E+02  0.51460141587E+03  0.53032899541E+03  0.00000000000E+00 0. -1.
</event>
<event>
 7    1  0.6507405E-006  0.3834789E+02  0.7818608E-02  0.1613688E+00
          2   -1    0    0  502    0  0.00000000000E+00  0.00000000000E+00  0.17125973167E+04  0.17125973167E+04  0.00000000000E+00 0. -1.
          1   -1    0    0  501    0 -0.00000000000E+00 -0.00000000000E+00 -0.13090097867E+03  0.13090097867E+03  0.00000000000E+00 0. -1.
         25    2    1    2    0    0  0.28464327897E+02  0.35059807884E+01  0.12299502902E+03  0.17769553474E+03  0.12500166415E+03 0.  0.
          2    1    1    2  501    0  0.88895559919E+00  0.21363464254E+02 -0.10220739385E+03  0.10442001343E+03  0.00000000000E+00 0. -1.
          1    1    1    2  502    0 -0.29353283496E+02 -0.24869445042E+02  0.15609087029E+04  0.15613827472E+04  0.00000000000E+00 0. -1.
         22    1    3    3    0    0  0.24394376154E+02  0.40169888148E+02 -0.23295714540E+01  0.47054568374E+02  0.00000000000E+00 0. -1.
         22    1    3    3    0    0  0.40699517430E+01 -0.36663907359E+02  0.12532460047E+03  0.13064096637E+03  0.00000000000E+00 0. -1.
</event>
<event>
 7    1  0.6507405E-006  0.8915872E+02  0.7818608E-02  0.1351076E+00
          2   -1    0    0  502    0  0.00000000000E+00  0.00000000000E+00  0.40532645613E+04  0.40532645613E+04  0.00000000000E+00 0. -1.
          1   -1    0    0  501    0 -0.00000000000E+00 -0.00000000000E+00 -0.63309928229E+03  0.63309928229E+03  0.00000000000E+00 0. -1.
         25    2    1    2    0    0  0.85235298456E+02  0.10623873238E+03 -0.35175085186E+03  0.39737340379E+03  0.12500094357E+03 0.  0.
          2    1    1    2  501    0 -0.10020118964E+02 -0.58461895670E+02 -0.25463572011E+03  0.26145276052E+03  0.00000000000E+00 0. -1.
          1    1    1    2  502    0 -0.75215179492E+02 -0.47776836713E+02  0.40265518509E+04  0.40275376792E+04  0.00000000000E+00 0. -1.
         22    1    3    3    0    0  0.11646530391E+03  0.70082898898E+02 -0.27880994712E+03  0.31017860394E+03  0.00000000000E+00 0.  1.
         22    1    3    3    0    0 -0.31230005453E+02  0.36155833485E+02 -0.72940904748E+02  0.87194799851E+02  0.00000000000E+00 0.  1.
</event>
<event>
 7    1  0.6507405E-006  0.1194135E+03  0.7818608E-02  0.1307086E+00
          2   -1    0    0  502    0  0.00000000000E+00  0.00000000000E+00  0.10813742087E+04  0.10813742087E+04  0.00000000000E+00 0. -1.
          1   -1    0    0  501    0 -0.00000000000E+00 -0.00000000000E+00 -0.38679909492E+03  0.38679909492E+03  0.00000000000E+00 0. -1.
         25    2    1    2    0    0  0.16905186563E+03 -0.57992539570E+01  0.18543493839E+03  0.28039665372E+03  0.12499600962E+03 0.  0.
          2    1    1    2  501    0 -0.11161269067E+03  0.36766038894E+02 -0.32783586535E+03  0.34826066236E+03  0.00000000000E+00 0. -1.
          1    1    1    2  502    0 -0.57439174964E+02 -0.30966784936E+02  0.83697604071E+03  0.83951598752E+03  0.00000000000E+00 0. -1.
         22    1    3    3    0    0  0.73305200323E+02 -0.21788430322E+02  0.64043345212E+01  0.76742449733E+02  0.00000000000E+00 0. -1.
         22    1    3    3    0    0  0.95746665307E+02  0.15989176365E+02  0.17903060387E+03  0.20365420399E+03  0.00000000000E+00 0. -1.
</event>
<event>
 7    1  0.6507405E-006  0.5848381E+02  0.7818608E-02  0.1436873E+00
          2   -1    0    0  502    0  0.00000000000E+00  0.00000000000E+00  0.86117587331E+02  0.86117587331E+02  0.00000000000E+00 0. -1.
          1   -1    0    0  501    0 -0.00000000000E+00 -0.00000000000E+00 -0.25771214091E+04  0.25771214091E+04  0.00000000000E+00 0. -1.
         25    2    1    2    0    0  0.96258065216E+02  0.16405582996E+01 -0.93707552410E+02  0.18350592093E+03  0.12500004436E+03 0.  0.
          2    1    1    2  501    0 -0.54643158052E+02 -0.20124106495E+02 -0.24254817396E+04  0.24261806453E+04  0.00000000000E+00 0. -1.
          1    1    1    2  502    0 -0.41614907164E+02  0.18483548196E+02  0.28185470225E+02  0.53552430234E+02  0.00000000000E+00 0. -1.
         22    1    3    3    0    0  0.90011730329E+02 -0.17507711150E+02 -0.11959649201E+03  0.15070485211E+03  0.00000000000E+00 0.  1.
         22    1    3    3    0    0  0.62463348873E+01  0.19148269450E+02  0.25888939604E+02  0.32801068828E+02  0.00000000000E+00 0.  1.
</event>
<event>
 7    1  0.6507405E-006  0.4045112E+02  0.7818608E-02  0.1607628E+00
          2   -1    0    0  502    0  0.00000000000E+00  0.00000000000E+00  0.69350542076E+02  0.69350542076E+02  0.00000000000E+00 0. -1.
          1   -1    0    0  501    0 -0.00000000000E+00 -0.00000000000E+00 -0.12874541230E+04  0.12874541230E+04  0.00000000000E+00 0. -1.
         25    2    1    2    0    0  0.28182906698E+01 -0.58210146226E+02 -0.44283047156E+03  0.46380884643E+03  0.12499382224E+03 0.  0.
          2    1    1    2  501    0 -0.99271833725E+01  0.38436636388E+02 -0.83177057523E+03  0.83271736730E+03  0.00000000000E+00 0. -1.
          1    1    1    2  502    0  0.71088927027E+01  0.19773509839E+02  0.56497465869E+02  0.60278451344E+02  0.00000000000E+00 0. -1.
         22    1    3    3    0    0  0.22167452896E+02 -0.93707852140E+02 -0.28254420247E+03  0.29850256928E+03  0.00000000000E+00 0. -1.
         22    1    3    3    0    0 -0.19349162226E+02  0.35497705913E+02 -0.16028626909E+03  0.16530627715E+03  0.00000000000E+00 0. -1.
</event>
<event>
 7    1  0.6507405E-006  0.5437212E+02  0.7818608E-02  0.1465946E+00
          2   -1    0    0  502    0  0.00000000000E+00  0.00000000000E+00  0.38125110671E+03  0.38125110671E+03  0.00000000000E+00 0. -1.
          1   -1    0    0  501    0 -0.00000000000E+00 -0.00000000000E+00 -0.73999465624E+03  0.73999465624E+03  0.00000000000E+00 0. -1.
         25    2    1    2    0    0  0.65959157579E+02  0.26486127803E+02 -0.46919212984E+03  0.49073057929E+03  0.12499248504E+03 0.  0.
          2    1    1    2  501    0 -0.35089751047E+02  0.18248239712E+02 -0.25651610940E+03  0.25954730448E+03  0.00000000000E+00 0. -1.
          1    1    1    2  502    0 -0.30869406532E+02 -0.44734367515E+02  0.36696468971E+03  0.37096787919E+03  0.00000000000E+00 0. -1.
         22    1    3    3    0    0  0.96327483928E+02  0.46949956909E+02 -0.35208325977E+03  0.36802976024E+03  0.00000000000E+00 0. -1.
         22    1    3    3    0    0 -0.30368326349E+02 -0.20463829105E+02 -0.11710887007E+03  0.12270081905E+03  0.00000000000E+00 0. -1.
</event>
<event>
 7    1  0.6507405E-006  0.9383903E+02  0.7818608E-02  0.1373752E+00
          2   -1    0    0  502    0  0.00000000000E+00  0.00000000000E+00  0.11026865985E+04  0.11026865985E+04  0.00000000000E+00 0. -1.
          1   -1    0    0  501    0 -0.00000000000E+00 -0.00000000000E+00 -0.12955802685E+03  0.12955802685E+03  0.00000000000E+00 0. -1.
         25    2    1    2    0    0  0.40114748285E+02  0.41911334982E+02  0.78111664555E+02  0.15840650588E+03  0.12500174373E+03 0.  0.
          2    1    1    2  501    0  0.46608490569E+02 -0.36815187635E+00 -0.80807989288E+02  0.93286751801E+02  0.00000000000E+00 0. -1.
          1    1    1    2  502    0 -0.86723238854E+02 -0.41543183106E+02  0.97582489643E+03  0.98055136771E+03  0.00000000000E+00 0. -1.
         22    1    3    3    0    0 -0.37018041127E+02  0.99296436186E+01 -0.72383131217E+01  0.39004183982E+02  0.00000000000E+00 0.  1.
         22    1    3    3    0    0  0.77132789412E+02  0.31981691363E+02  0.85349977677E+02  0.11940232190E+03  0.00000000000E+00 0.  1.
</event>
<event>
 7    1  0.6507405E-006  0.1218571E+03  0.7818608E-02  0.1392919E+00
          2   -1    0    0  502    0  0.00000000000E+00  0.00000000000E+00  0.16258339082E+03  0.16258339082E+03  0.00000000000E+00 0. -1.
          1   -1    0    0  501    0 -0.00000000000E+00 -0.00000000000E+00 -0.29860742696E+03  0.29860742696E+03  0.00000000000E+00 0. -1.
         25    2    1    2    0    0  0.10363267863E+03 -0.16239953969E+02 -0.30947988819E+01  0.16321197353E+03  0.12500040936E+03 0.  0.
          2    1    1    2  501    0  0.25297229875E+02 -0.17433741433E+02 -0.15921852593E+03  0.16215555550E+03  0.00000000000E+00 0. -1.
          1    1    1    2  502    0 -0.12892990850E+03  0.33673695402E+02  0.26289288671E+02  0.13582328875E+03  0.00000000000E+00 0. -1.
         22    1    3    3    0    0  0.10609064190E+03 -0.14148277133E+02  0.44207087497E+02  0.11580010634E+03  0.00000000000E+00 0. -1.
         22    1    3    3    0    0 -0.24579632700E+01 -0.20916768358E+01 -0.47301886379E+02  0.47411867190E+02  0.00000000000E+00 0. -1.
</event>
<event>
 7    1  0.6507405E-006  0.8282083E+02  0.7818608E-02  0.1364278E+00
          2   -1    0    0  502    0  0.00000000000E+00  0.00000000000E+00  0.43821537142E+03  0.43821537142E+03  0.00000000000E+00 0. -1.
          1   -1    0    0  501    0 -0.00000000000E+00 -0.00000000000E+00 -0.11791515559E+03  0.11791515559E+03  0.00000000000E+00 0. -1.
         25    2    1    2    0    0 -0.60700167269E+02  0.83131302900E+02  0.77754608433E+02  0.17963023177E+03  0.12500366876E+03 0.  0.
          2    1    1    2  501    0  0.76524555188E+02 -0.28240951568E+02 -0.38150563176E+02  0.90050121393E+02  0.00000000000E+00 0. -1.
          1    1    1    2  502    0 -0.15824387919E+02 -0.54890351332E+02  0.28069617058E+03  0.28645017385E+03  0.00000000000E+00 0. -1.
         22    1    3    3    0    0 -0.73112033439E+02  0.57701416448E+02 -0.38909674217E+01  0.93219968468E+02  0.00000000000E+00 0. -1.
         22    1    3    3    0    0  0.12411866169E+02  0.25429886452E+02  0.81645575855E+02  0.86410263300E+02  0.00000000000E+00 0. -1.
</event>
<event>
 7    1  0.6507405E-006  0.1102562E+03  0.7818608E-02  0.1370759E+00
          2   -1    0    0  502    0  0.00000000000E+00  0.00000000000E+00  0.63274830353E+03  0.63274830353E+03  0.00000000000E+00 0. -1.
          1   -1    0    0  501    0 -0.00000000000E+00 -0.00000000000E+00 -0.84867073875E+03  0.84867073875E+03  0.00000000000E+00 0. -1.
         25    2    1    2    0    0  0.68302942544E+02  0.10421210047E+03  0.37666606261E+02  0.18046804242E+03  0.12499794903E+03 0.  0.
          2    1    1    2  501    0 -0.86530490042E+02 -0.67864754475E+02 -0.77258119773E+03  0.78036841151E+03  0.00000000000E+00 0. -1.
          1    1    1    2  502    0  0.18227547497E+02 -0.36347345998E+02  0.51899215624E+03  0.52058258835E+03  0.00000000000E+00 0. -1.
         22    1    3    3    0    0  0.23079067927E+02  0.11945788509E+03  0.33975472235E+01  0.12171430900E+03  0.00000000000E+00 0. -1.
         22    1    3    3    0    0  0.45223874617E+02 -0.15245784620E+02  0.34269059037E+02  0.58753733425E+02  0.00000000000E+00 0. -1.
</event>
<event>
 7    1  0.6507405E-006  0.8208442E+02  0.7818608E-02  0.1394222E+00
          2   -1    0    0  502    0  0.00000000000E+00  0.00000000000E+00  0.62963018849E+03  0.62963018849E+03  0.00000000000E+00 0. -1.
          1   -1    0    0  501    0 -0.00000000000E+00 -0.00000000000E+00 -0.16356457716E+03  0.16356457716E+03  0.00000000000E+00 0. -1.
         25    2    1    2    0    0  0.19033423544E+02  0.61564701496E+02  0.73649527157E+02  0.15874688635E+03  0.12499534949E+03 0.  0.
          2    1    1    2  501    0  0.20703431506E+02 -0.82972234097E+02 -0.10475727434E+03  0.13522984225E+03  0.00000000000E+00 0. -1.
          1    1    1    2  502    0 -0.39736855050E+02  0.21407532600E+02  0.49717335852E+03  0.49921803705E+03  0.00000000000E+00 0. -1.
         22    1    3    3    0    0 -0.30287391922E+02  0.24817428428E+02 -0.22086723905E+02  0.44956136802E+02  0.00000000000E+00 0. -1.
         22    1    3    3    0    0  0.49320815467E+02  0.36747273068E+02  0.95736251062E+02  0.11379074955E+03  0.00000000000E+00 0. -1.
</event>
<event>
 7    1  0.6507405E-006  0.8594033E+02  0.7818608E-02  0.1357764E+00
          2   -1    0    0  502    0  0.00000000000E+00  0.00000000000E+00  0.15579295569E+04  0.15579295569E+04  0.00000000000E+00 0. -1.
          1   -1    0    0  501    0 -0.00000000000E+00 -0.00000000000E+00 -0.22524337176E+04  0.22524337176E+04  0.00000000000E+00 0. -1.
         25    2    1    2    0    0 -0.10411563801E+02 -0.79539129202E+02  0.98001295711E+02  0.17794224387E+03  0.12499725781E+03 0.  0.
          2    1    1    2  501    0  0.64172953842E+02  0.57391203127E+02 -0.22110299157E+04  0.22127054043E+04  0.00000000000E+00 0. -1.
          1    1    1    2  502    0 -0.53761390041E+02  0.22147926074E+02  0.14185244593E+04  0.14197156263E+04  0.00000000000E+00 0. -1.
         22    1    3    3    0    0  0.26425955239E+02  0.16742902738E+02 -0.56105194484E+01  0.31782602645E+02  0.00000000000E+00 0. -1.
         22    1    3    3    0    0 -0.36837519040E+02 -0.96282031940E+02  0.10361181516E+03  0.14615964123E+03  0.00000000000E+00 0. -1.
</event>
<event>
 7    1  0.6507405E-006  0.8454279E+02  0.7818608E-02  0.1349831E+00
          2   -1    0    0  502    0  0.00000000000E+00  0.00000000000E+00  0.11845288208E+04  0.11845288208E+04  0.00000000000E+00 0. -1.
          1   -1    0    0  501    0 -0.00000000000E+00 -0.00000000000E+00 -0.70786875442E+02  0.70786875442E+02  0.00000000000E+00 0. -1.
         25    2    1    2    0    0 -0.10331574258E+02 -0.25077730047E+02  0.91403484798E+02  0.15720608483E+03  0.12499408827E+03 0.  0.
          2    1    1    2  501    0  0.74552825944E+01 -0.62779543119E+02 -0.82698478524E+01  0.63759255456E+02  0.00000000000E+00 0. -1.
          1    1    1    2  502    0  0.28762916638E+01  0.87857273166E+02  0.10306083084E+04  0.10343503560E+04  0.00000000000E+00 0. -1.
         22    1    3    3    0    0  0.41971613247E+02  0.21834313833E+01  0.88711114332E+02  0.98163361277E+02  0.00000000000E+00 0.  1.
         22    1    3    3    0    0 -0.52303187505E+02 -0.27261161431E+02  0.26923704657E+01  0.59042723552E+02  0.00000000000E+00 0.  1.
</event>
<event>
 7    1  0.6507405E-006  0.1799816E+03  0.7818608E-02  0.1347946E+00
          2   -1    0    0  502    0  0.00000000000E+00  0.00000000000E+00  0.47963128435E+03  0.47963128435E+03  0.00000000000E+00 0. -1.
          1   -1    0    0  501    0 -0.00000000000E+00 -0.00000000000E+00 -0.24162724596E+04  0.24162724596E+04  0.00000000000E+00 0. -1.
         25    2    1    2    0    0 -0.53299375435E+02 -0.20156509797E+03 -0.11625638319E+03  0.26946285509E+03  0.12500148598E+03 0.  0.
          2    1    1    2  501    0  0.41650536193E+02  0.17372501959E+03 -0.22192533601E+04  0.22264322640E+04  0.00000000000E+00 0. -1.
          1    1    1    2  502    0  0.11648839242E+02  0.27840078384E+02  0.39886856805E+03  0.40000862491E+03  0.00000000000E+00 0. -1.
         22    1    3    3    0    0  0.15764444430E+02 -0.16192158662E+03 -0.67829755111E+02  0.17626115170E+03  0.00000000000E+00 0.  1.
         22    1    3    3    0    0 -0.69063819865E+02 -0.39643511353E+02 -0.48426628078E+02  0.93201703384E+02  0.00000000000E+00 0.  1.
</event>
<event>
 7    1  0.6507405E-006  0.3998779E+02  0.7818608E-02  0.1606999E+00
          2   -1    0    0  502    0  0.00000000000E+00  0.00000000000E+00  0.72981071415E+03  0.72981071415E+03  0.00000000000E+00 0. -1.
          1   -1    0    0  501    0 -0.00000000000E+00 -0.00000000000E+00 -0.24365695259E+04  0.24365695259E+04  0.00000000000E+00 0. -1.
         25    2    1    2    0    0 -0.18124224046E+02 -0.11146895903E+02 -0.52740755353E+03  0.54243566547E+03  0.12499993150E+03 0.  0.
          2    1    1    2  501    0  0.39403632728E+02  0.95968459050E+01 -0.19012740664E+04  0.19017065550E+04  0.00000000000E+00 0. -1.
          1    1    1    2  502    0 -0.21279408681E+02  0.15500499980E+01  0.72192280820E+03  0.72223801956E+03  0.00000000000E+00 0. -1.
         22    1    3    3    0    0 -0.17984004126E+02 -0.50521512622E+02 -0.46862991280E+03  0.47168828988E+03  0.00000000000E+00 0. -1.
         22    1    3    3    0    0 -0.14021992067E+00  0.39374616719E+02 -0.58777640729E+02  0.70747375591E+02  0.00000000000E+00 0. -1.
</event>
<event>
 7    1  0.6507405E-006  0.6951189E+02  0.7818608E-02  0.1375611E+00
          2   -1    0    0  502    0  0.00000000000E+00  0.00000000000E+00  0.14065145922E+04  0.14065145922E+04  0.00000000000E+00 0. -1.
          1   -1    0    0  501    0 -0.00000000000E+00 -0.00000000000E+00 -0.36586756729E+03  0.36586756729E+03  0.00000000000E+00 0. -1.
         25    2    1    2    0    0  0.25175031467E+02  0.58103436831E+02  0.24702058698E+01  0.14014614770E+03  0.12500019687E+03 0.  0.
          2    1    1    2  501    0 -0.69798626041E+02 -0.15106205354E+02 -0.29200528722E+03  0.30061126626E+03  0.00000000000E+00 0. -1.
          1    1    1    2  502    0  0.44623594573E+02 -0.42997231476E+02  0.13301821063E+04  0.13316247456E+04  0.00000000000E+00 0. -1.
         22    1    3    3    0    0 -0.39435845992E+02 -0.42137426277E+01 -0.24250958842E+02  0.46487101230E+02  0.00000000000E+00 0. -1.
         22    1    3    3    0    0  0.64610877460E+02  0.62317179458E+02  0.26721164712E+02  0.93659046468E+02  0.00000000000E+00 0. -1.
</event>
<event>
 7    1  0.6507405E-006  0.1197952E+03  0.7818608E-02  0.1335622E+00
          2   -1    0    0  502    0  0.00000000000E+00  0.00000000000E+00  0.51072324220E+03  0.51072324220E+03  0.00000000000E+00 0. -1.
          1   -1    0    0  501    0 -0.00000000000E+00 -0.00000000000E+00 -0.14613247399E+03  0.14613247399E+03  0.00000000000E+00 0. -1.
         25    2    1    2    0    0  0.12015146679E+03  0.38751996191E+01  0.54502460392E+02  0.18178766860E+03  0.12499938449E+03 0.  0.
          2    1    1    2  501    0 -0.11270125662E+02  0.49159159151E+02 -0.64218422553E+02  0.81655645586E+02  0.00000000000E+00 0. -1.
          1    1    1    2  502    0 -0.10888134113E+03 -0.53034358770E+02  0.37430673037E+03  0.39341240201E+03  0.00000000000E+00 0. -1.
         22    1    3    3    0    0  0.11368083867E+03 -0.98089736687E+00  0.90239496608E+02  0.14514634679E+03  0.00000000000E+00 0.  1.
         22    1    3    3    0    0  0.64706281227E+01  0.48560969860E+01 -0.35737036216E+02  0.36641321806E+02  0.00000000000E+00 0.  1.
</event>
<event>
 7    1  0.6507405E-006  0.8670787E+02  0.7818608E-02  0.1405603E+00
          2   -1    0    0  502    0  0.00000000000E+00  0.00000000000E+00  0.26671257939E+03  0.26671257939E+03  0.00000000000E+00 0. -1.
          1   -1    0    0  501    0 -0.00000000000E+00 -0.00000000000E+00 -0.23781514563E+03  0.23781514563E+03  0.00000000000E+00 0. -1.
         25    2    1    2    0    0 -0.46819661451E+02  0.39348091360E+02  0.39290218808E+02  0.14460144175E+03  0.12500201066E+03 0.  0.
          2    1    1    2  501    0 -0.38968949429E+02 -0.24703444113E+01 -0.17031721522E+03  0.17473590193E+03  0.00000000000E+00 0. -1.
          1    1    1    2  502    0  0.85788610880E+02 -0.36877746949E+02  0.15992443018E+03  0.18519038135E+03  0.00000000000E+00 0. -1.
         22    1    3    3    0    0 -0.25460784781E+02 -0.11094002170E+02 -0.39715866684E+02  0.48463166553E+02  0.00000000000E+00 0.  1.
         22    1    3    3    0    0 -0.21358876670E+02  0.50442093530E+02  0.79006085492E+02  0.96138275193E+02  0.00000000000E+00 0.  1.
</event>
<event>
 7    1  0.6507405E-006  0.9553680E+02  0.7818608E-02  0.1294675E+00
          2   -1    0    0  502    0  0.00000000000E+00  0.00000000000E+00  0.84728755648E+03  0.84728755648E+03  0.00000000000E+00 0. -1.
          1   -1    0    0  501    0 -0.00000000000E+00 -0.00000000000E+00 -0.15806203283E+03  0.15806203283E+03  0.00000000000E+00 0. -1.
         25    2    1    2    0    0 -0.42933811414E+02 -0.95272226100E+00  0.21620872431E+03  0.25341540938E+03  0.12501574861E+03 0.  0.
          2    1    1    2  501    0 -0.33108707613E+02 -0.85230034923E+02 -0.11831936543E+03  0.14953199526E+03  0.00000000000E+00 0. -1.
          1    1    1    2  502    0  0.76042519027E+02  0.86182757184E+02  0.59133616476E+03  0.60240218467E+03  0.00000000000E+00 0. -1.
         22    1    3    3    0    0 -0.37051421643E+02  0.41099324859E+02  0.20073515922E+03  0.20822239672E+03  0.00000000000E+00 0.  1.
         22    1    3    3    0    0 -0.58823897711E+01 -0.42052047120E+02  0.15473565092E+02  0.45193012657E+02  0.00000000000E+00 0.  1.
</event>
<event>
 7    1  0.6507405E-006  0.9605253E+02  0.7818608E-02  0.1327718E+00
          2   -1    0    0  502    0  0.00000000000E+00  0.00000000000E+00  0.94486236842E+02  0.94486236842E+02  0.00000000000E+00 0. -1.
          1   -1    0    0  501    0 -0.00000000000E+00 -0.00000000000E+00 -0.39058777320E+04  0.39058777320E+04  0.00000000000E+00 0. -1.
         25    2    1    2    0    0 -0.51535067572E+02 -0.14481422102E+03 -0.22322034438E+03  0.29846164695E+03  0.12500004304E+03 0.  0.
          2    1    1    2  501    0  0.61133421210E+01  0.94993490265E+02 -0.36242073839E+04  0.36254572536E+04  0.00000000000E+00 0. -1.
          1    1    1    2  502    0  0.45421725451E+02  0.49820730755E+02  0.36036233175E+02  0.76445068234E+02  0.00000000000E+00 0. -1.
         22    1    3    3    0    0 -0.20283915228E+02 -0.15954634308E+03 -0.16270368745E+03  0.22877710269E+03  0.00000000000E+00 0.  1.
         22    1    3    3    0    0 -0.31251152344E+02  0.14732122059E+02 -0.60516656927E+02  0.69684544261E+02  0.00000000000E+00 0.  1.
</event>
<event>
 7    1  0.6507405E-006  0.5131602E+02  0.7818608E-02  0.1497220E+00
          2   -1    0    0  502    0  0.00000000000E+00  0.00000000000E+00  0.18363189238E+03  0.18363189238E+03  0.00000000000E+00 0. -1.
          1   -1    0    0  501    0 -0.00000000000E+00 -0.00000000000E+00 -0.38318364447E+03  0.38318364447E+03  0.00000000000E+00 0. -1.
         25    2    1    2    0    0 -0.26600177330E+02 -0.57644985789E+02  0.28831574959E+02  0.14313181187E+03  0.12499976814E+03 0.  0.
          2    1    1    2  501    0 -0.15869050001E+02  0.29634433875E+02 -0.31846203895E+03  0.32023131744E+03  0.00000000000E+00 0. -1.
          1    1    1    2  502    0  0.42469227331E+02  0.28010551913E+02  0.90078711894E+02  0.10345240754E+03  0.00000000000E+00 0. -1.
         22    1    3    3    0    0 -0.50396225077E+02 -0.87999785592E+02  0.24440321255E+02  0.10431237256E+03  0.00000000000E+00 0.  1.
         22    1    3    3    0    0  0.23796047747E+02  0.30354799804E+02  0.43912537041E+01  0.38819439313E+02  0.00000000000E+00 0.  1.
</event>
<event>
 7    1  0.6507405E-006  0.7321757E+02  0.7818608E-02  0.1505734E+00
          2   -1    0    0  502    0  0.00000000000E+00  0.00000000000E+00  0.12287791005E+04  0.12287791005E+04  0.00000000000E+00 0. -1.
          1   -1    0    0  501    0 -0.00000000000E+00 -0.00000000000E+00 -0.49318047940E+02  0.49318047940E+02  0.00000000000E+00 0. -1.
         25    2    1    2    0    0  0.15948637049E+02  0.60300092891E+02  0.12184644233E+03  0.18536566924E+03  0.12499366223E+03 0.  0.
          2    1    1    2  501    0 -0.34652889268E+02 -0.72302882571E+02  0.74757234439E+02  0.10962287017E+03  0.00000000000E+00 0. -1.
          1    1    1    2  502    0  0.18704252219E+02  0.12002789680E+02  0.98285737584E+03  0.98310860908E+03  0.00000000000E+00 0. -1.
         22    1    3    3    0    0  0.53372535932E+02  0.55083587865E+02  0.23827009559E+02  0.80315351138E+02  0.00000000000E+00 0. -1.
         22    1    3    3    0    0 -0.37423898883E+02  0.52165050258E+01  0.98019432768E+02  0.10505031810E+03  0.00000000000E+00 0. -1.
</event>
<event>
 7    1  0.6507405E-006  0.1550943E+03  0.7818608E-02  0.1283579E+00
          2   -1    0    0  502    0  0.00000000000E+00  0.00000000000E+00  0.39190115688E+04  0.39190115688E+04  0.00000000000E+00 0. -1.
          1   -1    0    0  501    0 -0.00000000000E+00 -0.00000000000E+00 -0.23831238663E+03  0.23831238663E+03  0.00000000000E+00 0. -1.
         25    2    1    2    0    0 -0.77768734178E+02 -0.11135605006E+03  0.59350522915E+03  0.62154781469E+03  0.12500033207E+03 0.  0.
          2    1    1    2  501    0  0.44288995626E+02 -0.44099166519E+02 -0.21798807975E+03  0.22677092965E+03  0.00000000000E+00 0. -1.
          1    1    1    2  502    0  0.33479738552E+02  0.15545521658E+03  0.33051820328E+04  0.33090052111E+04  0.00000000000E+00 0. -1.
         22    1    3    3    0    0 -0.38102685970E+02 -0.10435419996E+03  0.55435518479E+03  0.56537711718E+03  0.00000000000E+00 0.  1.
         22    1    3    3    0    0 -0.39666048207E+02 -0.70018501073E+01  0.39150044354E+02  0.56170697505E+02  0.00000000000E+00 0.  1.
</event>
<event>
 7    1  0.6507405E-006  0.1068077E+03  0.7818608E-02  0.1386678E+00
          2   -1    0    0  502    0  0.00000000000E+00  0.00000000000E+00  0.99504901005E+03  0.99504901005E+03  0.00000000000E+00 0. -1.
          1   -1    0    0  501    0 -0.00000000000E+00 -0.00000000000E+00 -0.72403553552E+03  0.72403553552E+03  0.00000000000E+00 0. -1.
         25    2    1    2    0    0 -0.21467539451E+02 -0.76541807506E+02 -0.17251223301E+03  0.22738698873E+03  0.12499947423E+03 0.  0.
          2    1    1    2  501    0  0.47519222494E+02  0.10261069005E+03 -0.51762896615E+03  0.52983655671E+03  0.00000000000E+00 0. -1.
          1    1    1    2  502    0 -0.26051683042E+02 -0.26068882549E+02  0.96115467369E+03  0.96186100014E+03  0.00000000000E+00 0. -1.
         22    1    3    3    0    0 -0.52850219455E+02 -0.79538379310E+02 -0.65430812218E+02  0.11576135222E+03  0.00000000000E+00 0.  1.
         22    1    3    3    0    0  0.31382680003E+02  0.29965718033E+01 -0.10708142079E+03  0.11162563651E+03  0.00000000000E+00 0.  1.
</event>
<event>
 7    1  0.6507405E-006  0.1585595E+03  0.7818608E-02  0.1293883E+00
          2   -1    0    0  502    0  0.00000000000E+00  0.00000000000E+00  0.61599199835E+03  0.61599199835E+03  0.00000000000E+00 0. -1.
          1   -1    0    0  501    0 -0.00000000000E+00 -0.00000000000E+00 -0.29819979878E+04  0.29819979878E+04  0.00000000000E+00 0. -1.
         25    2    1    2    0    0 -0.10834138364E+03  0.75775574819E+01 -0.11492889561E+03  0.20157152765E+03  0.12500861942E+03 0.  0.
          2    1    1    2  501    0 -0.51338075574E+02  0.21086155410E+02 -0.28119788100E+04  0.28125264536E+04  0.00000000000E+00 0. -1.
          1    1    1    2  502    0  0.15967945921E+03 -0.28663712892E+02  0.56090171622E+03  0.58389200490E+03  0.00000000000E+00 0. -1.
         22    1    3    3    0    0 -0.11005558145E+03  0.50819794118E+02 -0.94558986206E+02  0.15374096512E+03  0.00000000000E+00 0.  1.
         22    1    3    3    0    0  0.17141978136E+01 -0.43242236636E+02 -0.20369909405E+02  0.47830562537E+02  0.00000000000E+00 0.  1.
</event>
<event>
 7    1  0.6507405E-006  0.1181599E+03  0.7818608E-02  0.1246312E+00
          2   -1    0    0  502    0  0.00000000000E+00  0.00000000000E+00  0.97966245390E+02  0.97966245390E+02  0.00000000000E+00 0. -1.
          1   -1    0    0  501    0 -0.00000000000E+00 -0.00000000000E+00 -0.30436125664E+04  0.30436125664E+04  0.00000000000E+00 0. -1.
         25    2    1    2    0    0  0.89972585817E+02 -0.11678718863E+02 -0.21661771660E+03  0.26604413589E+03  0.12499915370E+03 0.  0.
          2    1    1    2  501    0 -0.36597107546E+02  0.11689928227E+03 -0.27525117193E+04  0.27552360253E+04  0.00000000000E+00 0. -1.
          1    1    1    2  502    0 -0.53375478271E+02 -0.10522056341E+03  0.23483114872E+02  0.12029865057E+03  0.00000000000E+00 0. -1.
         22    1    3    3    0    0  0.68890767312E+02 -0.35700940795E+01 -0.22977313524E+03  0.23990493340E+03  0.00000000000E+00 0.  1.
         22    1    3    3    0    0  0.21081818506E+02 -0.81086247836E+01  0.13155418639E+02  0.26139202493E+02  0.00000000000E+00 0.  1.
</event>
<event>
 7    1  0.6507405E-006  0.5963467E+02  0.7818608E-02  0.1462634E+00
          2   -1    0    0  502    0  0.00000000000E+00  0.00000000000E+00  0.29122192123E+04  0.29122192123E+04  0.00000000000E+00 0. -1.
          1   -1    0    0  501    0 -0.00000000000E+00 -0.00000000000E+00 -0.10685122174E+02  0.10685122174E+02  0.00000000000E+00 0. -1.
         25    2    1    2    0    0 -0.84320751706E+02  0.22706463335E+02  0.19980181810E+04  0.20038282835E+04  0.12500226276E+03 0.  0.
          2    1    1    2  501    0  0.48611450872E+02 -0.32137160512E+02  0.10812988496E+03  0.12283298524E+03  0.00000000000E+00 0. -1.
          1    1    1    2  502    0  0.35709300834E+02  0.94306971766E+01  0.79538602418E+03  0.79624306570E+03  0.00000000000E+00 0. -1.
         22    1    3    3    0    0  0.64448937677E+01  0.55574242364E+02  0.72688753456E+03  0.72903739340E+03  0.00000000000E+00 0. -1.
         22    1    3    3    0    0 -0.90765645474E+02 -0.32867779029E+02  0.12711306464E+04  0.12747908902E+04  0.00000000000E+00 0. -1.
</event>
<event>
 7    1  0.6507405E-006  0.4419722E+02  0.7818608E-02  0.1508286E+00
          2   -1    0    0  502    0  0.00000000000E+00  0.00000000000E+00  0.25491040125E+04  0.25491040125E+04  0.00000000000E+00 0. -1.
          1   -1    0    0  501    0 -0.00000000000E+00 -0.00000000000E+00 -0.15237815193E+03  0.15237815193E+03  0.00000000000E+00 0. -1.
         25    2    1    2    0    0  0.56263283603E+02  0.47373059871E+02  0.15599915964E+03  0.21300302689E+03  0.12499915109E+03 0.  0.
          2    1    1    2  501    0 -0.14620984773E+02 -0.33097422459E+02 -0.12102454383E+03  0.12631766614E+03  0.00000000000E+00 0. -1.
          1    1    1    2  502    0 -0.41642298830E+02 -0.14275637411E+02  0.23617512448E+04  0.23621614715E+04  0.00000000000E+00 0. -1.
         22    1    3    3    0    0  0.69137759945E+02  0.67602172377E+02  0.59424463931E+02  0.11349603726E+03  0.00000000000E+00 0. -1.
         22    1    3    3    0    0 -0.12874476341E+02 -0.20229112507E+02  0.96574695709E+02  0.99506989630E+02  0.00000000000E+00 0. -1.
</event>
<event>
 7    1  0.6507405E-006  0.7804072E+02  0.7818608E-02  0.1418805E+00
          2   -1    0    0  502    0  0.00000000000E+00  0.00000000000E+00  0.19053503242E+04  0.19053503242E+04  0.00000000000E+00 0. -1.
          1   -1    0    0  501    0 -0.00000000000E+00 -0.00000000000E+00 -0.26711982356E+02  0.26711982356E+02  0.00000000000E+00 0. -1.
         25    2    1    2    0    0 -0.48980990867E+02  0.69697805964E+02  0.44577740654E+03  0.47074417128E+03  0.12500262792E+03 0.  0.
          2    1    1    2  501    0  0.69255152737E+02 -0.36206720231E+02  0.95567710467E+02  0.12345197469E+03  0.00000000000E+00 0. -1.
          1    1    1    2  502    0 -0.20274161870E+02 -0.33491085734E+02  0.13372932248E+04  0.13378661606E+04  0.00000000000E+00 0. -1.
         22    1    3    3    0    0 -0.64912036692E+02  0.66950658520E+02  0.44488518707E+03  0.45455339934E+03  0.00000000000E+00 0. -1.
         22    1    3    3    0    0  0.15931045825E+02  0.27471474440E+01  0.89221947365E+00  0.16190771932E+02  0.00000000000E+00 0. -1.
</event>
<event>
 7    1  0.6507405E-006  0.7512340E+02  0.7818608E-02  0.1459754E+00
          2   -1    0    0  502    0  0.00000000000E+00  0.00000000000E+00  0.22713265523E+04  0.22713265523E+04  0.00000000000E+00 0. -1.
          1   -1    0    0  501    0 -0.00000000000E+00 -0.00000000000E+00 -0.11376567176E+02  0.11376567176E+02  0.00000000000E+00 0. -1.
         25    2    1    2    0    0  0.25380165522E+02  0.81180559156E+02  0.87828685935E+03  0.89120539020E+03  0.12499921694E+03 0.  0.
          2    1    1    2  501    0 -0.29100481042E+02 -0.70303347659E+01  0.53864407635E+02  0.61624978812E+02  0.00000000000E+00 0. -1.
          1    1    1    2  502    0  0.37203155197E+01 -0.74150224390E+02  0.13277987181E+04  0.13298727505E+04  0.00000000000E+00 0. -1.
         22    1    3    3    0    0  0.16119663392E+02  0.10700436614E+03  0.81600927292E+03  0.82315303038E+03  0.00000000000E+00 0.  1.
         22    1    3    3    0    0  0.92605021300E+01 -0.25823806985E+02  0.62277586422E+02  0.68052359823E+02  0.00000000000E+00 0.  1.
</event>
<event>
 7    1  0.6507405E-006  0.6509673E+02  0.7818608E-02  0.1433282E+00
          2   -1    0    0  502    0  0.00000000000E+00  0.00000000000E+00  0.33782560194E+04  0.33782560194E+04  0.00000000000E+00 0. -1.
          1   -1    0    0  501    0 -0.00000000000E+00 -0.00000000000E+00 -0.77632540609E+03  0.77632540609E+03  0.00000000000E+00 0. -1.
         25    2    1    2    0    0 -0.21402135588E+01  0.10278184360E+03 -0.33918021808E+02  0.16535699783E+03  0.12499526648E+03 0.  0.
          2    1    1    2  501    0 -0.13660809564E+02 -0.39747799842E+02 -0.67571618590E+03  0.67702205961E+03  0.00000000000E+00 0. -1.
          1    1    1    2  502    0  0.15801023123E+02 -0.63034043753E+02  0.33115648210E+04  0.33122023681E+04  0.00000000000E+00 0. -1.
         22    1    3    3    0    0 -0.87677515904E+01 -0.25014325924E+02 -0.26023472217E+02  0.37145808318E+02  0.00000000000E+00 0. -1.
         22    1    3    3    0    0  0.66275380316E+01  0.12779616952E+03 -0.78945495909E+01  0.12821118952E+03  0.00000000000E+00 0. -1.
</event>
<event>
 7    1  0.6507405E-006  0.5355435E+02  0.7818608E-02  0.1469318E+00
          2   -1    0    0  502    0  0.00000000000E+00  0.00000000000E+00  0.17600449124E+04  0.17600449124E+04  0.00000000000E+00 0. -1.
          1   -1    0    0  501    0 -0.00000000000E+00 -0.00000000000E+00 -0.20627994832E+03  0.20627994832E+03  0.00000000000E+00 0. -1.
         25    2    1    2    0    0  0.10861829786E+02  0.12654236623E+02  0.39923529966E+02  0.13227652590E+03  0.12500032803E+03 0.  0.
          2    1    1    2  501    0 -0.29972071146E+02 -0.46873367088E+02 -0.15503291204E+03  0.16471381668E+03  0.00000000000E+00 0. -1.
          1    1    1    2  502    0  0.19110241360E+02  0.34219130464E+02  0.16688743462E+04  0.16693345181E+04  0.00000000000E+00 0. -1.
         22    1    3    3    0    0 -0.37962508849E+02 -0.32767730532E+02 -0.71420864851E+01  0.50654571775E+02  0.00000000000E+00 0.  1.
         22    1    3    3    0    0  0.48824338635E+02  0.45421967155E+02  0.47065616452E+02  0.81621954126E+02  0.00000000000E+00 0.  1.
</event>
<event>
 7    1  0.6507405E-006  0.1577056E+03  0.7818608E-02  0.1317780E+00
          2   -1    0    0  502    0  0.00000000000E+00  0.00000000000E+00  0.20455329894E+04  0.20455329894E+04  0.00000000000E+00 0. -1.
          1   -1    0    0  501    0 -0.00000000000E+00 -0.00000000000E+00 -0.18924739904E+04  0.18924739904E+04  0.00000000000E+00 0. -1.
         25    2    1    2    0    0 -0.22261896467E+00  0.13339026804E+03 -0.65055926872E+03  0.67575525623E+03  0.12499916418E+03 0.  0.
          2    1    1    2  501    0  0.29861550583E+02 -0.16706132894E+03 -0.12232102231E+04  0.12349269006E+04  0.00000000000E+00 0. -1.
          1    1    1    2  502    0 -0.29638931618E+02  0.33671060901E+02  0.20268284908E+04  0.20273248230E+04  0.00000000000E+00 0. -1.
         22    1    3    3    0    0  0.62277011664E+02  0.71907519813E+02 -0.34145495698E+03  0.35445818545E+03  0.00000000000E+00 0. -1.
         22    1    3    3    0    0 -0.62499630629E+02  0.61482748226E+02 -0.30910431174E+03  0.32129707079E+03  0.00000000000E+00 0. -1.
</event>
<event>
 7    1  0.6507405E-006  0.7169681E+02  0.7818608E-02  0.1363663E+00
          2   -1    0    0  502    0  0.00000000000E+00  0.00000000000E+00  0.89628910909E+02  0.89628910909E+02  0.00000000000E+00 0. -1.
          1   -1    0    0  501    0 -0.00000000000E+00 -0.00000000000E+00 -0.53842461567E+03  0.53842461567E+03  0.00000000000E+00 0. -1.
         25    2    1    2    0    0  0.42201440446E+02  0.11105832766E+02 -0.23638658284E+03  0.27093966781E+03  0.12500154379E+03 0.  0.
          2    1    1    2  501    0 -0.22976312334E+02  0.62222760054E+02 -0.25951894206E+03  0.26786127769E+03  0.00000000000E+00 0. -1.
          1    1    1    2  502    0 -0.19225128111E+02 -0.73328592820E+02  0.47109820139E+02  0.89252581079E+02  0.00000000000E+00 0. -1.
         22    1    3    3    0    0 -0.39587505454E+02  0.26375988665E+02 -0.10717217906E+03  0.11725501836E+03  0.00000000000E+00 0. -1.
         22    1    3    3    0    0  0.81788945900E+02 -0.15270155899E+02 -0.12921440377E+03  0.15368464944E+03  0.00000000000E+00 0. -1.
</event>
<event>
 7    1  0.6507405E-006  0.1744271E+03  0.7818608E-02  0.1307135E+00
          2   -1    0    0  502    0  0.00000000000E+00  0.00000000000E+00  0.22953372938E+04  0.22953372938E+04  0.00000000000E+00 0. -1.
          1   -1    0    0  501    0 -0.00000000000E+00 -0.00000000000E+00 -0.50320077180E+03  0.50320077180E+03  0.00000000000E+00 0. -1.
         25    2    1    2    0    0 -0.29003957721E+02  0.16696764652E+03  0.35983692202E+02  0.21362991584E+03  0.12499396101E+03 0.  0.
          2    1    1    2  501    0  0.44065984850E+02  0.72209483114E+01 -0.40964153590E+03  0.41206812671E+03  0.00000000000E+00 0. -1.
          1    1    1    2  502    0 -0.15062027130E+02 -0.17418859483E+03  0.21657943657E+04  0.21728400231E+04  0.00000000000E+00 0. -1.
         22    1    3    3    0    0 -0.56933945542E+02  0.55178154046E+02 -0.25166539184E+02  0.83183276765E+02  0.00000000000E+00 0. -1.
         22    1    3    3    0    0  0.27929987821E+02  0.11178949247E+03  0.61150231386E+02  0.13044663907E+03  0.00000000000E+00 0. -1.
</event>
<event>
 7    1  0.6507405E-006  0.6168579E+02  0.7818608E-02  0.1435895E+00
          2   -1    0    0  502    0  0.00000000000E+00  0.00000000000E+00  0.26886981930E+02  0.26886981930E+02  0.00000000000E+00 0. -1.
          1   -1    0    0  501    0 -0.00000000000E+00 -0.00000000000E+00 -0.83433570677E+03  0.83433570677E+03  0.00000000000E+00 0. -1.
         25    2    1    2    0    0 -0.25934861602E+02 -0.20499877700E+02 -0.32961242351E+03  0.35406506602E+03  0.12499943686E+03 0.  0.
          2    1    1    2  501    0 -0.42941745555E+02  0.68808828134E+01 -0.39990832041E+03  0.40226608705E+03  0.00000000000E+00 0. -1.
          1    1    1    2  502    0  0.68876607157E+02  0.13618994886E+02 -0.77927980931E+02  0.10489153563E+03  0.00000000000E+00 0. -1.
         22    1    3    3    0    0 -0.59456401052E+02  0.31485527662E+02 -0.16284695450E+03  0.17619742526E+03  0.00000000000E+00 0. -1.
         22    1    3    3    0    0  0.33521539450E+02 -0.51985405362E+02 -0.16676546900E+03  0.17786764076E+03  0.00000000000E+00 0. -1.
</event>
<event>
 7    1  0.6507405E-006  0.4850013E+02  0.7818608E-02  0.1495694E+00
          2   -1    0    0  502    0  0.00000000000E+00  0.00000000000E+00  0.17418344132E+04  0.17418344132E+04  0.00000000000E+00 0. -1.
          1   -1    0    0  501    0 -0.00000000000E+00 -0.00000000000E+00 -0.18984924440E+03  0.18984924440E+03  0.00000000000E+00 0. -1.
         25    2    1    2    0    0  0.24525359889E+02  0.58950510732E+02  0.54876677234E+03  0.56643495891E+03  0.12500774476E+03 0.  0.
          2    1    1    2  501    0  0.95540876241E+01 -0.47522814283E+02 -0.17749157118E+03  0.18399172891E+03  0.00000000000E+00 0. -1.
          1    1    1    2  502    0 -0.34079447513E+02 -0.11427696450E+02  0.11807099676E+04  0.11812569697E+04  0.00000000000E+00 0. -1.
         22    1    3    3    0    0  0.18963407674E+02  0.81250847446E+02  0.19728360080E+03  0.21420114422E+03  0.00000000000E+00 0.  1.
         22    1    3    3    0    0  0.55619522149E+01 -0.22300336713E+02  0.35148317154E+03  0.35223381469E+03  0.00000000000E+00 0.  1.
</event>
<event>
 7    1  0.6507405E-006  0.8292474E+02  0.7818608E-02  0.1395169E+00
          2   -1    0    0  502    0  0.00000000000E+00  0.00000000000E+00  0.20283819443E+04  0.20283819443E+04  0.00000000000E+00 0. -1.
          1   -1    0    0  501    0 -0.00000000000E+00 -0.00000000000E+00 -0.29843212234E+02  0.29843212234E+02  0.00000000000E+00 0. -1.
         25    2    1    2    0    0  0.10730016425E+03  0.32780523209E+02  0.48036724914E+03  0.50888675667E+03  0.12500059647E+03 0.  0.
          2    1    1    2  501    0 -0.26250695983E+02 -0.35737381071E+02  0.19444324911E+02  0.48418397503E+02  0.00000000000E+00 0. -1.
          1    1    1    2  502    0 -0.81049468266E+02  0.29568578627E+01  0.14987271580E+04  0.15009200024E+04  0.00000000000E+00 0. -1.
         22    1    3    3    0    0  0.57999130813E+02  0.78838148305E+02  0.23891201543E+03  0.25818269485E+03  0.00000000000E+00 0. -1.
         22    1    3    3    0    0  0.49301033437E+02 -0.46057625097E+02  0.24145523370E+03  0.25070406182E+03  0.00000000000E+00 0. -1.
</event>
<event>
 7    1  0.6507405E-006  0.9073441E+02  0.7818608E-02  0.1479837E+00
          2   -1    0    0  502    0  0.00000000000E+00  0.00000000000E+00  0.18170644254E+03  0.18170644254E+03  0.00000000000E+00 0. -1.
          1   -1    0    0  501    0 -0.00000000000E+00 -0.00000000000E+00 -0.68917240716E+03  0.68917240716E+03  0.00000000000E+00 0. -1.
         25    2    1    2    0    0 -0.18519507370E+02 -0.10978102690E+03  0.83549640346E+01  0.16759910712E+03  0.12499923705E+03 0.  0.
          2    1    1    2  501    0  0.13228565672E+02  0.88978526542E+02 -0.60495035766E+03  0.61160208336E+03  0.00000000000E+00 0. -1.
          1    1    1    2  502    0  0.52909416979E+01  0.20802500358E+02  0.89129429008E+02  0.91677659222E+02  0.00000000000E+00 0. -1.
         22    1    3    3    0    0 -0.64228609734E+02 -0.57909125285E+02 -0.26125894348E+02  0.90340154168E+02  0.00000000000E+00 0. -1.
         22    1    3    3    0    0  0.45709102363E+02 -0.51871901614E+02  0.34480858383E+02  0.77258952949E+02  0.00000000000E+00 0. -1.
</event>
<event>
 7    1  0.6507405E-006  0.6635789E+02  0.7818608E-02  0.1459651E+00
          2   -1    0    0  502    0  0.00000000000E+00  0.00000000000E+00  0.15575061858E+03  0.15575061858E+03  0.00000000000E+00 0. -1.
          1   -1    0    0  501    0 -0.00000000000E+00 -0.00000000000E+00 -0.25753259588E+04  0.25753259588E+04  0.00000000000E+00 0. -1.
         25    2    1    2    0    0 -0.84161604987E+02 -0.42926471639E+02 -0.32831953337E+03  0.36379190062E+03  0.12499989298E+03 0.  0.
          2    1    1    2  501    0  0.20301458665E+02  0.27170914772E+02 -0.22212966347E+04  0.22215555693E+04  0.00000000000E+00 0. -1.
          1    1    1    2  502    0  0.63860146322E+02  0.15755556866E+02  0.13004082787E+03  0.14572910750E+03  0.00000000000E+00 0. -1.
         22    1    3    3    0    0 -0.79822091079E+02 -0.79243909874E+02 -0.28887134704E+03  0.30999648162E+03  0.00000000000E+00 0. -1.
         22    1    3    3    0    0 -0.43395139085E+01  0.36317438235E+02 -0.39448186324E+02  0.53795418998E+02  0.00000000000E+00 0. -1.
</event>
<event>
 7    1  0.1399872E-005  0.4982350E+02  0.7818608E-02  0.1523777E+00
          2   -1    0    0  502    0  0.00000000000E+00  0.00000000000E+00  0.20934527229E+04  0.20934527229E+04  0.00000000000E+00 0. -1.
          1   -1    0    0  501    0 -0.00000000000E+00 -0.00000000000E+00 -0.98512354374E+03  0.98512354374E+03  0.00000000000E+00 0. -1.
         25    2    1    2    0    0 -0.46045592742E+02 -0.63817625205E+02 -0.57229743409E+03  0.59105177948E+03  0.12499986827E+03 0.  0.
          2    1    1    2  501    0  0.17845079609E+02  0.22761062114E+02 -0.40263252580E+03  0.40366999349E+03  0.00000000000E+00 0. -1.
          1    1    1    2  502    0  0.28200513133E+02  0.41056563091E+02  0.20832591390E+04  0.20838544936E+04  0.00000000000E+00 0. -1.
         22    1    3    3    0    0 -0.39150708343E+02  0.12604763020E+02 -0.58240416137E+02  0.71299397517E+02  0.00000000000E+00 0.  1.
         22    1    3    3    0    0 -0.68948843995E+01 -0.76422388225E+02 -0.51405701795E+03  0.51975238196E+03  0.00000000000E+00 0.  1.
</event>
<event>
 7    1  0.6507405E-006  0.5753492E+02  0.7818608E-02  0.1421877E+00
          2   -1    0    0  502    0  0.00000000000E+00  0.00000000000E+00  0.41424710181E+03  0.41424710181E+03  0.00000000000E+00 0. -1.
          1   -1    0    0  501    0 -0.00000000000E+00 -0.00000000000E+00 -0.13530419457E+04  0.13530419457E+04  0.00000000000E+00 0. -1.
         25    2    1    2    0    0  0.63131302321E+01 -0.25337927723E+02 -0.50397483247E+02  0.13729750404E+03  0.12501532747E+03 0.  0.
          2    1    1    2  501    0 -0.49991531107E+02 -0.13809119893E+02 -0.12563365464E+04  0.12574066021E+04  0.00000000000E+00 0. -1.
          1    1    1    2  502    0  0.43678400875E+02  0.39147047616E+02  0.36793918585E+03  0.37258494135E+03  0.00000000000E+00 0. -1.
         22    1    3    3    0    0  0.65457569225E+02 -0.10195687507E+02 -0.31741826939E+02  0.73458757068E+02  0.00000000000E+00 0.  1.
         22    1    3    3    0    0 -0.59144438993E+02 -0.15142240216E+02 -0.18655656309E+02  0.63838746971E+02  0.00000000000E+00 0.  1.
</event>
<event>
 7    1  0.6507405E-006  0.2242679E+03  0.7818608E-02  0.1231257E+00
          2   -1    0    0  502    0  0.00000000000E+00  0.00000000000E+00  0.21599568428E+04  0.21599568428E+04  0.00000000000E+00 0. -1.
          1   -1    0    0  501    0 -0.00000000000E+00 -0.00000000000E+00 -0.54666334525E+03  0.54666334525E+03  0.00000000000E+00 0. -1.
         25    2    1    2    0    0  0.36924046556E+02 -0.15835697550E+03  0.32730839631E+03  0.38625866356E+03  0.12499860788E+03 0.  0.
          2    1    1    2  501    0 -0.85333006441E+02  0.21226498599E+03 -0.49111449266E+03  0.54178555828E+03  0.00000000000E+00 0. -1.
          1    1    1    2  502    0  0.48408959885E+02 -0.53908010485E+02  0.17770995939E+04  0.17785759662E+04  0.00000000000E+00 0. -1.
         22    1    3    3    0    0  0.34289094336E+02 -0.10335936570E+03  0.30995428040E+03  0.32852786245E+03  0.00000000000E+00 0.  1.
         22    1    3    3    0    0  0.26349522202E+01 -0.54997609800E+02  0.17354115909E+02  0.57730801102E+02  0.00000000000E+00 0.  1.
</event>
<event>
 7    1  0.6507405E-006  0.2429745E+03  0.7818608E-02  0.1309995E+00
          2   -1    0    0  502    0  0.00000000000E+00  0.00000000000E+00  0.51096350328E+03  0.51096350328E+03  0.00000000000E+00 0. -1.
          1   -1    0    0  501    0 -0.00000000000E+00 -0.00000000000E+00 -0.18828308882E+04  0.18828308882E+04  0.00000000000E+00 0. -1.
         25    2    1    2    0    0 -0.22254848338E+02  0.22588979366E+03 -0.28969912102E+03  0.38867948680E+03  0.12499874234E+03 0.  0.
          2    1    1    2  501    0  0.49390566123E+02 -0.24135442578E+03 -0.15332689129E+04  0.15529343019E+04  0.00000000000E+00 0. -1.
          1    1    1    2  502    0 -0.27135717785E+02  0.15464632123E+02  0.45110064896E+03  0.45218060277E+03  0.00000000000E+00 0. -1.
         22    1    3    3    0    0 -0.66185464185E+02  0.13761585479E+03 -0.12784088039E+03  0.19915303126E+03  0.00000000000E+00 0.  1.
         22    1    3    3    0    0  0.43930615847E+02  0.88273938865E+02 -0.16185824063E+03  0.18952645554E+03  0.00000000000E+00 0.  1.
</event>
<event>
 7    1  0.6507405E-006  0.8124505E+02  0.7818608E-02  0.1453737E+00
          2   -1    0    0  502    0  0.00000000000E+00  0.00000000000E+00  0.22463166454E+03  0.22463166454E+03  0.00000000000E+00 0. -1.
          1   -1    0    0  501    0 -0.00000000000E+00 -0.00000000000E+00 -0.11383629663E+04  0.11383629663E+04  0.00000000000E+00 0. -1.
         25    2    1    2    0    0 -0.53607711511E+02 -0.56594622891E+01 -0.15052995122E+03  0.20295370142E+03  0.12500048984E+03 0.  0.
          2    1    1    2  501    0 -0.27889405525E+02 -0.76683509247E+01 -0.95280000922E+03  0.95323894177E+03  0.00000000000E+00 0. -1.
          1    1    1    2  502    0  0.81497117036E+02  0.13327813214E+02  0.18959865872E+03  0.20680198761E+03  0.00000000000E+00 0. -1.
         22    1    3    3    0    0  0.37073345323E+02 -0.15164059759E+02 -0.73011649668E+02  0.83277143497E+02  0.00000000000E+00 0. -1.
         22    1    3    3    0    0 -0.90681056834E+02  0.95045974696E+01 -0.77518301551E+02  0.11967655793E+03  0.00000000000E+00 0. -1.
</event>
<event>
 7    1  0.6507405E-006  0.1046607E+03  0.7818608E-02  0.1319545E+00
          2   -1    0    0  502    0  0.00000000000E+00  0.00000000000E+00  0.60358811650E+03  0.60358811650E+03  0.00000000000E+00 0. -1.
          1   -1    0    0  501    0 -0.00000000000E+00 -0.00000000000E+00 -0.14077233504E+04  0.14077233504E+04  0.00000000000E+00 0. -1.
         25    2    1    2    0    0  0.41307477425E+02 -0.24394089959E+02  0.35846168337E+03  0.38265079619E+03  0.12500189625E+03 0.  0.
          2    1    1    2  501    0 -0.54834192538E+02  0.89537065638E+02 -0.13888576896E+04  0.13928206478E+04  0.00000000000E+00 0. -1.
          1    1    1    2  502    0  0.13526715113E+02 -0.65142975678E+02  0.22626077237E+03  0.23584002293E+03  0.00000000000E+00 0. -1.
         22    1    3    3    0    0 -0.27240011996E+02 -0.16087272008E+02  0.26266264780E+03  0.26456092895E+03  0.00000000000E+00 0. -1.
         22    1    3    3    0    0  0.68547489421E+02 -0.83068179516E+01  0.95799035567E+02  0.11808986725E+03  0.00000000000E+00 0. -1.
</event>
<event>
 7    1  0.6507405E-006  0.6468448E+02  0.7818608E-02  0.1396308E+00
          2   -1    0    0  502    0  0.00000000000E+00  0.00000000000E+00  0.10308424932E+03  0.10308424932E+03  0.00000000000E+00 0. -1.
          1   -1    0    0  501    0 -0.00000000000E+00 -0.00000000000E+00 -0.24231868596E+03  0.24231868596E+03  0.00000000000E+00 0. -1.
         25    2    1    2    0    0 -0.67312515489E+01  0.52535938200E+02 -0.43233442081E+02  0.14247082166E+03  0.12499387969E+03 0.  0.
          2    1    1    2  501    0 -0.54819281371E+02 -0.12971799077E+02 -0.11437101079E+03  0.12749176166E+03  0.00000000000E+00 0. -1.
          1    1    1    2  502    0  0.61550532920E+02 -0.39564139123E+02  0.18370016235E+02  0.75440351959E+02  0.00000000000E+00 0. -1.
         22    1    3    3    0    0 -0.30009749971E+02  0.44002085157E+02  0.32763543473E+02  0.62531738920E+02  0.00000000000E+00 0. -1.
         22    1    3    3    0    0  0.23278498422E+02  0.85338530428E+01 -0.75996985553E+02  0.79939082743E+02  0.00000000000E+00 0. -1.
</event>
<event>
 7    1  0.6507405E-006  0.8990113E+02  0.7818608E-02  0.1448057E+00
          2   -1    0    0  502    0  0.00000000000E+00  0.00000000000E+00  0.26943046293E+03  0.26943046293E+03  0.00000000000E+00 0. -1.
          1   -1    0    0  501    0 -0.00000000000E+00 -0.00000000000E+00 -0.16499541531E+04  0.16499541531E+04  0.00000000000E+00 0. -1.
         25    2    1    2    0    0 -0.61193136091E+02 -0.30497635775E+02  0.11744634958E+02  0.14295791371E+03  0.12499729177E+03 0.  0.
          2    1    1    2  501    0 -0.16856583208E+02 -0.21417149886E+02 -0.15727858476E+04  0.15730219836E+04  0.00000000000E+00 0. -1.
          1    1    1    2  502    0  0.78049719299E+02  0.51914785661E+02  0.18051752247E+03  0.20340471865E+03  0.00000000000E+00 0. -1.
         22    1    3    3    0    0 -0.78713265024E+02  0.45191171879E+01 -0.31246079300E+02  0.84808714072E+02  0.00000000000E+00 0.  1.
         22    1    3    3    0    0  0.17520128933E+02 -0.35016752963E+02  0.42990714258E+02  0.58149199636E+02  0.00000000000E+00 0.  1.
</event>
<event>
 7    1  0.6507405E-006  0.6830591E+02  0.7818608E-02  0.1412141E+00
          2   -1    0    0  502    0  0.00000000000E+00  0.00000000000E+00  0.15896409472E+04  0.15896409472E+04  0.00000000000E+00 0. -1.
          1   -1    0    0  501    0 -0.00000000000E+00 -0.00000000000E+00 -0.95561147313E+03  0.95561147313E+03  0.00000000000E+00 0. -1.
         25    2    1    2    0    0 -0.19592164396E+02 -0.33738735178E+02  0.13071316691E+03  0.18502250334E+03  0.12500095833E+03 0.  0.
          2    1    1    2  501    0 -0.13464837372E+02  0.67285456375E+02 -0.92680075827E+03  0.92933754902E+03  0.00000000000E+00 0. -1.
          1    1    1    2  502    0  0.33057001768E+02 -0.33546721197E+02  0.14301170655E+04  0.14308923680E+04  0.00000000000E+00 0. -1.
         22    1    3    3    0    0 -0.70405117931E+02 -0.18521889886E+02  0.10011929381E+03  0.12378939385E+03  0.00000000000E+00 0. -1.
         22    1    3    3    0    0  0.50812953535E+02 -0.15216845292E+02  0.30593873096E+02  0.61233109496E+02  0.00000000000E+00 0. -1.
</event>
<event>
 7    1  0.6507405E-006  0.6620162E+02  0.7818608E-02  0.1416565E+00
          2   -1    0    0  502    0  0.00000000000E+00  0.00000000000E+00  0.57492322612E+03  0.57492322612E+03  0.00000000000E+00 0. -1.
          1   -1    0    0  501    0 -0.00000000000E+00 -0.00000000000E+00 -0.23308452785E+03  0.23308452785E+03  0.00000000000E+00 0. -1.
         25    2    1    2    0    0 -0.34824407293E+02  0.11595109060E+02  0.14163069749E+03  0.19243630246E+03  0.12500116054E+03 0.  0.
          2    1    1    2  501    0  0.61961303455E+02  0.26725032614E+02 -0.20079416557E+03  0.21182947722E+03  0.00000000000E+00 0. -1.
          1    1    1    2  502    0 -0.27136896162E+02 -0.38320141674E+02  0.40100216634E+03  0.40374197429E+03  0.00000000000E+00 0. -1.
         22    1    3    3    0    0 -0.69315097096E+02  0.44519232430E+02  0.84311243540E+02  0.11787675992E+03  0.00000000000E+00 0. -1.
         22    1    3    3    0    0  0.34490689803E+02 -0.32924123370E+02  0.57319453953E+02  0.74559542543E+02  0.00000000000E+00 0. -1.
</event>
<event>
 7    1  0.6507405E-006  0.6375477E+02  0.7818608E-02  0.1462804E+00
          2   -1    0    0  502    0  0.00000000000E+00  0.00000000000E+00  0.27432878263E+04  0.27432878263E+04  0.00000000000E+00 0. -1.
          1   -1    0    0  501    0 -0.00000000000E+00 -0.00000000000E+00 -0.35064566636E+03  0.35064566636E+03  0.00000000000E+00 0. -1.
         25    2    1    2    0    0 -0.29222182110E+02 -0.14902458015E+02  0.17668950701E+03  0.21891007658E+03  0.12500568211E+03 0.  0.
          2    1    1    2  501    0 -0.16755799522E+02 -0.30162826002E+02 -0.32822383514E+03  0.33003248150E+03  0.00000000000E+00 0. -1.
          1    1    1    2  502    0  0.45977981631E+02  0.45065284017E+02  0.25441764881E+04  0.25449909346E+04  0.00000000000E+00 0. -1.
         22    1    3    3    0    0 -0.56266880890E+00 -0.53889970314E+02  0.24476088755E+02  0.59190577100E+02  0.00000000000E+00 0.  1.
         22    1    3    3    0    0 -0.28659513301E+02  0.38987512299E+02  0.15221341826E+03  0.15971949948E+03  0.00000000000E+00 0.  1.
</event>
<event>
 7    1  0.6507405E-006  0.1277726E+03  0.7818608E-02  0.1398220E+00
          2   -1    0    0  502    0  0.00000000000E+00  0.00000000000E+00  0.27826227023E+03  0.27826227023E+03  0.00000000000E+00 0. -1.
          1   -1    0    0  501    0 -0.00000000000E+00 -0.00000000000E+00 -0.26884063844E+03  0.26884063844E+03  0.00000000000E+00 0. -1.
         25    2    1    2    0    0 -0.10206482131E+03  0.10751290805E+03 -0.16205580813E+03  0.25271160967E+03  0.12499927827E+03 0.  0.
          2    1    1    2  501    0  0.43375927518E+01 -0.27751401066E+02 -0.39565602252E+02  0.48522075941E+02  0.00000000000E+00 0. -1.
          1    1    1    2  502    0  0.97727228560E+02 -0.79761506982E+02  0.21104304217E+03  0.24586922306E+03  0.00000000000E+00 0. -1.
         22    1    3    3    0    0 -0.68894098370E+01 -0.16088934728E+02  0.10246927536E+02  0.20280959359E+02  0.00000000000E+00 0.  1.
         22    1    3    3    0    0 -0.95175411475E+02  0.12360184278E+03 -0.17230273567E+03  0.23243065031E+03  0.00000000000E+00 0.  1.
</event>
<event>
 7    1  0.6507405E-006  0.7078558E+02  0.7818608E-02  0.1497629E+00
          2   -1    0    0  502    0  0.00000000000E+00  0.00000000000E+00  0.12539640726E+04  0.12539640726E+04  0.00000000000E+00 0. -1.
          1   -1    0    0  501    0 -0.00000000000E+00 -0.00000000000E+00 -0.10691670753E+04  0.10691670753E+04  0.00000000000E+00 0. -1.
         25    2    1    2    0    0 -0.58559787353E+02 -0.63643343302E+02  0.32622071531E+03  0.35990230850E+03  0.12501996930E+03 0.  0.
          2    1    1    2  501    0  0.34324571281E+02  0.61853889087E+02 -0.10509749921E+04  0.10533529863E+04  0.00000000000E+00 0. -1.
          1    1    1    2  502    0  0.24235216073E+02  0.17894542148E+01  0.90955127412E+03  0.90987585313E+03  0.00000000000E+00 0. -1.
         22    1    3    3    0    0 -0.37028477392E+02  0.31700008519E+02  0.66918859737E+02  0.82789688166E+02  0.00000000000E+00 0. -1.
         22    1    3    3    0    0 -0.21531309962E+02 -0.95343351821E+02  0.25930185558E+03  0.27711262034E+03  0.00000000000E+00 0. -1.
</event>
<event>
 7    1  0.6518006E-006  0.4224298E+02  0.7818608E-02  0.1563577E+00
          2   -1    0    0  502    0  0.00000000000E+00  0.00000000000E+00  0.12189976560E+04  0.12189976560E+04  0.00000000000E+00 0. -1.
          1   -1    0    0  501    0 -0.00000000000E+00 -0.00000000000E+00 -0.10370947860E+04  0.10370947860E+04  0.00000000000E+00 0. -1.
         25    2    1    2    0    0 -0.37523993820E+02 -0.54205265057E+02 -0.27542793557E+03  0.30956689256E+03  0.12499940962E+03 0.  0.
          2    1    1    2  501    0  0.21599962868E+02  0.15108886459E+02 -0.74399321537E+03  0.74446003343E+03  0.00000000000E+00 0. -1.
          1    1    1    2  502    0  0.15924030952E+02  0.39096378598E+02  0.12013240209E+04  0.12020655160E+04  0.00000000000E+00 0. -1.
         22    1    3    3    0    0  0.34183297115E+02 -0.35611141445E+02 -0.19086797130E+03  0.19714774577E+03  0.00000000000E+00 0.  1.
         22    1    3    3    0    0 -0.71707290935E+02 -0.18594123612E+02 -0.84559964275E+02  0.11241914679E+03  0.00000000000E+00 0.  1.
</event>
<event>
 7    1  0.6507405E-006  0.6224757E+02  0.7818608E-02  0.1397517E+00
          2   -1    0    0  502    0  0.00000000000E+00  0.00000000000E+00  0.18463312092E+04  0.18463312092E+04  0.00000000000E+00 0. -1.
          1   -1    0    0  501    0 -0.00000000000E+00 -0.00000000000E+00 -0.54265091001E+03  0.54265091001E+03  0.00000000000E+00 0. -1.
         25    2    1    2    0    0 -0.11091107867E+02 -0.78884315994E+02 -0.33227781644E+03  0.36383900321E+03  0.12499809990E+03 0.  0.
          2    1    1    2  501    0  0.50663869658E+02  0.36511161245E+02 -0.18910994214E+03  0.19915436927E+03  0.00000000000E+00 0. -1.
          1    1    1    2  502    0 -0.39572761792E+02  0.42373154748E+02  0.18250680578E+04  0.18259887468E+04  0.00000000000E+00 0. -1.
         22    1    3    3    0    0 -0.44026025467E+02  0.15073308643E+02 -0.13622399832E+03  0.14395302453E+03  0.00000000000E+00 0.  1.
         22    1    3    3    0    0  0.32934917600E+02 -0.93957624637E+02 -0.19605381812E+03  0.21988597869E+03  0.00000000000E+00 0.  1.
</event>
<event>
 7    1  0.6507405E-006  0.4078023E+02  0.7818608E-02  0.1531973E+00
          2   -1    0    0  502    0  0.00000000000E+00  0.00000000000E+00  0.34536724457E+03  0.34536724457E+03  0.00000000000E+00 0. -1.
          1   -1    0    0  501    0 -0.00000000000E+00 -0.00000000000E+00 -0.15187228819E+03  0.15187228819E+03  0.00000000000E+00 0. -1.
         25    2    1    2    0    0  0.20494799000E+01  0.87520992804E+01  0.35875362270E+02  0.13035355881E+03  0.12499683623E+03 0.  0.
          2    1    1    2  501    0 -0.75023962839E+01 -0.41776263175E+02 -0.99197623956E+02  0.10789675951E+03  0.00000000000E+00 0. -1.
          1    1    1    2  502    0  0.54529163839E+01  0.33024163895E+02  0.25681721807E+03  0.25898921444E+03  0.00000000000E+00 0. -1.
         22    1    3    3    0    0  0.72858709413E+01 -0.57917095797E+02  0.14524776637E+02  0.60153495636E+02  0.00000000000E+00 0.  1.
         22    1    3    3    0    0 -0.52363910413E+01  0.66669195077E+02  0.21350585633E+02  0.70200063178E+02  0.00000000000E+00 0.  1.
</event>
<event>
 7    1  0.6507405E-006  0.1570654E+03  0.7818608E-02  0.1195743E+00
          2   -1    0    0  502    0  0.00000000000E+00  0.00000000000E+00  0.11420682999E+04  0.11420682999E+04  0.00000000000E+00 0. -1.
          1   -1    0    0  501    0 -0.00000000000E+00 -0.00000000000E+00 -0.26126932545E+03  0.26126932545E+03  0.00000000000E+00 0. -1.
         25    2    1    2    0    0  0.82407037595E+02 -0.31814464228E+02  0.93827065434E+02  0.17953302052E+03  0.12500202906E+03 0.  0.
          2    1    1    2  501    0  0.58870301079E+02  0.13886480405E+03 -0.18335541622E+03  0.23742020725E+03  0.00000000000E+00 0. -1.
          1    1    1    2  502    0 -0.14127733867E+03 -0.10705033982E+03  0.97032732523E+03  0.98638439757E+03  0.00000000000E+00 0. -1.
         22    1    3    3    0    0  0.40114968289E+02 -0.76865547867E+02  0.75798845596E+02  0.11516504732E+03  0.00000000000E+00 0. -1.
         22    1    3    3    0    0  0.42292069306E+02  0.45051083639E+02  0.18028219837E+02  0.64367973199E+02  0.00000000000E+00 0. -1.
</event>
<event>
 7    1  0.6507405E-006  0.1042804E+03  0.7818608E-02  0.1304136E+00
          2   -1    0    0  502    0  0.00000000000E+00  0.00000000000E+00  0.76948660784E+03  0.76948660784E+03  0.00000000000E+00 0. -1.
          1   -1    0    0  501    0 -0.00000000000E+00 -0.00000000000E+00 -0.86615466546E+03  0.86615466546E+03  0.00000000000E+00 0. -1.
         25    2    1    2    0    0  0.33657476597E+02 -0.31802743136E+02 -0.26295726080E+03  0.29481644577E+03  0.12500390187E+03 0.  0.
          2    1    1    2  501    0 -0.23921294750E+02 -0.72943401420E+02 -0.58105956154E+03  0.58610850720E+03  0.00000000000E+00 0. -1.
          1    1    1    2  502    0 -0.97361818465E+01  0.10474614456E+03  0.74734876472E+03  0.75471632033E+03  0.00000000000E+00 0. -1.
         22    1    3    3    0    0  0.34436167373E+02  0.30597786565E+02 -0.20340366118E+03  0.20855484542E+03  0.00000000000E+00 0.  1.
         22    1    3    3    0    0 -0.77869077639E+00 -0.62400529701E+02 -0.59553599623E+02  0.86261600347E+02  0.00000000000E+00 0.  1.
</event>
<event>
 7    1  0.6507405E-006  0.8924677E+02  0.7818608E-02  0.1310774E+00
          2   -1    0    0  502    0  0.00000000000E+00  0.00000000000E+00  0.28787793040E+04  0.28787793040E+04  0.00000000000E+00 0. -1.
          1   -1    0    0  501    0 -0.00000000000E+00 -0.00000000000E+00 -0.21213577821E+02  0.21213577821E+02  0.00000000000E+00 0. -1.
         25    2    1    2    0    0 -0.12651878106E+03  0.82965214213E+02  0.70936977058E+03  0.73601939234E+03  0.12501538206E+03 0.  0.
          2    1    1    2  501    0  0.84012015827E+02 -0.84284823565E+01  0.25066145660E+03  0.26449995074E+03  0.00000000000E+00 0. -1.
          1    1    1    2  502    0  0.42506765234E+02 -0.74536731857E+02  0.18975344990E+04  0.18994735388E+04  0.00000000000E+00 0. -1.
         22    1    3    3    0    0 -0.14972319391E+03  0.67376038832E+02  0.54168755419E+03  0.56602294279E+03  0.00000000000E+00 0.  1.
         22    1    3    3    0    0  0.23204412844E+02  0.15589175381E+02  0.16768221640E+03  0.16999644955E+03  0.00000000000E+00 0.  1.
</event>
<event>
 7    1  0.6507405E-006  0.2698441E+02  0.7818608E-02  0.1658932E+00
          2   -1    0    0  502    0  0.00000000000E+00  0.00000000000E+00  0.20672637177E+03  0.20672637177E+03  0.00000000000E+00 0. -1.
          1   -1    0    0  501    0 -0.00000000000E+00 -0.00000000000E+00 -0.20496497310E+03  0.20496497310E+03  0.00000000000E+00 0. -1.
         25    2    1    2    0    0  0.46216736259E+02  0.38695877202E+01  0.31010695766E+02  0.13688558687E+03  0.12500016088E+03 0.  0.
          2    1    1    2  501    0 -0.20670409186E+02 -0.11032679507E+02 -0.14967205123E+03  0.15149491329E+03  0.00000000000E+00 0. -1.
          1    1    1    2  502    0 -0.25546327073E+02  0.71630917863E+01  0.12042275413E+03  0.12331084471E+03  0.00000000000E+00 0. -1.
         22    1    3    3    0    0  0.22568774828E+02 -0.16975431723E+01 -0.48620934975E+02  0.53630463059E+02  0.00000000000E+00 0.  1.
         22    1    3    3    0    0  0.23647961431E+02  0.55671308925E+01  0.79631630741E+02  0.83255123810E+02  0.00000000000E+00 0.  1.
</event>
<event>
 7    1  0.6507405E-006  0.7814569E+02  0.7818608E-02  0.1478167E+00
          2   -1    0    0  502    0  0.00000000000E+00  0.00000000000E+00  0.14811913796E+04  0.14811913796E+04  0.00000000000E+00 0. -1.
          1   -1    0    0  501    0 -0.00000000000E+00 -0.00000000000E+00 -0.54419450523E+03  0.54419450523E+03  0.00000000000E+00 0. -1.
         25    2    1    2    0    0 -0.86571440815E+02 -0.25778120269E+02  0.29869209397E+02  0.15708709193E+03  0.12500023572E+03 0.  0.
          2    1    1    2  501    0  0.86108512786E+01  0.23703241138E+02 -0.47915798842E+03  0.47982118363E+03  0.00000000000E+00 0. -1.
          1    1    1    2  502    0  0.77960589536E+02  0.20748791311E+01  0.13862856534E+04  0.13884776093E+04  0.00000000000E+00 0. -1.
         22    1    3    3    0    0 -0.90455367076E+02  0.18058728045E+02  0.54012661290E+02  0.10689087272E+03  0.00000000000E+00 0.  1.
         22    1    3    3    0    0  0.38839262608E+01 -0.43836848315E+02 -0.24143451892E+02  0.50196219207E+02  0.00000000000E+00 0.  1.
</event>
<event>
 7    1  0.6507405E-006  0.3334345E+02  0.7818608E-02  0.1605938E+00
          2   -1    0    0  502    0  0.00000000000E+00  0.00000000000E+00  0.40181578495E+03  0.40181578495E+03  0.00000000000E+00 0. -1.
          1   -1    0    0  501    0 -0.00000000000E+00 -0.00000000000E+00 -0.23019499903E+03  0.23019499903E+03  0.00000000000E+00 0. -1.
         25    2    1    2    0    0  0.46886147156E+02  0.33669372617E+02  0.17211521103E+03  0.22040900638E+03  0.12499818710E+03 0.  0.
          2    1    1    2  501    0 -0.19854209250E+02 -0.16397193770E+02 -0.20398216035E+03  0.20560101977E+03  0.00000000000E+00 0. -1.
          1    1    1    2  502    0 -0.27031937905E+02 -0.17272178847E+02  0.20348773525E+03  0.20600075783E+03  0.00000000000E+00 0. -1.
         22    1    3    3    0    0 -0.33993857126E+02  0.43602002400E+02  0.82189746616E+02  0.99054890764E+02  0.00000000000E+00 0. -1.
         22    1    3    3    0    0  0.80880004282E+02 -0.99326297822E+01  0.89925464414E+02  0.12135411562E+03  0.00000000000E+00 0. -1.
</event>
<event>
 7    1  0.6507405E-006  0.8168576E+02  0.7818608E-02  0.1359373E+00
          2   -1    0    0  502    0  0.00000000000E+00  0.00000000000E+00  0.64656335537E+03  0.64656335537E+03  0.00000000000E+00 0. -1.
          1   -1    0    0  501    0 -0.00000000000E+00 -0.00000000000E+00 -0.23553919347E+04  0.23553919347E+04  0.00000000000E+00 0. -1.
         25    2    1    2    0    0 -0.84013238528E+02  0.25525582756E+02  0.19737109832E+03  0.24957861713E+03  0.12499742420E+03 0.  0.
          2    1    1    2  501    0  0.74311435658E+02  0.34039709789E+02 -0.23264146810E+04  0.23278501153E+04  0.00000000000E+00 0. -1.
          1    1    1    2  502    0  0.97018028706E+01 -0.59565292545E+02  0.42021500338E+03  0.42452655762E+03  0.00000000000E+00 0. -1.
         22    1    3    3    0    0  0.60211822455E+01  0.37424283019E+02  0.13291051391E+03  0.13821011650E+03  0.00000000000E+00 0. -1.
         22    1    3    3    0    0 -0.90034420774E+02 -0.11898700263E+02  0.64460584410E+02  0.11136850064E+03  0.00000000000E+00 0. -1.
</event>
<event>
 7    1  0.6507405E-006  0.1491443E+03  0.7818608E-02  0.1368383E+00
          2   -1    0    0  502    0  0.00000000000E+00  0.00000000000E+00  0.12174781889E+03  0.12174781889E+03  0.00000000000E+00 0. -1.
          1   -1    0    0  501    0 -0.00000000000E+00 -0.00000000000E+00 -0.15081153977E+04  0.15081153977E+04  0.00000000000E+00 0. -1.
         25    2    1    2    0    0 -0.43013593410E+02  0.15860815792E+03 -0.20242405287E+02  0.20746361179E+03  0.12499871307E+03 0.  0.
          2    1    1    2  501    0  0.62396429012E+02 -0.13485641951E+03 -0.13805465354E+04  0.13885201852E+04  0.00000000000E+00 0. -1.
          1    1    1    2  502    0 -0.19382835602E+02 -0.23751738408E+02  0.14421361901E+02  0.33879419601E+02  0.00000000000E+00 0. -1.
         22    1    3    3    0    0 -0.46506496031E+02  0.15103223502E+03 -0.58346166258E+02  0.16845731004E+03  0.00000000000E+00 0. -1.
         22    1    3    3    0    0  0.34929026207E+01  0.75759228997E+01  0.38103760970E+02  0.39006301755E+02  0.00000000000E+00 0. -1.
</event>
<event>
 7    1  0.6507405E-006  0.1149868E+03  0.7818608E-02  0.1405582E+00
          2   -1    0    0  502    0  0.00000000000E+00  0.00000000000E+00  0.15098809843E+04  0.15098809843E+04  0.00000000000E+00 0. -1.
          1   -1    0    0  501    0 -0.00000000000E+00 -0.00000000000E+00 -0.12204318915E+04  0.12204318915E+04  0.00000000000E+00 0. -1.
         25    2    1    2    0    0  0.13335454358E+03  0.53793666548E+02 -0.87458388386E+02  0.20964817516E+03  0.12500477908E+03 0.  0.
          2    1    1    2  501    0 -0.28310470444E+02 -0.81089572280E+01 -0.10694113969E+04  0.10698167944E+04  0.00000000000E+00 0. -1.
          1    1    1    2  502    0 -0.10504407313E+03 -0.45684709320E+02  0.14463188780E+04  0.14508479062E+04  0.00000000000E+00 0. -1.
         22    1    3    3    0    0  0.12999673505E+03  0.59425892432E+00 -0.34478003553E+02  0.13449251651E+03  0.00000000000E+00 0. -1.
         22    1    3    3    0    0  0.33578085251E+01  0.53199407624E+02 -0.52980384834E+02  0.75155658647E+02  0.00000000000E+00 0. -1.
</event>
<event>
 7    1  0.6507405E-006  0.4777470E+02  0.7818608E-02  0.1524216E+00
          2   -1    0    0  502    0  0.00000000000E+00  0.00000000000E+00  0.53646609683E+03  0.53646609683E+03  0.00000000000E+00 0. -1.
          1   -1    0    0  501    0 -0.00000000000E+00 -0.00000000000E+00 -0.18281374786E+04  0.18281374786E+04  0.00000000000E+00 0. -1.
         25    2    1    2    0    0 -0.11375791267E+02 -0.64966382047E+02 -0.96409426989E+03  0.97439913616E+03  0.12500350357E+03 0.  0.
          2    1    1    2  501    0 -0.10969233868E+02  0.44836621470E+02 -0.85784419664E+03  0.85908516017E+03  0.00000000000E+00 0. -1.
          1    1    1    2  502    0  0.22345025135E+02  0.20129760577E+02  0.53026708477E+03  0.53111927907E+03  0.00000000000E+00 0. -1.
         22    1    3    3    0    0 -0.15111864938E+02 -0.72046654524E+02 -0.96356845885E+03  0.96637635721E+03  0.00000000000E+00 0. -1.
         22    1    3    3    0    0  0.37360736712E+01  0.70802724772E+01 -0.52581103582E+00  0.80227789496E+01  0.00000000000E+00 0. -1.
</event>
<event>
 7    1  0.6507405E-006  0.1393316E+03  0.7818608E-02  0.1259467E+00
          2   -1    0    0  502    0  0.00000000000E+00  0.00000000000E+00  0.44197744347E+03  0.44197744347E+03  0.00000000000E+00 0. -1.
          1   -1    0    0  501    0 -0.00000000000E+00 -0.00000000000E+00 -0.28306142058E+03  0.28306142058E+03  0.00000000000E+00 0. -1.
         25    2    1    2    0    0  0.22153571260E+02 -0.15278496014E+03  0.34115410850E+02  0.20155752170E+03  0.12501019370E+03 0.  0.
          2    1    1    2  501    0  0.61641792515E+02  0.12660710722E+03 -0.16718362185E+03  0.21858507177E+03  0.00000000000E+00 0. -1.
          1    1    1    2  502    0 -0.83795363775E+02  0.26177852924E+02  0.29198423389E+03  0.30489627059E+03  0.00000000000E+00 0. -1.
         22    1    3    3    0    0 -0.34023670885E+00  0.35316509216E+01 -0.30658641356E+02  0.30863256618E+02  0.00000000000E+00 0.  1.
         22    1    3    3    0    0  0.22493807969E+02 -0.15631661107E+03  0.64774052206E+02  0.17069426508E+03  0.00000000000E+00 0.  1.
</event>
<event>
 7    1  0.6507405E-006  0.1325531E+03  0.7818608E-02  0.1368568E+00
          2   -1    0    0  502    0  0.00000000000E+00  0.00000000000E+00  0.13658406959E+03  0.13658406959E+03  0.00000000000E+00 0. -1.
          1   -1    0    0  501    0 -0.00000000000E+00 -0.00000000000E+00 -0.54792822840E+03  0.54792822840E+03  0.00000000000E+00 0. -1.
         25    2    1    2    0    0 -0.12778836374E+03  0.13632757018E+02 -0.28304022998E+03  0.33504338169E+03  0.12500631125E+03 0.  0.
          2    1    1    2  501    0  0.30856704960E+01  0.34302662538E+02 -0.19648324176E+03  0.19947896710E+03  0.00000000000E+00 0. -1.
          1    1    1    2  502    0  0.12470269324E+03 -0.47935419557E+02  0.68179312936E+02  0.14998994920E+03  0.00000000000E+00 0. -1.
         22    1    3    3    0    0 -0.64084292506E+02 -0.51129110786E+02 -0.90271834500E+02  0.12194255459E+03  0.00000000000E+00 0. -1.
         22    1    3    3    0    0 -0.63704071229E+02  0.64761867804E+02 -0.19276839548E+03  0.21310082710E+03  0.00000000000E+00 0. -1.
</event>
<event>
 7    1  0.6507405E-006  0.9062082E+02  0.7818608E-02  0.1329029E+00
          2   -1    0    0  502    0  0.00000000000E+00  0.00000000000E+00  0.15127436127E+04  0.15127436127E+04  0.00000000000E+00 0. -1.
          1   -1    0    0  501    0 -0.00000000000E+00 -0.00000000000E+00 -0.72232993549E+03  0.72232993549E+03  0.00000000000E+00 0. -1.
         25    2    1    2    0    0  0.24163790426E+02 -0.22469773195E+02  0.36686917783E+02  0.13437362453E+03  0.12498624547E+03 0.  0.
          2    1    1    2  501    0  0.68352153849E+02  0.17824318306E+02 -0.67012521233E+03  0.67383790593E+03  0.00000000000E+00 0. -1.
          1    1    1    2  502    0 -0.92515944276E+02  0.46454548886E+01  0.14238519717E+04  0.14268620177E+04  0.00000000000E+00 0. -1.
         22    1    3    3    0    0 -0.13425080353E+01 -0.55932465055E+02  0.63383089011E+02  0.84543828559E+02  0.00000000000E+00 0. -1.
         22    1    3    3    0    0  0.25506298461E+02  0.33462691861E+02 -0.26696171228E+02  0.49829795966E+02  0.00000000000E+00 0. -1.
</event>
<event>
 7    1  0.6507405E-006  0.6331741E+02  0.7818608E-02  0.1396495E+00
          2   -1    0    0  502    0  0.00000000000E+00  0.00000000000E+00  0.26232954824E+04  0.26232954824E+04  0.00000000000E+00 0. -1.
          1   -1    0    0  501    0 -0.00000000000E+00 -0.00000000000E+00 -0.48251148329E+03  0.48251148329E+03  0.00000000000E+00 0. -1.
         25    2    1    2    0    0  0.14050177354E+02  0.89982912185E+01  0.67178830118E+03  0.68352291291E+03  0.12500269657E+03 0.  0.
          2    1    1    2  501    0  0.47032339566E+01 -0.63315905755E+02 -0.47410326224E+03  0.47833558053E+03  0.00000000000E+00 0. -1.
          1    1    1    2  502    0 -0.18753411310E+02  0.54317614537E+02  0.19430989602E+04  0.19439484722E+04  0.00000000000E+00 0. -1.
         22    1    3    3    0    0  0.36420214967E+02  0.12963547613E+01  0.65102758301E+03  0.65204679773E+03  0.00000000000E+00 0. -1.
         22    1    3    3    0    0 -0.22370037614E+02  0.77019364572E+01  0.20760718167E+02  0.31476115180E+02  0.00000000000E+00 0. -1.
</event>
<event>
 7    1  0.6507405E-006  0.8875570E+02  0.7818608E-02  0.1361135E+00
          2   -1    0    0  502    0  0.00000000000E+00  0.00000000000E+00  0.10098273771E+04  0.10098273771E+04  0.00000000000E+00 0. -1.
          1   -1    0    0  501    0 -0.00000000000E+00 -0.00000000000E+00 -0.32172735444E+04  0.32172735444E+04  0.00000000000E+00 0. -1.
         25    2    1    2    0    0 -0.10155145106E+03  0.97180944529E+02 -0.65859720358E+03  0.68493169773E+03  0.12499728319E+03 0.  0.
          2    1    1    2  501    0  0.63576751815E+02 -0.57773609995E+02 -0.25440322841E+04  0.25454822835E+04  0.00000000000E+00 0. -1.
          1    1    1    2  502    0  0.37974699241E+02 -0.39407334533E+02  0.99518332030E+03  0.99668694022E+03  0.00000000000E+00 0. -1.
         22    1    3    3    0    0 -0.20515066982E+02  0.67816810725E+02 -0.11901219986E+03  0.13850592589E+03  0.00000000000E+00 0.  1.
         22    1    3    3    0    0 -0.81036384075E+02  0.29364133803E+02 -0.53958500372E+03  0.54642577184E+03  0.00000000000E+00 0.  1.
</event>
<event>
 7    1  0.6507405E-006  0.4978152E+02  0.7818608E-02  0.1473014E+00
          2   -1    0    0  502    0  0.00000000000E+00  0.00000000000E+00  0.19527982416E+04  0.19527982416E+04  0.00000000000E+00 0. -1.
          1   -1    0    0  501    0 -0.00000000000E+00 -0.00000000000E+00 -0.83345865515E+02  0.83345865515E+02  0.00000000000E+00 0. -1.
         25    2    1    2    0    0 -0.25758012851E+02  0.20506706150E+02  0.29419840577E+02  0.13257071960E+03  0.12500187379E+03 0.  0.
          2    1    1    2  501    0  0.76917199762E+01 -0.57383600765E+02 -0.49738561707E+01  0.58110063140E+02  0.00000000000E+00 0. -1.
          1    1    1    2  502    0  0.18066292875E+02  0.36876894615E+02  0.18450063917E+04  0.18454633244E+04  0.00000000000E+00 0. -1.
         22    1    3    3    0    0  0.87431539132E+01 -0.28102217499E+02  0.59069626716E+02  0.65995440517E+02  0.00000000000E+00 0.  1.
         22    1    3    3    0    0 -0.34501166764E+02  0.48608923648E+02 -0.29649786139E+02  0.66575279079E+02  0.00000000000E+00 0.  1.
</event>
<event>
 7    1  0.6507405E-006  0.9041910E+02  0.7818608E-02  0.1476770E+00
          2   -1    0    0  502    0  0.00000000000E+00  0.00000000000E+00  0.59593887217E+03  0.59593887217E+03  0.00000000000E+00 0. -1.
          1   -1    0    0  501    0 -0.00000000000E+00 -0.00000000000E+00 -0.18048238443E+03  0.18048238443E+03  0.00000000000E+00 0. -1.
         25    2    1    2    0    0 -0.26719524211E+02 -0.85846857394E+02  0.10275871307E+03  0.18512348341E+03  0.12501093993E+03 0.  0.
          2    1    1    2  501    0  0.21495002129E+02 -0.47448056685E+01 -0.13383755033E+03  0.13563568180E+03  0.00000000000E+00 0. -1.
          1    1    1    2  502    0  0.52245220822E+01  0.90591663062E+02  0.44653532501E+03  0.45566209139E+03  0.00000000000E+00 0. -1.
         22    1    3    3    0    0  0.38841905724E+02 -0.11367085368E+02  0.69588457236E+02  0.80501289744E+02  0.00000000000E+00 0. -1.
         22    1    3    3    0    0 -0.65561429935E+02 -0.74479772025E+02  0.33170255831E+02  0.10462219367E+03  0.00000000000E+00 0. -1.
</event>
<event>
 7    1  0.6507405E-006  0.4032586E+02  0.7818608E-02  0.1556529E+00
          2   -1    0    0  502    0  0.00000000000E+00  0.00000000000E+00  0.44888326172E+03  0.44888326172E+03  0.00000000000E+00 0. -1.
          1   -1    0    0  501    0 -0.00000000000E+00 -0.00000000000E+00 -0.12662564587E+03  0.12662564587E+03  0.00000000000E+00 0. -1.
         25    2    1    2    0    0 -0.38482850930E+02 -0.24167544859E+02  0.15110670473E+03  0.20130458394E+03  0.12500119703E+03 0.  0.
          2    1    1    2  501    0  0.40163906709E+02 -0.46578441655E+01 -0.96694140674E+02  0.10480740315E+03  0.00000000000E+00 0. -1.
          1    1    1    2  502    0 -0.16810557783E+01  0.28825389024E+02  0.26784505180E+03  0.26939692050E+03  0.00000000000E+00 0. -1.
         22    1    3    3    0    0 -0.67670298803E+02 -0.48419330833E+02  0.13802237703E+03  0.16116413218E+03  0.00000000000E+00 0.  1.
         22    1    3    3    0    0  0.29187447873E+02  0.24251785974E+02  0.13084327699E+02  0.40140451761E+02  0.00000000000E+00 0.  1.
</event>
<event>
 7    1  0.6507405E-006  0.9076969E+02  0.7818608E-02  0.1360454E+00
          2   -1    0    0  502    0  0.00000000000E+00  0.00000000000E+00  0.26304014254E+03  0.26304014254E+03  0.00000000000E+00 0. -1.
          1   -1    0    0  501    0 -0.00000000000E+00 -0.00000000000E+00 -0.28945468533E+03  0.28945468533E+03  0.00000000000E+00 0. -1.
         25    2    1    2    0    0 -0.33767847486E+02  0.13166651578E+03 -0.71199006270E+02  0.19792741948E+03  0.12501850259E+03 0.  0.
          2    1    1    2  501    0  0.14236874105E+02 -0.81516057860E+02 -0.13971320252E+03  0.16238021810E+03  0.00000000000E+00 0. -1.
          1    1    1    2  502    0  0.19530973381E+02 -0.50150457918E+02  0.18449766599E+03  0.19218719028E+03  0.00000000000E+00 0. -1.
         22    1    3    3    0    0  0.36246727491E+02  0.89600102959E+00 -0.16408527041E+02  0.39797837018E+02  0.00000000000E+00 0.  1.
         22    1    3    3    0    0 -0.70014574978E+02  0.13077051475E+03 -0.54790479229E+02  0.15812958247E+03  0.00000000000E+00 0.  1.
</event>
<event>
 7    1  0.6507405E-006  0.6073192E+02  0.7818608E-02  0.1489396E+00
          2   -1    0    0  502    0  0.00000000000E+00  0.00000000000E+00  0.61108847860E+03  0.61108847860E+03  0.00000000000E+00 0. -1.
          1   -1    0    0  501    0 -0.00000000000E+00 -0.00000000000E+00 -0.73640274979E+02  0.73640274979E+02  0.00000000000E+00 0. -1.
         25    2    1    2    0    0  0.53030597491E+02 -0.47242898322E+01  0.12600319201E+03  0.18530117832E+03  0.12500063643E+03 0.  0.
          2    1    1    2  501    0 -0.19551847419E+01 -0.29923957873E+02 -0.36506674257E+02  0.47244081825E+02  0.00000000000E+00 0. -1.
          1    1    1    2  502    0 -0.51075412749E+02  0.34648247705E+02  0.44795168587E+03  0.45218349343E+03  0.00000000000E+00 0. -1.
         22    1    3    3    0    0  0.94156515352E+02  0.19032760934E+01  0.89268357666E+02  0.12976097843E+03  0.00000000000E+00 0.  1.
         22    1    3    3    0    0 -0.41125917861E+02 -0.66275659256E+01  0.36734834341E+02  0.55540199892E+02  0.00000000000E+00 0.  1.
</event>
<event>
 7    1  0.6507405E-006  0.9208862E+02  0.7818608E-02  0.1300483E+00
          2   -1    0    0  502    0  0.00000000000E+00  0.00000000000E+00  0.84351513515E+03  0.84351513515E+03  0.00000000000E+00 0. -1.
          1   -1    0    0  501    0 -0.00000000000E+00 -0.00000000000E+00 -0.17632604052E+03  0.17632604052E+03  0.00000000000E+00 0. -1.
         25    2    1    2    0    0 -0.89310052562E+02 -0.68824056666E+02  0.34392655035E+03  0.38291440467E+03  0.12499973202E+03 0.  0.
          2    1    1    2  501    0 -0.34015408744E+01  0.89830737384E+02 -0.13870042578E+03  0.16528442144E+03  0.00000000000E+00 0. -1.
          1    1    1    2  502    0  0.92711593436E+02 -0.21006680718E+02  0.46196297006E+03  0.47164234956E+03  0.00000000000E+00 0. -1.
         22    1    3    3    0    0 -0.58542015914E+02 -0.26715099788E+02  0.31842359373E+03  0.32486066125E+03  0.00000000000E+00 0.  1.
         22    1    3    3    0    0 -0.30768036648E+02 -0.42108956878E+02  0.25502956615E+02  0.58053743416E+02  0.00000000000E+00 0.  1.
</event>
<event>
 7    1  0.6507405E-006  0.6059416E+02  0.7818608E-02  0.1405708E+00
          2   -1    0    0  502    0  0.00000000000E+00  0.00000000000E+00  0.82311799231E+03  0.82311799231E+03  0.00000000000E+00 0. -1.
          1   -1    0    0  501    0 -0.00000000000E+00 -0.00000000000E+00 -0.61633779250E+03  0.61633779250E+03  0.00000000000E+00 0. -1.
         25    2    1    2    0    0 -0.38155946767E+02  0.10227107091E+03  0.51310743547E+01  0.16603058169E+03  0.12499831165E+03 0.  0.
          2    1    1    2  501    0  0.20140465063E+01 -0.59719771395E+02 -0.53316014205E+03  0.53649813098E+03  0.00000000000E+00 0. -1.
          1    1    1    2  502    0  0.36141900260E+02 -0.42551299514E+02  0.73480926750E+03  0.73692707213E+03  0.00000000000E+00 0. -1.
         22    1    3    3    0    0 -0.41809051134E+02  0.10456998841E+03 -0.40886802165E+02  0.11981072500E+03  0.00000000000E+00 0. -1.
         22    1    3    3    0    0  0.36531043677E+01 -0.22989175057E+01  0.46017876520E+02  0.46219856692E+02  0.00000000000E+00 0. -1.
</event>
<event>
 7    1  0.6507405E-006  0.1447457E+03  0.7818608E-02  0.1287676E+00
          2   -1    0    0  502    0  0.00000000000E+00  0.00000000000E+00  0.81142760912E+03  0.81142760912E+03  0.00000000000E+00 0. -1.
          1   -1    0    0  501    0 -0.00000000000E+00 -0.00000000000E+00 -0.62136010437E+03  0.62136010437E+03  0.00000000000E+00 0. -1.
         25    2    1    2    0    0 -0.19207753642E+03  0.69047693575E+02  0.71348861180E+02  0.24975377083E+03  0.12499968825E+03 0.  0.
          2    1    1    2  501    0  0.59815727202E+02 -0.23944196806E+02 -0.52265615316E+03  0.52661247632E+03  0.00000000000E+00 0. -1.
          1    1    1    2  502    0  0.13226180922E+03 -0.45103496769E+02  0.64137479673E+03  0.65642146634E+03  0.00000000000E+00 0. -1.
         22    1    3    3    0    0 -0.13466168357E+03 -0.14397280161E+01  0.82854676843E+02  0.15811622090E+03  0.00000000000E+00 0. -1.
         22    1    3    3    0    0 -0.57415852854E+02  0.70487421591E+02 -0.11505815663E+02  0.91637549921E+02  0.00000000000E+00 0. -1.
</event>
<event>
 7    1  0.6507405E-006  0.6362573E+02  0.7818608E-02  0.1389686E+00
          2   -1    0    0  502    0  0.00000000000E+00  0.00000000000E+00  0.18014123841E+04  0.18014123841E+04  0.00000000000E+00 0. -1.
          1   -1    0    0  501    0 -0.00000000000E+00 -0.00000000000E+00 -0.71587387541E+02  0.71587387541E+02  0.00000000000E+00 0. -1.
         25    2    1    2    0    0 -0.26498600253E+02 -0.50722581666E+02  0.17102986275E+03  0.21943281478E+03  0.12499836056E+03 0.  0.
          2    1    1    2  501    0 -0.33371191269E+02  0.58602707557E+02 -0.22520210142E+02  0.71099040814E+02  0.00000000000E+00 0. -1.
          1    1    1    2  502    0  0.59869791523E+02 -0.78801258910E+01  0.15813153439E+04  0.15824679160E+04  0.00000000000E+00 0. -1.
         22    1    3    3    0    0 -0.52430462112E+02 -0.28262257036E+02  0.17503658411E+03  0.18489325111E+03  0.00000000000E+00 0.  1.
         22    1    3    3    0    0  0.25931861859E+02 -0.22460324630E+02 -0.40067213602E+01  0.34539563663E+02  0.00000000000E+00 0.  1.
</event>
<event>
 7    1  0.6507405E-006  0.2231001E+03  0.7818608E-02  0.1313532E+00
          2   -1    0    0  502    0  0.00000000000E+00  0.00000000000E+00  0.68442671061E+03  0.68442671061E+03  0.00000000000E+00 0. -1.
          1   -1    0    0  501    0 -0.00000000000E+00 -0.00000000000E+00 -0.93868367717E+03  0.93868367717E+03  0.00000000000E+00 0. -1.
         25    2    1    2    0    0  0.19566968092E+03 -0.17880775127E+01 -0.16543673167E+02  0.23278825738E+03  0.12500743339E+03 0.  0.
          2    1    1    2  501    0  0.32367908107E+02  0.61335004481E+01 -0.79109524486E+03  0.79178089630E+03  0.00000000000E+00 0. -1.
          1    1    1    2  502    0 -0.22803758902E+03 -0.43454229355E+01  0.55338195146E+03  0.59854123410E+03  0.00000000000E+00 0. -1.
         22    1    3    3    0    0  0.14450027584E+03 -0.93937912982E+01 -0.67863961948E+02  0.15991901189E+03  0.00000000000E+00 0.  1.
         22    1    3    3    0    0  0.51169405074E+02  0.76057137855E+01  0.51320288781E+02  0.72869245491E+02  0.00000000000E+00 0.  1.
</event>
<event>
 7    1  0.6507405E-006  0.1411280E+03  0.7818608E-02  0.1282646E+00
          2   -1    0    0  502    0  0.00000000000E+00  0.00000000000E+00  0.79459575695E+03  0.79459575695E+03  0.00000000000E+00 0. -1.
          1   -1    0    0  501    0 -0.00000000000E+00 -0.00000000000E+00 -0.50937659773E+03  0.50937659773E+03  0.00000000000E+00 0. -1.
         25    2    1    2    0    0 -0.56328563508E+02 -0.60377998382E+02 -0.34211300926E+03  0.37348721778E+03  0.12503191986E+03 0.  0.
          2    1    1    2  501    0 -0.23160714864E+01 -0.69255708562E+02 -0.13673080034E+03  0.15328740691E+03  0.00000000000E+00 0. -1.
          1    1    1    2  502    0  0.58644634994E+02  0.12963370694E+03  0.76406296882E+03  0.77719772999E+03  0.00000000000E+00 0. -1.
         22    1    3    3    0    0 -0.64877208946E+02  0.15288265600E+02 -0.10428835471E+03  0.12376931863E+03  0.00000000000E+00 0.  1.
         22    1    3    3    0    0  0.85486454385E+01 -0.75666263982E+02 -0.23782465455E+03  0.24971789915E+03  0.00000000000E+00 0.  1.
</event>
<event>
 7    1  0.6507405E-006  0.7078054E+02  0.7818608E-02  0.1368440E+00
          2   -1    0    0  502    0  0.00000000000E+00  0.00000000000E+00  0.19329332690E+04  0.19329332690E+04  0.00000000000E+00 0. -1.
          1   -1    0    0  501    0 -0.00000000000E+00 -0.00000000000E+00 -0.14501835594E+03  0.14501835594E+03  0.00000000000E+00 0. -1.
         25    2    1    2    0    0  0.11711760241E+03  0.18676033573E+01  0.12458763029E+03  0.21181874317E+03  0.12500032640E+03 0.  0.
          2    1    1    2  501    0 -0.55818335442E+02  0.32454244617E+02 -0.90349460078E+02  0.11104949123E+03  0.00000000000E+00 0. -1.
          1    1    1    2  502    0 -0.61299266968E+02 -0.34321847974E+02  0.17536767428E+04  0.17550833905E+04  0.00000000000E+00 0. -1.
         22    1    3    3    0    0  0.16103315475E+02  0.40026107387E+02  0.87652534331E+02  0.97695306011E+02  0.00000000000E+00 0. -1.
         22    1    3    3    0    0  0.10101428693E+03 -0.38158504030E+02  0.36935095957E+02  0.11412343715E+03  0.00000000000E+00 0. -1.
</event>
<event>
 7    1  0.6507405E-006  0.6486263E+02  0.7818608E-02  0.1486950E+00
          2   -1    0    0  502    0  0.00000000000E+00  0.00000000000E+00  0.20420829914E+04  0.20420829914E+04  0.00000000000E+00 0. -1.
          1   -1    0    0  501    0 -0.00000000000E+00 -0.00000000000E+00 -0.18267103337E+04  0.18267103337E+04  0.00000000000E+00 0. -1.
         25    2    1    2    0    0  0.86913456586E+02  0.21560809214E+02  0.33972709068E+03  0.37290656097E+03  0.12500395853E+03 0.  0.
          2    1    1    2  501    0 -0.58892234955E+02 -0.27092120635E+02 -0.18094191504E+04  0.18105800010E+04  0.00000000000E+00 0. -1.
          1    1    1    2  502    0 -0.28021221631E+02  0.55313114206E+01  0.16850647173E+04  0.16853067631E+04  0.00000000000E+00 0. -1.
         22    1    3    3    0    0  0.48155453083E+01 -0.17156874363E+02  0.22916709500E+03  0.22985888115E+03  0.00000000000E+00 0. -1.
         22    1    3    3    0    0  0.82097911278E+02  0.38717683577E+02  0.11055999568E+03  0.14304767982E+03  0.00000000000E+00 0. -1.
</event>
<event>
 7    1  0.6507405E-006  0.7503704E+02  0.7818608E-02  0.1384951E+00
          2   -1    0    0  502    0  0.00000000000E+00  0.00000000000E+00  0.12617683520E+04  0.12617683520E+04  0.00000000000E+00 0. -1.
          1   -1    0    0  501    0 -0.00000000000E+00 -0.00000000000E+00 -0.11016552401E+04  0.11016552401E+04  0.00000000000E+00 0. -1.
         25    2    1    2    0    0 -0.88368897935E+02 -0.37409490823E+02 -0.10087998426E+04  0.10210345072E+04  0.12500324120E+03 0.  0.
          2    1    1    2  501    0  0.14606677562E+02  0.51152034155E+02 -0.77345851807E+02  0.93873672664E+02  0.00000000000E+00 0. -1.
          1    1    1    2  502    0  0.73762220373E+02 -0.13742543332E+02  0.12462588063E+04  0.12485154123E+04  0.00000000000E+00 0. -1.
         22    1    3    3    0    0 -0.94025899569E+02  0.32076846472E+01 -0.89754304538E+03  0.90246034668E+03  0.00000000000E+00 0. -1.
         22    1    3    3    0    0  0.56570016346E+01 -0.40617175470E+02 -0.11125679720E+03  0.11857416048E+03  0.00000000000E+00 0. -1.
</event>
<event>
 7    1  0.6507405E-006  0.9106569E+02  0.7818608E-02  0.1486666E+00
          2   -1    0    0  502    0  0.00000000000E+00  0.00000000000E+00  0.15659441094E+04  0.15659441094E+04  0.00000000000E+00 0. -1.
          1   -1    0    0  501    0 -0.00000000000E+00 -0.00000000000E+00 -0.20882995852E+03  0.20882995852E+03  0.00000000000E+00 0. -1.
         25    2    1    2    0    0 -0.75578748099E+02  0.10942742340E+02  0.24999025879E+02  0.14860058083E+03  0.12500116222E+03 0.  0.
          2    1    1    2  501    0  0.93674321473E+02 -0.15588516145E+01 -0.13202659973E+03  0.16188987478E+03  0.00000000000E+00 0. -1.
          1    1    1    2  502    0 -0.18095573374E+02 -0.93838907259E+01  0.14641417248E+04  0.14642836123E+04  0.00000000000E+00 0. -1.
         22    1    3    3    0    0 -0.39026091783E+02 -0.39566933042E+02 -0.31995814097E+02  0.64127296449E+02  0.00000000000E+00 0.  1.
         22    1    3    3    0    0 -0.36552656316E+02  0.50509675382E+02  0.56994839976E+02  0.84473284385E+02  0.00000000000E+00 0.  1.
</event>
<event>
 7    1  0.6507405E-006  0.1198206E+03  0.7818608E-02  0.1317071E+00
          2   -1    0    0  502    0  0.00000000000E+00  0.00000000000E+00  0.25182715160E+04  0.25182715160E+04  0.00000000000E+00 0. -1.
          1   -1    0    0  501    0 -0.00000000000E+00 -0.00000000000E+00 -0.12788572168E+04  0.12788572168E+04  0.00000000000E+00 0. -1.
         25    2    1    2    0    0 -0.76297979082E+02 -0.85137469272E+02  0.17109285304E+03  0.24078090907E+03  0.12503164210E+03 0.  0.
          2    1    1    2  501    0  0.49682417898E+02 -0.32588973030E+02 -0.12417273093E+04  0.12431480581E+04  0.00000000000E+00 0. -1.
          1    1    1    2  502    0  0.26615561184E+02  0.11772644230E+03  0.23100487554E+04  0.23131997656E+04  0.00000000000E+00 0. -1.
         22    1    3    3    0    0 -0.11825413559E+02 -0.26185815360E+02 -0.17003851256E+02  0.33386648371E+02  0.00000000000E+00 0.  1.
         22    1    3    3    0    0 -0.64472565524E+02 -0.58951653912E+02  0.18809670430E+03  0.20739426070E+03  0.00000000000E+00 0.  1.
</event>
<event>
 7    1  0.6507405E-006  0.6535862E+02  0.7818608E-02  0.1467030E+00
          2   -1    0    0  502    0  0.00000000000E+00  0.00000000000E+00  0.10600986967E+04  0.10600986967E+04  0.00000000000E+00 0. -1.
          1   -1    0    0  501    0 -0.00000000000E+00 -0.00000000000E+00 -0.83370969177E+03  0.83370969177E+03  0.00000000000E+00 0. -1.
         25    2    1    2    0    0 -0.86312653806E+02  0.32000518324E+02 -0.48908277257E+03  0.51313051517E+03  0.12500823891E+03 0.  0.
          2    1    1    2  501    0  0.55217257261E+02 -0.22055123391E+02 -0.32968877456E+03  0.33500755520E+03  0.00000000000E+00 0. -1.
          1    1    1    2  502    0  0.31095396545E+02 -0.99453949335E+01  0.10451605520E+04  0.10456703181E+04  0.00000000000E+00 0. -1.
         22    1    3    3    0    0 -0.17649009371E+02 -0.44502649119E+02 -0.10276280197E+03  0.11336739734E+03  0.00000000000E+00 0. -1.
         22    1    3    3    0    0 -0.68663644435E+02  0.76503167443E+02 -0.38631997060E+03  0.39976311783E+03  0.00000000000E+00 0. -1.
</event>
<event>
 7    1  0.6507405E-006  0.3161919E+02  0.7818608E-02  0.1648644E+00
          2   -1    0    0  502    0  0.00000000000E+00  0.00000000000E+00  0.56022616167E+03  0.56022616167E+03  0.00000000000E+00 0. -1.
          1   -1    0    0  501    0 -0.00000000000E+00 -0.00000000000E+00 -0.26545744831E+02  0.26545744831E+02  0.00000000000E+00 0. -1.
         25    2    1    2    0    0  0.35412651811E+02 -0.36953359275E+02  0.30241900039E+03  0.33121292232E+03  0.12500056579E+03 0.  0.
          2    1    1    2  501    0 -0.12565049588E+02  0.17058007690E+02 -0.11154309893E+01  0.21215567015E+02  0.00000000000E+00 0. -1.
          1    1    1    2  502    0 -0.22847602223E+02  0.19895351585E+02  0.23237684744E+03  0.23434341717E+03  0.00000000000E+00 0. -1.
         22    1    3    3    0    0  0.53633286140E+02 -0.73367110742E+02  0.24057204141E+03  0.25716564590E+03  0.00000000000E+00 0. -1.
         22    1    3    3    0    0 -0.18220634329E+02  0.36413751467E+02  0.61846958977E+02  0.74047276425E+02  0.00000000000E+00 0. -1.
</event>
<event>
 7    1  0.6507405E-006  0.7070970E+02  0.7818608E-02  0.1515578E+00
          2   -1    0    0  502    0  0.00000000000E+00  0.00000000000E+00  0.26549738020E+04  0.26549738020E+04  0.00000000000E+00 0. -1.
          1   -1    0    0  501    0 -0.00000000000E+00 -0.00000000000E+00 -0.21028386103E+03  0.21028386103E+03  0.00000000000E+00 0. -1.
         25    2    1    2    0    0 -0.81613721937E+02 -0.15998126489E+02  0.14496922864E+04  0.14574458659E+04  0.12499594818E+03 0.  0.
          2    1    1    2  501    0  0.13670349836E+02  0.16631064643E+02 -0.20488195024E+03  0.20600991313E+03  0.00000000000E+00 0. -1.
          1    1    1    2  502    0  0.67943372101E+02 -0.63293815425E+00  0.11998796048E+04  0.12018018840E+04  0.00000000000E+00 0. -1.
         22    1    3    3    0    0  0.32405046183E+02  0.85257514594E+01  0.32082305412E+03  0.32256814398E+03  0.00000000000E+00 0.  1.
         22    1    3    3    0    0 -0.11401876812E+03 -0.24523877948E+02  0.11288692323E+04  0.11348777219E+04  0.00000000000E+00 0.  1.
</event>
<event>
 7    1  0.6507405E-006  0.5587150E+02  0.7818608E-02  0.1429541E+00
          2   -1    0    0  502    0  0.00000000000E+00  0.00000000000E+00  0.82619605410E+03  0.82619605410E+03  0.00000000000E+00 0. -1.
          1   -1    0    0  501    0 -0.00000000000E+00 -0.00000000000E+00 -0.16188580395E+03  0.16188580395E+03  0.00000000000E+00 0. -1.
         25    2    1    2    0    0 -0.58598830817E+02  0.61115836633E+02  0.42739250848E+01  0.15104041955E+03  0.12500389370E+03 0.  0.
          2    1    1    2  501    0  0.40021096062E+01 -0.50215852821E+02 -0.80203232979E+02  0.94711178517E+02  0.00000000000E+00 0. -1.
          1    1    1    2  502    0  0.54596721211E+02 -0.10899983813E+02  0.74023955803E+03  0.74233025999E+03  0.00000000000E+00 0. -1.
         22    1    3    3    0    0 -0.22092237876E+02  0.80164757537E+02 -0.38529342781E+02  0.91645870505E+02  0.00000000000E+00 0.  1.
         22    1    3    3    0    0 -0.36506592941E+02 -0.19048920904E+02  0.42803267866E+02  0.59394549041E+02  0.00000000000E+00 0.  1.
</event>
<event>
 7    1  0.6507405E-006  0.9236900E+02  0.7818608E-02  0.1409864E+00
          2   -1    0    0  502    0  0.00000000000E+00  0.00000000000E+00  0.16376698908E+03  0.16376698908E+03  0.00000000000E+00 0. -1.
          1   -1    0    0  501    0 -0.00000000000E+00 -0.00000000000E+00 -0.10597063199E+04  0.10597063199E+04  0.00000000000E+00 0. -1.
         25    2    1    2    0    0  0.16822365951E+02  0.83048961102E+02 -0.23775366394E+03  0.28165866363E+03  0.12499870457E+03 0.  0.
          2    1    1    2  501    0  0.17367427760E+02 -0.92422738694E+02 -0.79496895682E+03  0.80051185655E+03  0.00000000000E+00 0. -1.
          1    1    1    2  502    0 -0.34189793711E+02  0.93737775914E+01  0.13678328997E+03  0.14130278877E+03  0.00000000000E+00 0. -1.
         22    1    3    3    0    0 -0.17918053062E+02  0.53644540870E+02 -0.21242788301E+02  0.60415639080E+02  0.00000000000E+00 0. -1.
         22    1    3    3    0    0  0.34740419012E+02  0.29404420232E+02 -0.21651087564E+03  0.22124302455E+03  0.00000000000E+00 0. -1.
</event>
<event>
 7    1  0.6507405E-006  0.8759086E+02  0.7818608E-02  0.1371439E+00
          2   -1    0    0  502    0  0.00000000000E+00  0.00000000000E+00  0.25708475642E+04  0.25708475642E+04  0.00000000000E+00 0. -1.
          1   -1    0    0  501    0 -0.00000000000E+00 -0.00000000000E+00 -0.20580073795E+04  0.20580073795E+04  0.00000000000E+00 0. -1.
         25    2    1    2    0    0  0.10671767954E+03 -0.13152721019E+02  0.14489996453E+04  0.14583508510E+04  0.12500230123E+03 0.  0.
          2    1    1    2  501    0 -0.81824972444E+02 -0.31240942267E+02 -0.20518173306E+04  0.20536858769E+04  0.00000000000E+00 0. -1.
          1    1    1    2  502    0 -0.24892707099E+02  0.44393663286E+02  0.11156578701E+04  0.11168182159E+04  0.00000000000E+00 0. -1.
         22    1    3    3    0    0 -0.73949732499E+01  0.19208687941E+02  0.67515530441E+03  0.67546898107E+03  0.00000000000E+00 0.  1.
         22    1    3    3    0    0  0.11411265279E+03 -0.32361408960E+02  0.77384434091E+03  0.78288186993E+03  0.00000000000E+00 0.  1.
</event>
<event>
 7    1  0.6507405E-006  0.2112659E+03  0.7818608E-02  0.1270553E+00
          2   -1    0    0  502    0  0.00000000000E+00  0.00000000000E+00  0.24965204961E+04  0.24965204961E+04  0.00000000000E+00 0. -1.
          1   -1    0    0  501    0 -0.00000000000E+00 -0.00000000000E+00 -0.64955513126E+03  0.64955513126E+03  0.00000000000E+00 0. -1.
         25    2    1    2    0    0 -0.23300016259E+03 -0.44650961382E+02  0.40851018543E+03  0.48866027316E+03  0.12500202738E+03 0.  0.
          2    1    1    2  501    0  0.19469006851E+03  0.79764491451E+02 -0.59098002145E+03  0.62731489909E+03  0.00000000000E+00 0. -1.
          1    1    1    2  502    0  0.38310094075E+02 -0.35113530069E+02  0.20294352009E+04  0.20301004551E+04  0.00000000000E+00 0. -1.
         22    1    3    3    0    0 -0.32662037551E+02  0.10432773443E+02  0.16514188674E+03  0.16866384976E+03  0.00000000000E+00 0. -1.
         22    1    3    3    0    0 -0.20033812504E+03 -0.55083734825E+02  0.24336829869E+03  0.31999642341E+03  0.00000000000E+00 0. -1.
</event>
<event>
 7    1  0.6507405E-006  0.1505472E+03  0.7818608E-02  0.1371654E+00
          2   -1    0    0  502    0  0.00000000000E+00  0.00000000000E+00  0.11181001514E+04  0.11181001514E+04  0.00000000000E+00 0. -1.
          1   -1    0    0  501    0 -0.00000000000E+00 -0.00000000000E+00 -0.11064200926E+04  0.11064200926E+04  0.00000000000E+00 0. -1.
         25    2    1    2    0    0  0.19102608152E+02  0.16885767600E+03 -0.71623153512E+01  0.21107885440E+03  0.12500063853E+03 0.  0.
          2    1    1    2  501    0  0.32586775860E+01 -0.14952469851E+03 -0.99147491545E+03  0.10026917584E+04  0.00000000000E+00 0. -1.
          1    1    1    2  502    0 -0.22361285738E+02 -0.19332977488E+02  0.10103172897E+04  0.10107496312E+04  0.00000000000E+00 0. -1.
         22    1    3    3    0    0  0.36813026128E+01  0.67997087009E+02  0.58474449091E+02  0.89757545795E+02  0.00000000000E+00 0.  1.
         22    1    3    3    0    0  0.15421305539E+02  0.10086058899E+03 -0.65636764442E+02  0.12132130861E+03  0.00000000000E+00 0.  1.
</event>
<event>
 7    1  0.6507405E-006  0.3328404E+03  0.7818608E-02  0.1222889E+00
          2   -1    0    0  502    0  0.00000000000E+00  0.00000000000E+00  0.81967629834E+03  0.81967629834E+03  0.00000000000E+00 0. -1.
          1   -1    0    0  501    0 -0.00000000000E+00 -0.00000000000E+00 -0.25730564710E+04  0.25730564710E+04  0.00000000000E+00 0. -1.
         25    2    1    2    0    0  0.28573917945E+03  0.13585406202E+03 -0.54310325927E+03  0.64085014548E+03  0.12499821557E+03 0.  0.
          2    1    1    2  501    0 -0.28091864299E+03 -0.18888193829E+03 -0.19656750171E+04  0.19946102234E+04  0.00000000000E+00 0. -1.
          1    1    1    2  502    0 -0.48205364538E+01  0.53027876273E+02  0.75539810375E+03  0.75727240038E+03  0.00000000000E+00 0. -1.
         22    1    3    3    0    0  0.17703898989E+03  0.48540187552E+02 -0.40472855867E+03  0.44441440115E+03  0.00000000000E+00 0. -1.
         22    1    3    3    0    0  0.10870018955E+03  0.87313874469E+02 -0.13837470060E+03  0.19643574433E+03  0.00000000000E+00 0. -1.
</event>
<event>
 7    1  0.6507405E-006  0.4865947E+02  0.7818608E-02  0.1542476E+00
          2   -1    0    0  502    0  0.00000000000E+00  0.00000000000E+00  0.22785420069E+04  0.22785420069E+04  0.00000000000E+00 0. -1.
          1   -1    0    0  501    0 -0.00000000000E+00 -0.00000000000E+00 -0.12988264397E+03  0.12988264397E+03  0.00000000000E+00 0. -1.
         25    2    1    2    0    0  0.59654903846E+02  0.32311899759E+02  0.10366904249E+04  0.10464009208E+04  0.12500033429E+03 0.  0.
          2    1    1    2  501    0 -0.13606277082E+02 -0.22379644152E+02 -0.12320180415E+03  0.12595500702E+03  0.00000000000E+00 0. -1.
          1    1    1    2  502    0 -0.46048626764E+02 -0.99322556068E+01  0.12351707421E+04  0.12360687230E+04  0.00000000000E+00 0. -1.
         22    1    3    3    0    0  0.30900435254E+01 -0.45387880733E+02  0.38040558869E+03  0.38311619646E+03  0.00000000000E+00 0. -1.
         22    1    3    3    0    0  0.56564860320E+02  0.77699780492E+02  0.65628483621E+03  0.66328472435E+03  0.00000000000E+00 0. -1.
</event>
<event>
 7    1  0.6507405E-006  0.3203390E+03  0.7818608E-02  0.1164365E+00
          2   -1    0    0  502    0  0.00000000000E+00  0.00000000000E+00  0.59489948600E+03  0.59489948600E+03  0.00000000000E+00 0. -1.
          1   -1    0    0  501    0 -0.00000000000E+00 -0.00000000000E+00 -0.25926792158E+04  0.25926792158E+04  0.00000000000E+00 0. -1.
         25    2    1    2    0    0  0.13277179897E+03  0.17793783861E+03  0.51503189872E+02  0.25993783450E+03  0.12499949690E+03 0.  0.
          2    1    1    2  501    0 -0.19992835202E+03 -0.25894848847E+03 -0.24712200162E+04  0.24927803823E+04  0.00000000000E+00 0. -1.
          1    1    1    2  502    0  0.67156553051E+02  0.81010649854E+02  0.42193709655E+03  0.43486048504E+03  0.00000000000E+00 0. -1.
         22    1    3    3    0    0  0.71578045009E+02  0.81605203525E+02 -0.37887824588E+02  0.11497092251E+03  0.00000000000E+00 0. -1.
         22    1    3    3    0    0  0.61193753959E+02  0.96332635089E+02  0.89391014460E+02  0.14496691199E+03  0.00000000000E+00 0. -1.
</event>
<event>
 7    1  0.6507405E-006  0.7565349E+02  0.7818608E-02  0.1376155E+00
          2   -1    0    0  502    0  0.00000000000E+00  0.00000000000E+00  0.59769350736E+02  0.59769350736E+02  0.00000000000E+00 0. -1.
          1   -1    0    0  501    0 -0.00000000000E+00 -0.00000000000E+00 -0.18360306155E+04  0.18360306155E+04  0.00000000000E+00 0. -1.
         25    2    1    2    0    0 -0.26412962832E+02  0.31530706116E+01 -0.41055011781E+02  0.13423153348E+03  0.12500001651E+03 0.  0.
          2    1    1    2  501    0  0.57803393630E+02 -0.50351617563E+02 -0.16822520231E+04  0.16839977395E+04  0.00000000000E+00 0. -1.
          1    1    1    2  502    0 -0.31390430798E+02  0.47198546951E+02 -0.52954229944E+02  0.77570693235E+02  0.00000000000E+00 0. -1.
         22    1    3    3    0    0 -0.83878611461E+01  0.58890511208E+02 -0.46353486619E+02  0.75412825479E+02  0.00000000000E+00 0. -1.
         22    1    3    3    0    0 -0.18025101686E+02 -0.55737440596E+02  0.52984748384E+01  0.58818707998E+02  0.00000000000E+00 0. -1.
</event>
<event>
 7    1  0.6507405E-006  0.3269618E+02  0.7818608E-02  0.1649770E+00
          2   -1    0    0  502    0  0.00000000000E+00  0.00000000000E+00  0.54643821535E+01  0.54643821535E+01  0.00000000000E+00 0. -1.
          1   -1    0    0  501    0 -0.00000000000E+00 -0.00000000000E+00 -0.25020563342E+04  0.25020563342E+04  0.00000000000E+00 0. -1.
         25    2    1    2    0    0  0.40618082420E+02  0.83004489137E+01 -0.12667494266E+04  0.12735770671E+04  0.12500284017E+03 0.  0.
          2    1    1    2  501    0 -0.16020271471E+02  0.12562377781E+02 -0.10988536032E+04  0.10990421756E+04  0.00000000000E+00 0. -1.
          1    1    1    2  502    0 -0.24597810949E+02 -0.20862826695E+02 -0.13098892225E+03  0.13490147365E+03  0.00000000000E+00 0. -1.
         22    1    3    3    0    0  0.85073688440E+02  0.55572374576E+01 -0.92893477192E+03  0.93283879949E+03  0.00000000000E+00 0. -1.
         22    1    3    3    0    0 -0.44455606019E+02  0.27432114561E+01 -0.33781465470E+03  0.34073826766E+03  0.00000000000E+00 0. -1.
</event>
<event>
 7    1  0.6507405E-006  0.1240753E+03  0.7818608E-02  0.1365026E+00
          2   -1    0    0  502    0  0.00000000000E+00  0.00000000000E+00  0.68973355945E+03  0.68973355945E+03  0.00000000000E+00 0. -1.
          1   -1    0    0  501    0 -0.00000000000E+00 -0.00000000000E+00 -0.18223822912E+04  0.18223822912E+04  0.00000000000E+00 0. -1.
         25    2    1    2    0    0 -0.24749983424E+02  0.15667617311E+03  0.81029000892E+02  0.21759994318E+03  0.12499620550E+03 0.  0.
          2    1    1    2  501    0  0.66072454534E+01 -0.12340684382E+03 -0.17512522542E+04  0.17556074056E+04  0.00000000000E+00 0. -1.
          1    1    1    2  502    0  0.18142737970E+02 -0.33269329289E+02  0.53757452153E+03  0.53890850189E+03  0.00000000000E+00 0. -1.
         22    1    3    3    0    0 -0.39365687963E+02  0.97696458528E+01  0.53964983085E+02  0.67507945963E+02  0.00000000000E+00 0.  1.
         22    1    3    3    0    0  0.14615704539E+02  0.14690652726E+03  0.27064017808E+02  0.15009199722E+03  0.00000000000E+00 0.  1.
</event>
<event>
 7    1  0.6507405E-006  0.4406240E+02  0.7818608E-02  0.1574974E+00
          2   -1    0    0  502    0  0.00000000000E+00  0.00000000000E+00  0.31335002629E+03  0.31335002629E+03  0.00000000000E+00 0. -1.
          1   -1    0    0  501    0 -0.00000000000E+00 -0.00000000000E+00 -0.61152663771E+03  0.61152663771E+03  0.00000000000E+00 0. -1.
         25    2    1    2    0    0 -0.13786190853E+02  0.21997729040E+02  0.13459624991E+03  0.18551273578E+03  0.12499946202E+03 0.  0.
          2    1    1    2  501    0  0.51150832701E+01 -0.43872545952E+02 -0.58432695392E+03  0.58599398755E+03  0.00000000000E+00 0. -1.
          1    1    1    2  502    0  0.86711075828E+01  0.21874816912E+02  0.15155409259E+03  0.15336994068E+03  0.00000000000E+00 0. -1.
         22    1    3    3    0    0  0.41840218520E+02 -0.29858999517E+02  0.49034874699E+02  0.71039303732E+02  0.00000000000E+00 0. -1.
         22    1    3    3    0    0 -0.55626409373E+02  0.51856728557E+02  0.85561375212E+02  0.11447343205E+03  0.00000000000E+00 0. -1.
</event>
<event>
 7    1  0.6507405E-006  0.7964264E+02  0.7818608E-02  0.1468355E+00
          2   -1    0    0  502    0  0.00000000000E+00  0.00000000000E+00  0.11883710518E+04  0.11883710518E+04  0.00000000000E+00 0. -1.
          1   -1    0    0  501    0 -0.00000000000E+00 -0.00000000000E+00 -0.55463774560E+02  0.55463774560E+02  0.00000000000E+00 0. -1.
         25    2    1    2    0    0  0.61178979422E+02 -0.10404525902E+00  0.31759247596E+03  0.34674627395E+03  0.12500047745E+03 0.  0.
          2    1    1    2  501    0 -0.79996127006E+02 -0.18609084901E+02  0.79437411730E+00  0.82135920322E+02  0.00000000000E+00 0. -1.
          1    1    1    2  502    0  0.18817147584E+02  0.18713130160E+02  0.81452042715E+03  0.81495263207E+03  0.00000000000E+00 0. -1.
         22    1    3    3    0    0  0.61673944120E+02  0.46923725411E+02  0.11436525062E+03  0.13814818833E+03  0.00000000000E+00 0.  1.
         22    1    3    3    0    0 -0.49496469755E+00 -0.47027770670E+02  0.20322722534E+03  0.20859808562E+03  0.00000000000E+00 0.  1.
</event>
<event>
 7    1  0.6507405E-006  0.8064228E+02  0.7818608E-02  0.1374623E+00
          2   -1    0    0  502    0  0.00000000000E+00  0.00000000000E+00  0.27994615544E+04  0.27994615544E+04  0.00000000000E+00 0. -1.
          1   -1    0    0  501    0 -0.00000000000E+00 -0.00000000000E+00 -0.55951874183E+03  0.55951874183E+03  0.00000000000E+00 0. -1.
         25    2    1    2    0    0 -0.49456817821E+02  0.94880348432E+02  0.33025546407E+02  0.16782101172E+03  0.12499979164E+03 0.  0.
          2    1    1    2  501    0  0.51892198558E+02 -0.14389470888E+02 -0.49004508695E+03  0.49299497400E+03  0.00000000000E+00 0. -1.
          1    1    1    2  502    0 -0.24353807373E+01 -0.80490877544E+02  0.26969623531E+04  0.26981643105E+04  0.00000000000E+00 0. -1.
         22    1    3    3    0    0 -0.62916610482E+02  0.99808826913E+02  0.63613639562E+02  0.13404102709E+03  0.00000000000E+00 0.  1.
         22    1    3    3    0    0  0.13459792661E+02 -0.49284784808E+01 -0.30588093155E+02  0.33779984628E+02  0.00000000000E+00 0.  1.
</event>
<event>
 7    1  0.6507405E-006  0.6999141E+02  0.7818608E-02  0.1457610E+00
          2   -1    0    0  502    0  0.00000000000E+00  0.00000000000E+00  0.12682118001E+04  0.12682118001E+04  0.00000000000E+00 0. -1.
          1   -1    0    0  501    0 -0.00000000000E+00 -0.00000000000E+00 -0.45985385964E+02  0.45985385964E+02  0.00000000000E+00 0. -1.
         25    2    1    2    0    0  0.89340303298E+01  0.77767856968E+02  0.42437212477E+03  0.44927086450E+03  0.12499981171E+03 0.  0.
          2    1    1    2  501    0  0.27171056929E+02 -0.18082222087E+02 -0.23750987616E+02  0.40365114926E+02  0.00000000000E+00 0. -1.
          1    1    1    2  502    0 -0.36105087259E+02 -0.59685634881E+02  0.82160527701E+03  0.82456120667E+03  0.00000000000E+00 0. -1.
         22    1    3    3    0    0  0.22804278511E+02  0.10741370074E+03  0.36855414042E+03  0.38456454939E+03  0.00000000000E+00 0.  1.
         22    1    3    3    0    0 -0.13870248181E+02 -0.29645843777E+02  0.55817984352E+02  0.64706315109E+02  0.00000000000E+00 0.  1.
</event>
<event>
 7    1  0.6507405E-006  0.7622345E+02  0.7818608E-02  0.1405791E+00
          2   -1    0    0  502    0  0.00000000000E+00  0.00000000000E+00  0.54351477488E+03  0.54351477488E+03  0.00000000000E+00 0. -1.
          1   -1    0    0  501    0 -0.00000000000E+00 -0.00000000000E+00 -0.18879068144E+04  0.18879068144E+04  0.00000000000E+00 0. -1.
         25    2    1    2    0    0  0.80630225968E+02  0.62844369956E+02 -0.47006179549E+02  0.16818253574E+03  0.12500054495E+03 0.  0.
          2    1    1    2  501    0 -0.44210110819E+02  0.35508168253E+01 -0.17770653116E+04  0.17776187060E+04  0.00000000000E+00 0. -1.
          1    1    1    2  502    0 -0.36420115149E+02 -0.66395186781E+02  0.47967945164E+03  0.48562034753E+03  0.00000000000E+00 0. -1.
         22    1    3    3    0    0  0.29496647373E+02 -0.19787328268E+02 -0.60420979685E+02  0.70087697582E+02  0.00000000000E+00 0. -1.
         22    1    3    3    0    0  0.51133578595E+02  0.82631698224E+02  0.13414800136E+02  0.98094838162E+02  0.00000000000E+00 0. -1.
</event>
<event>
 7    1  0.6507405E-006  0.1784547E+03  0.7818608E-02  0.1176286E+00
          2   -1    0    0  502    0  0.00000000000E+00  0.00000000000E+00  0.24897429210E+04  0.24897429210E+04  0.00000000000E+00 0. -1.
          1   -1    0    0  501    0 -0.00000000000E+00 -0.00000000000E+00 -0.84461836236E+03  0.84461836236E+03  0.00000000000E+00 0. -1.
         25    2    1    2    0    0 -0.45922676112E+02 -0.21084819442E+03  0.22394917372E+03  0.33517713948E+03  0.12499851660E+03 0.  0.
          2    1    1    2  501    0  0.15163785357E+03  0.64610609928E+02 -0.77665779366E+03  0.79395585394E+03  0.00000000000E+00 0. -1.
          1    1    1    2  502    0 -0.10571517746E+03  0.14623758449E+03  0.21978331786E+04  0.22052282900E+04  0.00000000000E+00 0. -1.
         22    1    3    3    0    0 -0.74370824309E+02 -0.72239092036E+02  0.64998872110E+02  0.12236976466E+03  0.00000000000E+00 0. -1.
         22    1    3    3    0    0  0.28448148197E+02 -0.13860910239E+03  0.15895030161E+03  0.21280737483E+03  0.00000000000E+00 0. -1.
</event>
<event>
 7    1  0.6507405E-006  0.7633656E+02  0.7818608E-02  0.1398906E+00
          2   -1    0    0  502    0  0.00000000000E+00  0.00000000000E+00  0.64916390072E+02  0.64916390072E+02  0.00000000000E+00 0. -1.
          1   -1    0    0  501    0 -0.00000000000E+00 -0.00000000000E+00 -0.10688682648E+04  0.10688682648E+04  0.00000000000E+00 0. -1.
         25    2    1    2    0    0 -0.47757795157E+02  0.25737268695E+02 -0.24124261308E+03  0.27706907747E+03  0.12500424522E+03 0.  0.
          2    1    1    2  501    0  0.10460245954E+02  0.45574128479E+02 -0.77403520993E+03  0.77544627418E+03  0.00000000000E+00 0. -1.
          1    1    1    2  502    0  0.37297549203E+02 -0.71311397174E+02  0.11325948278E+02  0.81269303232E+02  0.00000000000E+00 0. -1.
         22    1    3    3    0    0  0.15487295706E+02 -0.47146813671E+01 -0.18868671433E+03  0.18937993746E+03  0.00000000000E+00 0.  1.
         22    1    3    3    0    0 -0.63245090864E+02  0.30451950062E+02 -0.52555898759E+02  0.87689140008E+02  0.00000000000E+00 0.  1.
</event>
<event>
 7    1  0.6507405E-006  0.3306624E+02  0.7818608E-02  0.1610708E+00
          2   -1    0    0  502    0  0.00000000000E+00  0.00000000000E+00  0.57045774718E+02  0.57045774718E+02  0.00000000000E+00 0. -1.
          1   -1    0    0  501    0 -0.00000000000E+00 -0.00000000000E+00 -0.14695028101E+04  0.14695028101E+04  0.00000000000E+00 0. -1.
         25    2    1    2    0    0 -0.30149271107E+02 -0.20981300286E+01 -0.25895118047E+03  0.28912675010E+03  0.12500073223E+03 0.  0.
          2    1    1    2  501    0  0.24487755953E+02 -0.22497544608E+02 -0.11914152924E+04  0.11918792676E+04  0.00000000000E+00 0. -1.
          1    1    1    2  502    0  0.56615151541E+01  0.24595674637E+02  0.37909437483E+02  0.45542567066E+02  0.00000000000E+00 0. -1.
         22    1    3    3    0    0  0.14963334583E+02  0.14436517848E+01  0.89068022681E+01  0.17473312192E+02  0.00000000000E+00 0.  1.
         22    1    3    3    0    0 -0.45112605690E+02 -0.35417818134E+01 -0.26785798273E+03  0.27165343790E+03  0.00000000000E+00 0.  1.
</event>
<event>
 7    1  0.6507405E-006  0.7207195E+02  0.7818608E-02  0.1411276E+00
          2   -1    0    0  502    0  0.00000000000E+00  0.00000000000E+00  0.11552379190E+04  0.11552379190E+04  0.00000000000E+00 0. -1.
          1   -1    0    0  501    0 -0.00000000000E+00 -0.00000000000E+00 -0.26071891407E+03  0.26071891407E+03  0.00000000000E+00 0. -1.
         25    2    1    2    0    0  0.81236548401E+02  0.53143529486E+02  0.47666099410E+02  0.16528907572E+03  0.12499923998E+03 0.  0.
          2    1    1    2  501    0 -0.10104708531E+02 -0.43786911732E+02 -0.19816175625E+03  0.20319320957E+03  0.00000000000E+00 0. -1.
          1    1    1    2  502    0 -0.71131839870E+02 -0.93566177533E+01  0.10450146618E+04  0.10474745478E+04  0.00000000000E+00 0. -1.
         22    1    3    3    0    0 -0.21742115006E+02 -0.14347775320E+02 -0.11751113739E+02  0.28577384339E+02  0.00000000000E+00 0.  1.
         22    1    3    3    0    0  0.10297866341E+03  0.67491304806E+02  0.59417213149E+02  0.13671169138E+03  0.00000000000E+00 0.  1.
</event>
<event>
 7    1  0.6507405E-006  0.1116336E+03  0.7818608E-02  0.1322759E+00
          2   -1    0    0  502    0  0.00000000000E+00  0.00000000000E+00  0.18945274074E+04  0.18945274074E+04  0.00000000000E+00 0. -1.
          1   -1    0    0  501    0 -0.00000000000E+00 -0.00000000000E+00 -0.63318621466E+03  0.63318621466E+03  0.00000000000E+00 0. -1.
         25    2    1    2    0    0 -0.96808316606E+02  0.24928890746E+02  0.29709548095E+03  0.33746950214E+03  0.12500656109E+03 0.  0.
          2    1    1    2  501    0  0.10649862886E+03  0.34906163840E+02 -0.60728753337E+03  0.61754234382E+03  0.00000000000E+00 0. -1.
          1    1    1    2  502    0 -0.96903122578E+01 -0.59835054586E+02  0.15715332452E+04  0.15727017761E+04  0.00000000000E+00 0. -1.
         22    1    3    3    0    0 -0.11370323351E+03 -0.15520193563E+02  0.23421073582E+03  0.26081405348E+03  0.00000000000E+00 0.  1.
         22    1    3    3    0    0  0.16894916907E+02  0.40449084309E+02  0.62884745123E+02  0.76655448651E+02  0.00000000000E+00 0.  1.
</event>
<event>
 7    1  0.6507405E-006  0.9444999E+02  0.7818608E-02  0.1461126E+00
          2   -1    0    0  502    0  0.00000000000E+00  0.00000000000E+00  0.21739764048E+04  0.21739764048E+04  0.00000000000E+00 0. -1.
          1   -1    0    0  501    0 -0.00000000000E+00 -0.00000000000E+00 -0.36744294359E+03  0.36744294359E+03  0.00000000000E+00 0. -1.
         25    2    1    2    0    0  0.88916609566E+02 -0.72851734997E+02  0.23345109466E+03  0.28868333451E+03  0.12500046111E+03 0.  0.
          2    1    1    2  501    0 -0.22575875117E+02  0.67930301425E+01 -0.33827081224E+03  0.33909137089E+03  0.00000000000E+00 0. -1.
          1    1    1    2  502    0 -0.66340734449E+02  0.66058704855E+02  0.19113531788E+04  0.19136446429E+04  0.00000000000E+00 0. -1.
         22    1    3    3    0    0  0.46509129693E+02 -0.66274166035E+02  0.23202429937E+03  0.24574507061E+03  0.00000000000E+00 0.  1.
         22    1    3    3    0    0  0.42407479873E+02 -0.65775689622E+01  0.14267952920E+01  0.42938263908E+02  0.00000000000E+00 0.  1.
</event>
<event>
 7    1  0.6507405E-006  0.2060998E+03  0.7818608E-02  0.1372444E+00
          2   -1    0    0  502    0  0.00000000000E+00  0.00000000000E+00  0.92710219449E+02  0.92710219449E+02  0.00000000000E+00 0. -1.
          1   -1    0    0  501    0 -0.00000000000E+00 -0.00000000000E+00 -0.97138560137E+03  0.97138560137E+03  0.00000000000E+00 0. -1.
         25    2    1    2    0    0 -0.38966190631E+02  0.18400832570E+03 -0.93272362169E+02  0.24434148585E+03  0.12500240088E+03 0.  0.
          2    1    1    2  501    0  0.43479248486E+02 -0.20498013404E+03 -0.74624010600E+03  0.77510102323E+03  0.00000000000E+00 0. -1.
          1    1    1    2  502    0 -0.45130578545E+01  0.20971808338E+02 -0.39162913750E+02  0.44653311743E+02  0.00000000000E+00 0. -1.
         22    1    3    3    0    0 -0.25678839509E+00 -0.74991239247E+01  0.17996902944E+02  0.19498495211E+02  0.00000000000E+00 0.  1.
         22    1    3    3    0    0 -0.38709402236E+02  0.19150744962E+03 -0.11126926511E+03  0.22484299064E+03  0.00000000000E+00 0.  1.
</event>
<event>
 7    1  0.6507405E-006  0.2815208E+03  0.7818608E-02  0.1163642E+00
          2   -1    0    0  502    0  0.00000000000E+00  0.00000000000E+00  0.21673366772E+04  0.21673366772E+04  0.00000000000E+00 0. -1.
          1   -1    0    0  501    0 -0.00000000000E+00 -0.00000000000E+00 -0.16396472462E+04  0.16396472462E+04  0.00000000000E+00 0. -1.
         25    2    1    2    0    0 -0.99585416947E+02  0.16315944772E+03  0.97204328939E+03  0.99851448835E+03  0.12499906535E+03 0.  0.
          2    1    1    2  501    0  0.21935169172E+03 -0.17847329993E+03 -0.16109802349E+04  0.16356115678E+04  0.00000000000E+00 0. -1.
          1    1    1    2  502    0 -0.11976627478E+03  0.15313852213E+02  0.11666263765E+04  0.11728578673E+04  0.00000000000E+00 0. -1.
         22    1    3    3    0    0 -0.94177401193E+02  0.43424651301E+02  0.35051744343E+03  0.36553735977E+03  0.00000000000E+00 0. -1.
         22    1    3    3    0    0 -0.54080157545E+01  0.11973479642E+03  0.62152584596E+03  0.63297712858E+03  0.00000000000E+00 0. -1.
</event>
<event>
 7    1  0.6507405E-006  0.7398328E+02  0.7818608E-02  0.1504864E+00
          2   -1    0    0  502    0  0.00000000000E+00  0.00000000000E+00  0.11923546403E+04  0.11923546403E+04  0.00000000000E+00 0. -1.
          1   -1    0    0  501    0 -0.00000000000E+00 -0.00000000000E+00 -0.91183565469E+02  0.91183565469E+02  0.00000000000E+00 0. -1.
         25    2    1    2    0    0  0.55862762246E+02 -0.95307544145E+00  0.77258906175E+02  0.15720899400E+03  0.12499669057E+03 0.  0.
          2    1    1    2  501    0  0.17254296880E+02 -0.13849579349E+02 -0.47459521442E+02  0.52363420291E+02  0.00000000000E+00 0. -1.
          1    1    1    2  502    0 -0.73117059126E+02  0.14802654791E+02  0.10713716901E+04  0.10739657915E+04  0.00000000000E+00 0. -1.
         22    1    3    3    0    0  0.90420445947E+02  0.11369285916E+02  0.78816345427E+02  0.12048706990E+03  0.00000000000E+00 0. -1.
         22    1    3    3    0    0 -0.34557683702E+02 -0.12322361358E+02 -0.15574392520E+01  0.36721924096E+02  0.00000000000E+00 0. -1.
</event>
<event>
 7    1  0.6507405E-006  0.1100712E+03  0.7818608E-02  0.1386028E+00
          2   -1    0    0  502    0  0.00000000000E+00  0.00000000000E+00  0.12801667240E+04  0.12801667240E+04  0.00000000000E+00 0. -1.
          1   -1    0    0  501    0 -0.00000000000E+00 -0.00000000000E+00 -0.10958993798E+03  0.10958993798E+03  0.00000000000E+00 0. -1.
         25    2    1    2    0    0  0.99109064307E+02 -0.46543902416E+02  0.41995830892E+03  0.45162875423E+03  0.12495842884E+03 0.  0.
          2    1    1    2  501    0  0.11495150824E+02  0.34063063639E+02 -0.86483682681E+02  0.93658198611E+02  0.00000000000E+00 0. -1.
          1    1    1    2  502    0 -0.11060421513E+03  0.12480838776E+02  0.83710215980E+03  0.84446970916E+03  0.00000000000E+00 0. -1.
         22    1    3    3    0    0  0.26043156041E+01  0.15773209176E+02  0.22333717653E+03  0.22390862200E+03  0.00000000000E+00 0. -1.
         22    1    3    3    0    0  0.96504748703E+02 -0.62317111591E+02  0.19662113239E+03  0.22772013223E+03  0.00000000000E+00 0. -1.
</event>
<event>
 7    1  0.6507405E-006  0.8193314E+02  0.7818608E-02  0.1441248E+00
          2   -1    0    0  502    0  0.00000000000E+00  0.00000000000E+00  0.12557549934E+04  0.12557549934E+04  0.00000000000E+00 0. -1.
          1   -1    0    0  501    0 -0.00000000000E+00 -0.00000000000E+00 -0.32067789797E+02  0.32067789797E+02  0.00000000000E+00 0. -1.
         25    2    1    2    0    0 -0.87442633393E+02  0.20976391618E+02  0.43866486593E+03  0.46490640649E+03  0.12499951622E+03 0.  0.
          2    1    1    2  501    0  0.80689006685E+02  0.97460999865E+01  0.70179753074E+02  0.10738202832E+03  0.00000000000E+00 0. -1.
          1    1    1    2  502    0  0.67536267080E+01 -0.30722491604E+02  0.71484258461E+03  0.71553434839E+03  0.00000000000E+00 0. -1.
         22    1    3    3    0    0 -0.38356452785E+02 -0.38520081457E+01  0.38865885158E+03  0.39056594623E+03  0.00000000000E+00 0.  1.
         22    1    3    3    0    0 -0.49086180608E+02  0.24828399763E+02  0.50006014343E+02  0.74340460262E+02  0.00000000000E+00 0.  1.
</event>
<event>
 7    1  0.6507405E-006  0.1422834E+03  0.7818608E-02  0.1374564E+00
          2   -1    0    0  502    0  0.00000000000E+00  0.00000000000E+00  0.12574630441E+04  0.12574630441E+04  0.00000000000E+00 0. -1.
          1   -1    0    0  501    0 -0.00000000000E+00 -0.00000000000E+00 -0.25915123627E+03  0.25915123627E+03  0.00000000000E+00 0. -1.
         25    2    1    2    0    0  0.13592951000E+03  0.21695698338E+02 -0.56456321138E+02  0.19434494546E+03  0.12504041992E+03 0.  0.
          2    1    1    2  501    0  0.63833442665E+01 -0.29861156741E+02 -0.12766948296E+03  0.13127045610E+03  0.00000000000E+00 0. -1.
          1    1    1    2  502    0 -0.14231285426E+03  0.81654584028E+01  0.11824376119E+04  0.11909988788E+04  0.00000000000E+00 0. -1.
         22    1    3    3    0    0  0.78931921974E+02  0.24204156039E+02  0.32449347283E+02  0.88707663790E+02  0.00000000000E+00 0.  1.
         22    1    3    3    0    0  0.56997588022E+02 -0.25084577010E+01 -0.88905668421E+02  0.10563728167E+03  0.00000000000E+00 0.  1.
</event>
<event>
 7    1  0.6507405E-006  0.1288327E+03  0.7818608E-02  0.1377430E+00
          2   -1    0    0  502    0  0.00000000000E+00  0.00000000000E+00  0.44811149544E+03  0.44811149544E+03  0.00000000000E+00 0. -1.
          1   -1    0    0  501    0 -0.00000000000E+00 -0.00000000000E+00 -0.24327270433E+04  0.24327270433E+04  0.00000000000E+00 0. -1.
         25    2    1    2    0    0 -0.10879879457E+03  0.10483991808E+03 -0.18094919153E+03  0.26682532413E+03  0.12499823024E+03 0.  0.
          2    1    1    2  501    0  0.32886345308E+02 -0.18791855182E+01 -0.21986166675E+04  0.21988634095E+04  0.00000000000E+00 0. -1.
          1    1    1    2  502    0  0.75912449258E+02 -0.10296073256E+03  0.39495031116E+03  0.41514980511E+03  0.00000000000E+00 0. -1.
         22    1    3    3    0    0 -0.37258179954E+02  0.90629705092E+01 -0.13232511080E+03  0.13776880764E+03  0.00000000000E+00 0. -1.
         22    1    3    3    0    0 -0.71540614612E+02  0.95776947566E+02 -0.48624080724E+02  0.12905651650E+03  0.00000000000E+00 0. -1.
</event>
<event>
 7    1  0.6507405E-006  0.3635816E+02  0.7818608E-02  0.1601055E+00
          2   -1    0    0  502    0  0.00000000000E+00  0.00000000000E+00  0.19239117440E+04  0.19239117440E+04  0.00000000000E+00 0. -1.
          1   -1    0    0  501    0 -0.00000000000E+00 -0.00000000000E+00 -0.23870464463E+03  0.23870464463E+03  0.00000000000E+00 0. -1.
         25    2    1    2    0    0 -0.40928712298E+02  0.44747746409E+02 -0.15745666487E+03  0.20998645105E+03  0.12499675201E+03 0.  0.
          2    1    1    2  501    0  0.16770016418E+02 -0.17607370863E+02 -0.52112024059E+02  0.57505791107E+02  0.00000000000E+00 0. -1.
          1    1    1    2  502    0  0.24158695880E+02 -0.27140375546E+02  0.18947757883E+04  0.18951241465E+04  0.00000000000E+00 0. -1.
         22    1    3    3    0    0  0.10840795251E+02  0.76678576488E+02 -0.77915220868E+02  0.10985403305E+03  0.00000000000E+00 0. -1.
         22    1    3    3    0    0 -0.51769507549E+02 -0.31930830079E+02 -0.79541444006E+02  0.10013241801E+03  0.00000000000E+00 0. -1.
</event>
<event>
 7    1  0.6507405E-006  0.1296833E+03  0.7818608E-02  0.1346889E+00
          2   -1    0    0  502    0  0.00000000000E+00  0.00000000000E+00  0.31264004840E+04  0.31264004840E+04  0.00000000000E+00 0. -1.
          1   -1    0    0  501    0 -0.00000000000E+00 -0.00000000000E+00 -0.12055637367E+03  0.12055637367E+03  0.00000000000E+00 0. -1.
         25    2    1    2    0    0 -0.15529590568E+03 -0.22428315722E+02  0.75129239104E+02  0.21421954177E+03  0.12500304732E+03 0.  0.
          2    1    1    2  501    0  0.11715524371E+03  0.42190151199E+01  0.16698531759E+02  0.11841449312E+03  0.00000000000E+00 0. -1.
          1    1    1    2  502    0  0.38140661970E+02  0.18209300602E+02  0.29140163395E+04  0.29143228228E+04  0.00000000000E+00 0. -1.
         22    1    3    3    0    0 -0.99865611723E+02 -0.13948096338E+02 -0.20936245113E+02  0.10298551430E+03  0.00000000000E+00 0.  1.
         22    1    3    3    0    0 -0.55430293960E+02 -0.84802193837E+01  0.96065484217E+02  0.11123402747E+03  0.00000000000E+00 0.  1.
</event>
<event>
 7    1  0.6507405E-006  0.9157834E+02  0.7818608E-02  0.1334592E+00
          2   -1    0    0  502    0  0.00000000000E+00  0.00000000000E+00  0.37093564873E+03  0.37093564873E+03  0.00000000000E+00 0. -1.
          1   -1    0    0  501    0 -0.00000000000E+00 -0.00000000000E+00 -0.10692024005E+04  0.10692024005E+04  0.00000000000E+00 0. -1.
         25    2    1    2    0    0 -0.13159197765E+02 -0.13109140666E+03 -0.45854590751E+02  0.18729386408E+03  0.12497290364E+03 0.  0.
          2    1    1    2  501    0 -0.36268364556E+02  0.55822846025E+02 -0.94467823022E+03  0.94702087783E+03  0.00000000000E+00 0. -1.
          1    1    1    2  502    0  0.49427562321E+02  0.75268560632E+02  0.29226606916E+03  0.30582330735E+03  0.00000000000E+00 0. -1.
         22    1    3    3    0    0 -0.19833719743E+02 -0.14273518144E+03 -0.48930481976E+01  0.14418963340E+03  0.00000000000E+00 0.  1.
         22    1    3    3    0    0  0.66745219774E+01  0.11643774780E+02 -0.40961542553E+02  0.43104230687E+02  0.00000000000E+00 0.  1.
</event>
<event>
 7    1  0.6507405E-006  0.5087212E+02  0.7818608E-02  0.1449718E+00
          2   -1    0    0  502    0  0.00000000000E+00  0.00000000000E+00  0.36774799746E+03  0.36774799746E+03  0.00000000000E+00 0. -1.
          1   -1    0    0  501    0 -0.00000000000E+00 -0.00000000000E+00 -0.16093780035E+04  0.16093780035E+04  0.00000000000E+00 0. -1.
         25    2    1    2    0    0  0.54490840084E+02 -0.91483682116E+01 -0.66741441235E+03  0.68126361759E+03  0.12500069817E+03 0.  0.
          2    1    1    2  501    0 -0.17570858666E+02  0.44215032460E+02 -0.93263313783E+03  0.93384595837E+03  0.00000000000E+00 0. -1.
          1    1    1    2  502    0 -0.36919981418E+02 -0.35066664248E+02  0.35841754418E+03  0.36201642496E+03  0.00000000000E+00 0. -1.
         22    1    3    3    0    0  0.85963884321E+02 -0.37949064718E+02 -0.46643251747E+03  0.47580375605E+03  0.00000000000E+00 0.  1.
         22    1    3    3    0    0 -0.31473044237E+02  0.28800696506E+02 -0.20098189489E+03  0.20545986154E+03  0.00000000000E+00 0.  1.
</event>
<event>
 7    1  0.6507405E-006  0.6098893E+02  0.7818608E-02  0.1533208E+00
          2   -1    0    0  502    0  0.00000000000E+00  0.00000000000E+00  0.44317952774E+03  0.44317952774E+03  0.00000000000E+00 0. -1.
          1   -1    0    0  501    0 -0.00000000000E+00 -0.00000000000E+00 -0.10748759946E+04  0.10748759946E+04  0.00000000000E+00 0. -1.
         25    2    1    2    0    0 -0.76608086391E+02 -0.25924494296E+02 -0.80038758561E+03  0.81411667915E+03  0.12499920710E+03 0.  0.
          2    1    1    2  501    0  0.22153583388E+02 -0.14289325426E+01 -0.26502976914E+03  0.26595789448E+03  0.00000000000E+00 0. -1.
          1    1    1    2  502    0  0.54454503003E+02  0.27353426838E+02  0.43372088788E+03  0.43798094871E+03  0.00000000000E+00 0. -1.
         22    1    3    3    0    0 -0.76487758138E+01  0.36572345308E+02 -0.45105033067E+03  0.45259522866E+03  0.00000000000E+00 0.  1.
         22    1    3    3    0    0 -0.68959310577E+02 -0.62496839604E+02 -0.34933725494E+03  0.36152145049E+03  0.00000000000E+00 0.  1.
</event>
<event>
 7    1  0.6507405E-006  0.5570213E+02  0.7818608E-02  0.1444718E+00
          2   -1    0    0  502    0  0.00000000000E+00  0.00000000000E+00  0.15970158130E+03  0.15970158130E+03  0.00000000000E+00 0. -1.
          1   -1    0    0  501    0 -0.00000000000E+00 -0.00000000000E+00 -0.10798249708E+04  0.10798249708E+04  0.00000000000E+00 0. -1.
         25    2    1    2    0    0 -0.89625443158E+02 -0.39381332806E+02 -0.37374378049E+03  0.40606474327E+03  0.12498221009E+03 0.  0.
          2    1    1    2  501    0  0.49811629830E+02  0.18216434434E+02 -0.68532966188E+03  0.68737892199E+03  0.00000000000E+00 0. -1.
          1    1    1    2  502    0  0.39813813328E+02  0.21164898372E+02  0.13895005283E+03  0.14608288687E+03  0.00000000000E+00 0. -1.
         22    1    3    3    0    0 -0.89410078874E+02 -0.47632303881E+02 -0.38151014913E+03  0.39473154481E+03  0.00000000000E+00 0. -1.
         22    1    3    3    0    0 -0.21536428435E+00  0.82509710749E+01  0.77663686428E+01  0.11333198461E+02  0.00000000000E+00 0. -1.
</event>
<event>
 7    1  0.6507405E-006  0.4436353E+02  0.7818608E-02  0.1522697E+00
          2   -1    0    0  502    0  0.00000000000E+00  0.00000000000E+00  0.94751632819E+03  0.94751632819E+03  0.00000000000E+00 0. -1.
          1   -1    0    0  501    0 -0.00000000000E+00 -0.00000000000E+00 -0.11265578918E+04  0.11265578918E+04  0.00000000000E+00 0. -1.
         25    2    1    2    0    0 -0.57164448240E+02 -0.49188147443E+02 -0.56838853190E+02  0.15666474982E+03  0.12500376240E+03 0.  0.
          2    1    1    2  501    0  0.28295215795E+02  0.33795353974E+02 -0.10190314200E+04  0.10199842058E+04  0.00000000000E+00 0. -1.
          1    1    1    2  502    0  0.28869232444E+02  0.15392793469E+02  0.89682870960E+03  0.89742526432E+03  0.00000000000E+00 0. -1.
         22    1    3    3    0    0 -0.21121079024E+02  0.26602663313E+02  0.22846477642E+02  0.40936086955E+02  0.00000000000E+00 0.  1.
         22    1    3    3    0    0 -0.36043369215E+02 -0.75790810756E+02 -0.79685330833E+02  0.11572866287E+03  0.00000000000E+00 0.  1.
</event>
<event>
 7    1  0.6507405E-006  0.5677854E+02  0.7818608E-02  0.1481869E+00
          2   -1    0    0  502    0  0.00000000000E+00  0.00000000000E+00  0.17565966790E+03  0.17565966790E+03  0.00000000000E+00 0. -1.
          1   -1    0    0  501    0 -0.00000000000E+00 -0.00000000000E+00 -0.21747470899E+03  0.21747470899E+03  0.00000000000E+00 0. -1.
         25    2    1    2    0    0 -0.25777533344E+02 -0.40390582743E+02  0.62992329789E+02  0.14794939018E+03  0.12500043218E+03 0.  0.
          2    1    1    2  501    0  0.53573913862E+02  0.21136723011E+02 -0.16576072356E+03  0.17548089007E+03  0.00000000000E+00 0. -1.
          1    1    1    2  502    0 -0.27796380518E+02  0.19253859732E+02  0.60953352681E+02  0.69704096634E+02  0.00000000000E+00 0. -1.
         22    1    3    3    0    0  0.22587126174E+02 -0.51667219450E+02  0.77837326306E+02  0.96116227563E+02  0.00000000000E+00 0.  1.
         22    1    3    3    0    0 -0.48364659517E+02  0.11276636708E+02 -0.14844996517E+02  0.51833162621E+02  0.00000000000E+00 0.  1.
</event>
<event>
 7    1  0.6507405E-006  0.1655408E+03  0.7818608E-02  0.1402256E+00
          2   -1    0    0  502    0  0.00000000000E+00  0.00000000000E+00  0.30539879692E+03  0.30539879692E+03  0.00000000000E+00 0. -1.
          1   -1    0    0  501    0 -0.00000000000E+00 -0.00000000000E+00 -0.22614551805E+04  0.22614551805E+04  0.00000000000E+00 0. -1.
         25    2    1    2    0    0 -0.14931784195E+03  0.48710897528E+01 -0.40713838009E+03  0.45133899621E+03  0.12500273404E+03 0.  0.
          2    1    1    2  501    0  0.16835665455E+03  0.39864472333E+01 -0.18279515533E+04  0.18356924405E+04  0.00000000000E+00 0. -1.
          1    1    1    2  502    0 -0.19038812595E+02 -0.88575369860E+01  0.27903354983E+03  0.27982254069E+03  0.00000000000E+00 0. -1.
         22    1    3    3    0    0  0.44936276624E+01 -0.34869366818E+02 -0.59270564433E+02  0.68913461966E+02  0.00000000000E+00 0. -1.
         22    1    3    3    0    0 -0.15381146961E+03  0.39740456571E+02 -0.34786781565E+03  0.38242553424E+03  0.00000000000E+00 0. -1.
</event>
<event>
 7    1  0.6507405E-006  0.8447283E+02  0.7818608E-02  0.1421626E+00
          2   -1    0    0  502    0  0.00000000000E+00  0.00000000000E+00  0.71029259343E+03  0.71029259343E+03  0.00000000000E+00 0. -1.
          1   -1    0    0  501    0 -0.00000000000E+00 -0.00000000000E+00 -0.12287213227E+04  0.12287213227E+04  0.00000000000E+00 0. -1.
         25    2    1    2    0    0  0.22598130365E+02  0.98650493084E+02 -0.26252333663E+02  0.16296155597E+03  0.12499875367E+03 0.  0.
          2    1    1    2  501    0  0.94739086351E+01 -0.83682927279E+02 -0.11320612113E+04  0.11351894879E+04  0.00000000000E+00 0. -1.
          1    1    1    2  502    0 -0.32072039001E+02 -0.14967565805E+02  0.63988481569E+03  0.64086287228E+03  0.00000000000E+00 0. -1.
         22    1    3    3    0    0 -0.48191484755E+02  0.21430717298E+02 -0.24586898913E+02  0.58191154353E+02  0.00000000000E+00 0.  1.
         22    1    3    3    0    0  0.70789615120E+02  0.77219775786E+02 -0.16654347499E+01  0.10477040161E+03  0.00000000000E+00 0.  1.
</event>
<event>
 7    1  0.6507405E-006  0.1086934E+03  0.7818608E-02  0.1454825E+00
          2   -1    0    0  502    0  0.00000000000E+00  0.00000000000E+00  0.73377367537E+02  0.73377367537E+02  0.00000000000E+00 0. -1.
          1   -1    0    0  501    0 -0.00000000000E+00 -0.00000000000E+00 -0.16460025643E+04  0.16460025643E+04  0.00000000000E+00 0. -1.
         25    2    1    2    0    0  0.46272121019E+02 -0.80008102393E+02 -0.20421581994E+03  0.25665405736E+03  0.12499919364E+03 0.  0.
          2    1    1    2  501    0  0.14138887379E+02 -0.16128592739E+02 -0.13470152470E+04  0.13471859988E+04  0.00000000000E+00 0. -1.
          1    1    1    2  502    0 -0.60411008398E+02  0.96136695132E+02 -0.21394129818E+02  0.11553987570E+03  0.00000000000E+00 0. -1.
         22    1    3    3    0    0 -0.10223727655E+02 -0.81703960372E+02 -0.17414668623E+03  0.19263211070E+03  0.00000000000E+00 0.  1.
         22    1    3    3    0    0  0.56495848675E+02  0.16958579788E+01 -0.30069133711E+02  0.64021946658E+02  0.00000000000E+00 0.  1.
</event>
<event>
 7    1  0.6507405E-006  0.1032186E+03  0.7818608E-02  0.1296817E+00
          2   -1    0    0  502    0  0.00000000000E+00  0.00000000000E+00  0.67790327755E+03  0.67790327755E+03  0.00000000000E+00 0. -1.
          1   -1    0    0  501    0 -0.00000000000E+00 -0.00000000000E+00 -0.27515252531E+04  0.27515252531E+04  0.00000000000E+00 0. -1.
         25    2    1    2    0    0 -0.82618410975E+02  0.15014404272E+03 -0.17307344480E+03  0.27376481199E+03  0.12499487826E+03 0.  0.
          2    1    1    2  501    0  0.58697705976E+01 -0.82756568757E+02 -0.25232642601E+04  0.25246278202E+04  0.00000000000E+00 0. -1.
          1    1    1    2  502    0  0.76748640377E+02 -0.67387473966E+02  0.62271572943E+03  0.63103589845E+03  0.00000000000E+00 0. -1.
         22    1    3    3    0    0 -0.97540959527E+02  0.89739061924E+02 -0.16403545924E+03  0.21089089575E+03  0.00000000000E+00 0.  1.
         22    1    3    3    0    0  0.14922548553E+02  0.60404980798E+02 -0.90379855605E+01  0.62873916242E+02  0.00000000000E+00 0.  1.
</event>
<event>
 7    1  0.6507405E-006  0.1564936E+03  0.7818608E-02  0.1315102E+00
          2   -1    0    0  502    0  0.00000000000E+00  0.00000000000E+00  0.99858527569E+03  0.99858527569E+03  0.00000000000E+00 0. -1.
          1   -1    0    0  501    0 -0.00000000000E+00 -0.00000000000E+00 -0.73667082130E+03  0.73667082130E+03  0.00000000000E+00 0. -1.
         25    2    1    2    0    0  0.16102867652E+03  0.91499128580E+02 -0.25634504495E+02  0.22490686198E+03  0.12499457408E+03 0.  0.
          2    1    1    2  501    0 -0.11582357326E+03 -0.10153469723E+03 -0.60108689468E+03  0.62050773550E+03  0.00000000000E+00 0. -1.
          1    1    1    2  502    0 -0.45205103258E+02  0.10035568646E+02  0.88863585357E+03  0.88984149951E+03  0.00000000000E+00 0. -1.
         22    1    3    3    0    0  0.11292064491E+03  0.37502216491E+02 -0.71931286178E+02  0.13903811787E+03  0.00000000000E+00 0.  1.
         22    1    3    3    0    0  0.48108031613E+02  0.53996912089E+02  0.46296781684E+02  0.85868744110E+02  0.00000000000E+00 0.  1.
</event>
<event>
 7    1  0.6507405E-006  0.5196258E+02  0.7818608E-02  0.1466699E+00
          2   -1    0    0  502    0  0.00000000000E+00  0.00000000000E+00  0.22214683688E+03  0.22214683688E+03  0.00000000000E+00 0. -1.
          1   -1    0    0  501    0 -0.00000000000E+00 -0.00000000000E+00 -0.22454179890E+03  0.22454179890E+03  0.00000000000E+00 0. -1.
         25    2    1    2    0    0 -0.88708902846E+02  0.17406216520E+01  0.23886029384E+02  0.15513585280E+03  0.12499716484E+03 0.  0.
          2    1    1    2  501    0  0.40315261601E+02  0.83028879039E+01 -0.15146857787E+03  0.15696174167E+03  0.00000000000E+00 0. -1.
          1    1    1    2  502    0  0.48393641245E+02 -0.10043509556E+02  0.12518758647E+03  0.13459104132E+03  0.00000000000E+00 0. -1.
         22    1    3    3    0    0 -0.30451388556E+02  0.14526268256E+02 -0.49914098392E+02  0.60247130660E+02  0.00000000000E+00 0. -1.
         22    1    3    3    0    0 -0.58257514290E+02 -0.12785646604E+02  0.73800127776E+02  0.94888722144E+02  0.00000000000E+00 0. -1.
</event>
<event>
 7    1  0.6507405E-006  0.1564102E+03  0.7818608E-02  0.1282737E+00
          2   -1    0    0  502    0  0.00000000000E+00  0.00000000000E+00  0.11051932364E+03  0.11051932364E+03  0.00000000000E+00 0. -1.
          1   -1    0    0  501    0 -0.00000000000E+00 -0.00000000000E+00 -0.86440916758E+03  0.86440916758E+03  0.00000000000E+00 0. -1.
         25    2    1    2    0    0  0.11108137600E+03 -0.62742882168E+02 -0.22120276145E+03  0.28430842768E+03  0.12499951609E+03 0.  0.
          2    1    1    2  501    0 -0.16602101718E+03  0.33008630036E+02 -0.58508860769E+03  0.60908228233E+03  0.00000000000E+00 0. -1.
          1    1    1    2  502    0  0.54939641181E+02  0.29734252132E+02  0.52401525185E+02  0.81537781210E+02  0.00000000000E+00 0. -1.
         22    1    3    3    0    0 -0.17753464297E+02  0.17726881039E+02 -0.19339820623E+02  0.31677381010E+02  0.00000000000E+00 0. -1.
         22    1    3    3    0    0  0.12883484029E+03 -0.80469763208E+02 -0.20186294082E+03  0.25263104667E+03  0.00000000000E+00 0. -1.
</event>
<event>
 7    1  0.6507405E-006  0.5526077E+02  0.7818608E-02  0.1442188E+00
          2   -1    0    0  502    0  0.00000000000E+00  0.00000000000E+00  0.20493458328E+03  0.20493458328E+03  0.00000000000E+00 0. -1.
          1   -1    0    0  501    0 -0.00000000000E+00 -0.00000000000E+00 -0.54409282993E+03  0.54409282993E+03  0.00000000000E+00 0. -1.
         25    2    1    2    0    0 -0.94257795821E+02 -0.21179944079E+02  0.54084750501E+02  0.16698455929E+03  0.12500224278E+03 0.  0.
          2    1    1    2  501    0  0.45186549909E+02  0.10151685967E+02 -0.47974854174E+03  0.48197877995E+03  0.00000000000E+00 0. -1.
          1    1    1    2  502    0  0.49071245912E+02  0.11028258112E+02  0.86505544600E+02  0.10006407397E+03  0.00000000000E+00 0. -1.
         22    1    3    3    0    0 -0.83132605264E+02 -0.66539154368E+02  0.55864666426E+02  0.12024703770E+03  0.00000000000E+00 0. -1.
         22    1    3    3    0    0 -0.11125190557E+02  0.45359210289E+02 -0.17799159247E+01  0.46737521583E+02  0.00000000000E+00 0. -1.
</event>
<event>
 7    1  0.6507405E-006  0.2526647E+03  0.7818608E-02  0.1213767E+00
          2   -1    0    0  502    0  0.00000000000E+00  0.00000000000E+00  0.40688264595E+03  0.40688264595E+03  0.00000000000E+00 0. -1.
          1   -1    0    0  501    0 -0.00000000000E+00 -0.00000000000E+00 -0.44758096971E+03  0.44758096971E+03  0.00000000000E+00 0. -1.
         25    2    1    2    0    0  0.21542620697E+03 -0.13348537193E+03  0.10924352641E+03  0.30296271969E+03  0.12500186514E+03 0.  0.
          2    1    1    2  501    0 -0.47013383176E+02 -0.61250203181E+02 -0.26020877789E+03  0.27142301612E+03  0.00000000000E+00 0. -1.
          1    1    1    2  502    0 -0.16841282379E+03  0.19473557511E+03  0.11026692773E+03  0.28007787985E+03  0.00000000000E+00 0. -1.
         22    1    3    3    0    0  0.80766882090E+02  0.11834823854E+02  0.51824724727E+02  0.96691025392E+02  0.00000000000E+00 0.  1.
         22    1    3    3    0    0  0.13465932488E+03 -0.14532019579E+03  0.57418801687E+02  0.20627169430E+03  0.00000000000E+00 0.  1.
</event>
<event>
 7    1  0.6507405E-006  0.1768615E+03  0.7818608E-02  0.1197523E+00
          2   -1    0    0  502    0  0.00000000000E+00  0.00000000000E+00  0.98992098210E+03  0.98992098210E+03  0.00000000000E+00 0. -1.
          1   -1    0    0  501    0 -0.00000000000E+00 -0.00000000000E+00 -0.13754959325E+04  0.13754959325E+04  0.00000000000E+00 0. -1.
         25    2    1    2    0    0  0.23640362497E+03  0.16693201562E+02  0.34605763812E+03  0.43766083635E+03  0.12500312755E+03 0.  0.
          2    1    1    2  501    0 -0.10120864327E+03  0.83749201142E+02 -0.13144975224E+04  0.13210453643E+04  0.00000000000E+00 0. -1.
          1    1    1    2  502    0 -0.13519498170E+03 -0.10044240270E+03  0.58286493385E+03  0.60671071397E+03  0.00000000000E+00 0. -1.
         22    1    3    3    0    0  0.57209169110E+02 -0.50598476305E+02  0.10542131423E+03  0.13017967710E+03  0.00000000000E+00 0. -1.
         22    1    3    3    0    0  0.17919445586E+03  0.67291677867E+02  0.24063632389E+03  0.30748115925E+03  0.00000000000E+00 0. -1.
</event>
<event>
 7    1  0.6507405E-006  0.7346555E+02  0.7818608E-02  0.1359969E+00
          2   -1    0    0  502    0  0.00000000000E+00  0.00000000000E+00  0.68904201901E+03  0.68904201901E+03  0.00000000000E+00 0. -1.
          1   -1    0    0  501    0 -0.00000000000E+00 -0.00000000000E+00 -0.44383480136E+03  0.44383480136E+03  0.00000000000E+00 0. -1.
         25    2    1    2    0    0 -0.41411209660E+02  0.12317671323E+02 -0.18027027050E+03  0.22358464167E+03  0.12500443293E+03 0.  0.
          2    1    1    2  501    0  0.54593931463E+02  0.59955440048E+02 -0.23301161948E+03  0.24671758543E+03  0.00000000000E+00 0. -1.
          1    1    1    2  502    0 -0.13182721802E+02 -0.72273111372E+02  0.65848910763E+03  0.66257459328E+03  0.00000000000E+00 0. -1.
         22    1    3    3    0    0  0.35552418902E+02 -0.26643891364E+02 -0.78245374364E+02  0.89978942238E+02  0.00000000000E+00 0.  1.
         22    1    3    3    0    0 -0.76963628563E+02  0.38961562687E+02 -0.10202489614E+03  0.13360569943E+03  0.00000000000E+00 0.  1.
</event>
<event>
 7    1  0.6507405E-006  0.2787453E+03  0.7818608E-02  0.1165514E+00
          2   -1    0    0  502    0  0.00000000000E+00  0.00000000000E+00  0.21012989823E+04  0.21012989823E+04  0.00000000000E+00 0. -1.
          1   -1    0    0  501    0 -0.00000000000E+00 -0.00000000000E+00 -0.17496459481E+03  0.17496459481E+03  0.00000000000E+00 0. -1.
         25    2    1    2    0    0 -0.16897208744E+02  0.20232384441E+03  0.46427673422E+03  0.52191813300E+03  0.12500079174E+03 0.  0.
          2    1    1    2  501    0  0.37974990076E+01  0.11927602658E+03 -0.10232209520E+03  0.15719733675E+03  0.00000000000E+00 0. -1.
          1    1    1    2  502    0  0.13099709736E+02 -0.32159987099E+03  0.15643797485E+04  0.15971481074E+04  0.00000000000E+00 0. -1.
         22    1    3    3    0    0 -0.22065910005E+02  0.10460452309E+02  0.61083179027E+01  0.25172147196E+02  0.00000000000E+00 0. -1.
         22    1    3    3    0    0  0.51687012605E+01  0.19186339210E+03  0.45816841632E+03  0.49674598580E+03  0.00000000000E+00 0. -1.
</event>
<event>
 7    1  0.6507405E-006  0.8768762E+02  0.7818608E-02  0.1429491E+00
          2   -1    0    0  502    0  0.00000000000E+00  0.00000000000E+00  0.33140368041E+03  0.33140368041E+03  0.00000000000E+00 0. -1.
          1   -1    0    0  501    0 -0.00000000000E+00 -0.00000000000E+00 -0.10112473204E+03  0.10112473204E+03  0.00000000000E+00 0. -1.
         25    2    1    2    0    0  0.97587054527E+02  0.26931785668E+02  0.11010942977E+03  0.19492827537E+03  0.12499756687E+03 0.  0.
          2    1    1    2  501    0 -0.12413125257E+02 -0.29613191441E+02 -0.42912603510E+02  0.53595879749E+02  0.00000000000E+00 0. -1.
          1    1    1    2  502    0 -0.85173929270E+02  0.26814057734E+01  0.16308212211E+03  0.18400425733E+03  0.00000000000E+00 0. -1.
         22    1    3    3    0    0  0.39590390589E+02  0.57831818621E+02  0.10853264845E+03  0.12919463631E+03  0.00000000000E+00 0.  1.
         22    1    3    3    0    0  0.57996663938E+02 -0.30900032953E+02  0.15767813194E+01  0.65733639058E+02  0.00000000000E+00 0.  1.
</event>
<event>
 7    1  0.6507405E-006  0.9961690E+02  0.7818608E-02  0.1299140E+00
          2   -1    0    0  502    0  0.00000000000E+00  0.00000000000E+00  0.35805768467E+02  0.35805768467E+02  0.00000000000E+00 0. -1.
          1   -1    0    0  501    0 -0.00000000000E+00 -0.00000000000E+00 -0.17585220398E+04  0.17585220398E+04  0.00000000000E+00 0. -1.
         25    2    1    2    0    0  0.56336620429E+02  0.32593686379E+02 -0.34727828860E+03  0.37478390142E+03  0.12499839933E+03 0.  0.
          2    1    1    2  501    0  0.26157510159E+02 -0.96121341248E+02 -0.12606067154E+04  0.12645366022E+04  0.00000000000E+00 0. -1.
          1    1    1    2  502    0 -0.82494130588E+02  0.63527654869E+02 -0.11483126734E+03  0.15500730458E+03  0.00000000000E+00 0. -1.
         22    1    3    3    0    0  0.70200481721E+02  0.28545444314E+02 -0.92423046595E+02  0.11951974551E+03  0.00000000000E+00 0. -1.
         22    1    3    3    0    0 -0.13863861292E+02  0.40482420656E+01 -0.25485524201E+03  0.25526415591E+03  0.00000000000E+00 0. -1.
</event>
<event>
 7    1  0.6507405E-006  0.1133407E+03  0.7818608E-02  0.1335860E+00
          2   -1    0    0  502    0  0.00000000000E+00  0.00000000000E+00  0.12594153049E+04  0.12594153049E+04  0.00000000000E+00 0. -1.
          1   -1    0    0  501    0 -0.00000000000E+00 -0.00000000000E+00 -0.60808627308E+02  0.60808627308E+02  0.00000000000E+00 0. -1.
         25    2    1    2    0    0 -0.88784263428E+02  0.13612873648E+03  0.23249835968E+03  0.30999025454E+03  0.12499916932E+03 0.  0.
          2    1    1    2  501    0  0.27953417452E+02 -0.45259889197E+02  0.18476710317E+02  0.56313763340E+02  0.00000000000E+00 0. -1.
          1    1    1    2  502    0  0.60830845977E+02 -0.90868847281E+02  0.94763160756E+03  0.95391991429E+03  0.00000000000E+00 0. -1.
         22    1    3    3    0    0 -0.11556034001E+03  0.75362132202E+02  0.16838722122E+03  0.21768761890E+03  0.00000000000E+00 0.  1.
         22    1    3    3    0    0  0.26776076579E+02  0.60766604276E+02  0.64111138461E+02  0.92302635644E+02  0.00000000000E+00 0.  1.
</event>
<event>
 7    1  0.6507405E-006  0.1203607E+03  0.7818608E-02  0.1322795E+00
          2   -1    0    0  502    0  0.00000000000E+00  0.00000000000E+00  0.45522300731E+03  0.45522300731E+03  0.00000000000E+00 0. -1.
          1   -1    0    0  501    0 -0.00000000000E+00 -0.00000000000E+00 -0.51953611869E+03  0.51953611869E+03  0.00000000000E+00 0. -1.
         25    2    1    2    0    0  0.43018247417E+02 -0.11765967422E+03  0.62244193612E+01  0.17708241439E+03  0.12500027816E+03 0.  0.
          2    1    1    2  501    0 -0.87617011253E+02  0.83460505704E+02 -0.42340742026E+03  0.44035921724E+03  0.00000000000E+00 0. -1.
          1    1    1    2  502    0  0.44598763836E+02  0.34199168519E+02  0.35286988951E+03  0.35731749438E+03  0.00000000000E+00 0. -1.
         22    1    3    3    0    0  0.21881294751E+02  0.22725471098E+02  0.14819969289E+02  0.34854979362E+02  0.00000000000E+00 0.  1.
         22    1    3    3    0    0  0.21136952666E+02 -0.14038514532E+03 -0.85955499280E+01  0.14222743502E+03  0.00000000000E+00 0.  1.
</event>
<event>
 7    1  0.6507405E-006  0.5557036E+02  0.7818608E-02  0.1427876E+00
          2   -1    0    0  502    0  0.00000000000E+00  0.00000000000E+00  0.24024501799E+04  0.24024501799E+04  0.00000000000E+00 0. -1.
          1   -1    0    0  501    0 -0.00000000000E+00 -0.00000000000E+00 -0.74302013771E+02  0.74302013771E+02  0.00000000000E+00 0. -1.
         25    2    1    2    0    0  0.44326466129E+02 -0.72413134936E+02  0.48986380935E+02  0.15884881892E+03  0.12499913617E+03 0.  0.
          2    1    1    2  501    0  0.67947960341E+01  0.50840875457E+02  0.15531054589E+02  0.53592700315E+02  0.00000000000E+00 0. -1.
          1    1    1    2  502    0 -0.51121262163E+02  0.21572259479E+02  0.22636307306E+04  0.22643106745E+04  0.00000000000E+00 0. -1.
         22    1    3    3    0    0  0.18470416754E+02 -0.85560379758E+02  0.78421568995E+02  0.11752309289E+03  0.00000000000E+00 0.  1.
         22    1    3    3    0    0  0.25856049375E+02  0.13147244821E+02 -0.29435188059E+02  0.41325726028E+02  0.00000000000E+00 0.  1.
</event>
<event>
 7    1  0.6507405E-006  0.9662768E+02  0.7818608E-02  0.1303901E+00
          2   -1    0    0  502    0  0.00000000000E+00  0.00000000000E+00  0.22303806576E+03  0.22303806576E+03  0.00000000000E+00 0. -1.
          1   -1    0    0  501    0 -0.00000000000E+00 -0.00000000000E+00 -0.19658064287E+03  0.19658064287E+03  0.00000000000E+00 0. -1.
         25    2    1    2    0    0 -0.16050090434E+02 -0.85034964880E+02  0.90703134500E+02  0.17703202121E+03  0.12499890907E+03 0.  0.
          2    1    1    2  501    0 -0.82117366057E+02  0.50927850203E+02 -0.93670730671E+02  0.13457753720E+03  0.00000000000E+00 0. -1.
          1    1    1    2  502    0  0.98167456491E+02  0.34107114677E+02  0.29425019064E+02  0.10800915023E+03  0.00000000000E+00 0. -1.
         22    1    3    3    0    0 -0.22097942839E+02  0.15505682014E+02 -0.15117137735E+02  0.30939830409E+02  0.00000000000E+00 0. -1.
         22    1    3    3    0    0  0.60478524048E+01 -0.10054064689E+03  0.10582027223E+03  0.14609219080E+03  0.00000000000E+00 0. -1.
</event>
<event>
 7    1  0.6507405E-006  0.1122234E+03  0.7818608E-02  0.1371818E+00
          2   -1    0    0  502    0  0.00000000000E+00  0.00000000000E+00  0.23302838618E+04  0.23302838618E+04  0.00000000000E+00 0. -1.
          1   -1    0    0  501    0 -0.00000000000E+00 -0.00000000000E+00 -0.15424156620E+04  0.15424156620E+04  0.00000000000E+00 0. -1.
         25    2    1    2    0    0  0.93491047822E+02 -0.41881080846E+02 -0.50668267736E+01  0.16169519072E+03  0.12500024405E+03 0.  0.
          2    1    1    2  501    0 -0.13506716258E+02 -0.37226260147E+02 -0.14573605841E+04  0.14578985211E+04  0.00000000000E+00 0. -1.
          1    1    1    2  502    0 -0.79984331564E+02  0.79107340992E+02  0.22502956106E+04  0.22531058119E+04  0.00000000000E+00 0. -1.
         22    1    3    3    0    0  0.95745255080E+02 -0.38238541136E+02 -0.51374541844E+02  0.11518977146E+03  0.00000000000E+00 0. -1.
         22    1    3    3    0    0 -0.22542072582E+01 -0.36425397093E+01  0.46307715070E+02  0.46505419264E+02  0.00000000000E+00 0. -1.
</event>
<event>
 7    1  0.6507405E-006  0.6406419E+02  0.7818608E-02  0.1430407E+00
          2   -1    0    0  502    0  0.00000000000E+00  0.00000000000E+00  0.20762574857E+02  0.20762574857E+02  0.00000000000E+00 0. -1.
          1   -1    0    0  501    0 -0.00000000000E+00 -0.00000000000E+00 -0.24440312023E+04  0.24440312023E+04  0.00000000000E+00 0. -1.
         25    2    1    2    0    0 -0.67303340225E+00  0.78710944045E+02 -0.16077789412E+04  0.16145502897E+04  0.12499459423E+03 0.  0.
          2    1    1    2  501    0 -0.35239640215E+02 -0.25750725407E+02 -0.77117344401E+03  0.77240754324E+03  0.00000000000E+00 0. -1.
          1    1    1    2  502    0  0.35912673617E+02 -0.52960218638E+02 -0.44316242246E+02  0.77835944212E+02  0.00000000000E+00 0. -1.
         22    1    3    3    0    0 -0.37626254197E+01  0.10678793331E+03 -0.91879994946E+03  0.92499252276E+03  0.00000000000E+00 0. -1.
         22    1    3    3    0    0  0.30895920174E+01 -0.28076989266E+02 -0.68897899175E+03  0.68955776696E+03  0.00000000000E+00 0. -1.
</event>
<event>
 7    1  0.6507405E-006  0.1063015E+03  0.7818608E-02  0.1272505E+00
          2   -1    0    0  502    0  0.00000000000E+00  0.00000000000E+00  0.29030463797E+04  0.29030463797E+04  0.00000000000E+00 0. -1.
          1   -1    0    0  501    0 -0.00000000000E+00 -0.00000000000E+00 -0.16475658522E+03  0.16475658522E+03  0.00000000000E+00 0. -1.
         25    2    1    2    0    0 -0.30457177141E+02  0.13819193052E+01  0.60393509319E+03  0.61748858233E+03  0.12500001270E+03 0.  0.
          2    1    1    2  501    0 -0.35477145687E+02  0.10020673249E+03 -0.13830105744E+03  0.17443394048E+03  0.00000000000E+00 0. -1.
          1    1    1    2  502    0  0.65934322828E+02 -0.10158865180E+03  0.22726557587E+04  0.22758804421E+04  0.00000000000E+00 0. -1.
         22    1    3    3    0    0 -0.54640809437E+02 -0.47496644391E+02  0.39332812588E+03  0.39993569970E+03  0.00000000000E+00 0.  1.
         22    1    3    3    0    0  0.24183632296E+02  0.48878563697E+02  0.21060696731E+03  0.21755288263E+03  0.00000000000E+00 0.  1.
</event>
<event>
 7    1  0.6507405E-006  0.9444425E+02  0.7818608E-02  0.1358150E+00
          2   -1    0    0  502    0  0.00000000000E+00  0.00000000000E+00  0.80071901902E+03  0.80071901902E+03  0.00000000000E+00 0. -1.
          1   -1    0    0  501    0 -0.00000000000E+00 -0.00000000000E+00 -0.72798860896E+02  0.72798860896E+02  0.00000000000E+00 0. -1.
         25    2    1    2    0    0  0.11663048954E+02  0.52581625992E+02  0.32321800590E+03  0.35070813657E+03  0.12500185444E+03 0.  0.
          2    1    1    2  501    0  0.12886845273E+02 -0.99256628091E+02 -0.13765656063E+02  0.10103188748E+03  0.00000000000E+00 0. -1.
          1    1    1    2  502    0 -0.24549894227E+02  0.46675002099E+02  0.41846780829E+03  0.42177785587E+03  0.00000000000E+00 0. -1.
         22    1    3    3    0    0  0.16017187697E+02 -0.37810859475E+02  0.62984113429E+02  0.75187831066E+02  0.00000000000E+00 0.  1.
         22    1    3    3    0    0 -0.43541387428E+01  0.90392485467E+02  0.26023389247E+03  0.27552030550E+03  0.00000000000E+00 0.  1.
</event>
<event>
 7    1  0.6507405E-006  0.1562022E+03  0.7818608E-02  0.1270388E+00
          2   -1    0    0  502    0  0.00000000000E+00  0.00000000000E+00  0.13604420808E+04  0.13604420808E+04  0.00000000000E+00 0. -1.
          1   -1    0    0  501    0 -0.00000000000E+00 -0.00000000000E+00 -0.32768073849E+04  0.32768073849E+04  0.00000000000E+00 0. -1.
         25    2    1    2    0    0  0.17544086431E+03 -0.49966411597E+02 -0.26607839987E+03  0.34597610894E+03  0.12500245568E+03 0.  0.
          2    1    1    2  501    0 -0.15456055353E+03 -0.17264430077E+02 -0.29678043465E+04  0.29718764551E+04  0.00000000000E+00 0. -1.
          1    1    1    2  502    0 -0.20880310777E+02  0.67230841674E+02  0.13175174422E+04  0.13193969016E+04  0.00000000000E+00 0. -1.
         22    1    3    3    0    0  0.49019032772E+02 -0.22146354568E+02 -0.18632359267E+03  0.19393248253E+03  0.00000000000E+00 0. -1.
         22    1    3    3    0    0  0.12642183154E+03 -0.27820057029E+02 -0.79754807203E+02  0.15204362642E+03  0.00000000000E+00 0. -1.
</event>
<event>
 7    1  0.6507405E-006  0.4050250E+02  0.7818608E-02  0.1511058E+00
          2   -1    0    0  502    0  0.00000000000E+00  0.00000000000E+00  0.40118520797E+02  0.40118520797E+02  0.00000000000E+00 0. -1.
          1   -1    0    0  501    0 -0.00000000000E+00 -0.00000000000E+00 -0.22044587929E+04  0.22044587929E+04  0.00000000000E+00 0. -1.
         25    2    1    2    0    0 -0.19796439032E+02  0.27220625223E+02 -0.67488008781E+03  0.68718391700E+03  0.12500296568E+03 0.  0.
          2    1    1    2  501    0 -0.17495258455E+02 -0.37745246399E+02 -0.15119959480E+04  0.15125681917E+04  0.00000000000E+00 0. -1.
          1    1    1    2  502    0  0.37291697487E+02  0.10524621176E+02  0.22535763760E+02  0.44825204970E+02  0.00000000000E+00 0. -1.
         22    1    3    3    0    0  0.53129208486E+02  0.83820552184E+01 -0.30632640698E+03  0.31101260306E+03  0.00000000000E+00 0. -1.
         22    1    3    3    0    0 -0.72925647517E+02  0.18838570005E+02 -0.36855368083E+03  0.37617131395E+03  0.00000000000E+00 0. -1.
</event>
<event>
 7    1  0.6507405E-006  0.4490580E+02  0.7818608E-02  0.1588195E+00
          2   -1    0    0  502    0  0.00000000000E+00  0.00000000000E+00  0.19768021294E+04  0.19768021294E+04  0.00000000000E+00 0. -1.
          1   -1    0    0  501    0 -0.00000000000E+00 -0.00000000000E+00 -0.46403107615E+02  0.46403107615E+02  0.00000000000E+00 0. -1.
         25    2    1    2    0    0 -0.15445113571E+02  0.31575036474E+02  0.56487387728E+03  0.57960038276E+03  0.12497428534E+03 0.  0.
          2    1    1    2  501    0 -0.89745054817E+00 -0.45208239082E+02 -0.25838156864E+02  0.52078792695E+02  0.00000000000E+00 0. -1.
          1    1    1    2  502    0  0.16342564120E+02  0.13633202608E+02  0.13913633013E+04  0.13915260615E+04  0.00000000000E+00 0. -1.
         22    1    3    3    0    0 -0.18635163430E+02  0.64641625871E+02  0.51682889754E+03  0.52118894697E+03  0.00000000000E+00 0. -1.
         22    1    3    3    0    0  0.31900498587E+01 -0.33066589397E+02  0.48044979739E+02  0.58411435786E+02  0.00000000000E+00 0. -1.
</event>
<event>
 7    1  0.6507405E-006  0.7880621E+02  0.7818608E-02  0.1411083E+00
          2   -1    0    0  502    0  0.00000000000E+00  0.00000000000E+00  0.42504119567E+03  0.42504119567E+03  0.00000000000E+00 0. -1.
          1   -1    0    0  501    0 -0.00000000000E+00 -0.00000000000E+00 -0.14758232806E+04  0.14758232806E+04  0.00000000000E+00 0. -1.
         25    2    1    2    0    0  0.32361214189E+02 -0.50113746796E+02 -0.90862734819E+02  0.16564932506E+03  0.12500010605E+03 0.  0.
          2    1    1    2  501    0 -0.28728606788E+02 -0.29475015998E+02 -0.13431550281E+04  0.13437855256E+04  0.00000000000E+00 0. -1.
          1    1    1    2  502    0 -0.36326074004E+01  0.79588762793E+02  0.38323567792E+03  0.39142962564E+03  0.00000000000E+00 0. -1.
         22    1    3    3    0    0 -0.44484930887E+02 -0.33321905525E+02 -0.17985073140E+02  0.58418501519E+02  0.00000000000E+00 0. -1.
         22    1    3    3    0    0  0.76846145076E+02 -0.16791841270E+02 -0.72877661680E+02  0.10723082354E+03  0.00000000000E+00 0. -1.
</event>
<event>
 7    1  0.6507405E-006  0.1182729E+03  0.7818608E-02  0.1276231E+00
          2   -1    0    0  502    0  0.00000000000E+00  0.00000000000E+00  0.96431117390E+03  0.96431117390E+03  0.00000000000E+00 0. -1.
          1   -1    0    0  501    0 -0.00000000000E+00 -0.00000000000E+00 -0.46539217510E+03  0.46539217510E+03  0.00000000000E+00 0. -1.
         25    2    1    2    0    0 -0.42821121328E-01  0.16656645513E+03 -0.65002783349E+02  0.21816266635E+03  0.12500080533E+03 0.  0.
          2    1    1    2  501    0  0.56625452311E+02 -0.99307713602E+02 -0.31145001445E+03  0.33176735121E+03  0.00000000000E+00 0. -1.
          1    1    1    2  502    0 -0.56582631190E+02 -0.67258741532E+02  0.87537179659E+03  0.87977333145E+03  0.00000000000E+00 0. -1.
         22    1    3    3    0    0  0.33964089260E+02  0.15108370431E+03 -0.14770629088E+02  0.15555711668E+03  0.00000000000E+00 0. -1.
         22    1    3    3    0    0 -0.34006910382E+02  0.15482750825E+02 -0.50232154261E+02  0.62605549662E+02  0.00000000000E+00 0. -1.
</event>
<event>
 7    1  0.6507405E-006  0.6361519E+02  0.7818608E-02  0.1400230E+00
          2   -1    0    0  502    0  0.00000000000E+00  0.00000000000E+00  0.41581668706E+03  0.41581668706E+03  0.00000000000E+00 0. -1.
          1   -1    0    0  501    0 -0.00000000000E+00 -0.00000000000E+00 -0.35575871744E+03  0.35575871744E+03  0.00000000000E+00 0. -1.
         25    2    1    2    0    0  0.13535139116E+02 -0.44973227725E+02  0.12614661252E+03  0.18370797149E+03  0.12501943743E+03 0.  0.
          2    1    1    2  501    0 -0.61912859314E+02  0.17723281082E+02 -0.32078684908E+03  0.32718728487E+03  0.00000000000E+00 0. -1.
          1    1    1    2  502    0  0.48377720198E+02  0.27249946643E+02  0.25469820618E+03  0.26068014814E+03  0.00000000000E+00 0. -1.
         22    1    3    3    0    0 -0.26046405960E+02  0.10419340896E+02  0.11029383196E+03  0.11380556795E+03  0.00000000000E+00 0. -1.
         22    1    3    3    0    0  0.39581545075E+02 -0.55392568621E+02  0.15852780559E+02  0.69902403538E+02  0.00000000000E+00 0. -1.
</event>
<event>
 7    1  0.6507405E-006  0.1156868E+03  0.7818608E-02  0.1394903E+00
          2   -1    0    0  502    0  0.00000000000E+00  0.00000000000E+00  0.39032176532E+04  0.39032176532E+04  0.00000000000E+00 0. -1.
          1   -1    0    0  501    0 -0.00000000000E+00 -0.00000000000E+00 -0.58297664133E+03  0.58297664133E+03  0.00000000000E+00 0. -1.
         25    2    1    2    0    0  0.12173811634E+02  0.12742663144E+03 -0.19310949906E+03  0.26325305209E+03  0.12500057087E+03 0.  0.
          2    1    1    2  501    0  0.26082899847E+02 -0.18283084495E+02 -0.35321405801E+03  0.35464737363E+03  0.00000000000E+00 0. -1.
          1    1    1    2  502    0 -0.38256711481E+02 -0.10914354695E+03  0.38665645689E+04  0.38682938688E+04  0.00000000000E+00 0. -1.
         22    1    3    3    0    0  0.19001677997E+02  0.37711468716E+02  0.79588270202E+01  0.42971636773E+02  0.00000000000E+00 0. -1.
         22    1    3    3    0    0 -0.68278663630E+01  0.89715162723E+02 -0.20106832608E+03  0.22028141531E+03  0.00000000000E+00 0. -1.
</event>
<event>
 7    1  0.6507405E-006  0.1847294E+03  0.7818608E-02  0.1254404E+00
          2   -1    0    0  502    0  0.00000000000E+00  0.00000000000E+00  0.78217277383E+03  0.78217277383E+03  0.00000000000E+00 0. -1.
          1   -1    0    0  501    0 -0.00000000000E+00 -0.00000000000E+00 -0.97020538090E+03  0.97020538090E+03  0.00000000000E+00 0. -1.
         25    2    1    2    0    0 -0.12010303892E+03  0.51188144976E+02 -0.11946173908E+03  0.21665945854E+03  0.12500099092E+03 0.  0.
          2    1    1    2  501    0  0.17476236051E+03 -0.94292471493E+02 -0.78814957277E+03  0.81278084493E+03  0.00000000000E+00 0. -1.
          1    1    1    2  502    0 -0.54659321592E+02  0.43104326517E+02  0.71957870478E+03  0.72293785125E+03  0.00000000000E+00 0. -1.
         22    1    3    3    0    0  0.15146927874E+02  0.35774877403E+02 -0.57179441965E+01  0.39267876987E+02  0.00000000000E+00 0. -1.
         22    1    3    3    0    0 -0.13524996679E+03  0.15413267573E+02 -0.11374379488E+03  0.17739158156E+03  0.00000000000E+00 0. -1.
</event>
<event>
 7    1  0.6507405E-006  0.7377591E+02  0.7818608E-02  0.1427567E+00
          2   -1    0    0  502    0  0.00000000000E+00  0.00000000000E+00  0.29953710164E+04  0.29953710164E+04  0.00000000000E+00 0. -1.
          1   -1    0    0  501    0 -0.00000000000E+00 -0.00000000000E+00 -0.31007156268E+02  0.31007156268E+02  0.00000000000E+00 0. -1.
         25    2    1    2    0    0 -0.21495105600E+02 -0.40304723224E+02  0.42457876311E+03  0.44494436341E+03  0.12498740002E+03 0.  0.
          2    1    1    2  501    0  0.12700013757E+02  0.78018976239E+02  0.54885281770E+02  0.96232245935E+02  0.00000000000E+00 0. -1.
          1    1    1    2  502    0  0.87950918428E+01 -0.37714253015E+02  0.24848998152E+04  0.24852015633E+04  0.00000000000E+00 0. -1.
         22    1    3    3    0    0  0.13680037092E+02 -0.11226320540E+02  0.38237179919E+03  0.38278109475E+03  0.00000000000E+00 0. -1.
         22    1    3    3    0    0 -0.35175142691E+02 -0.29078402684E+02  0.42206963926E+02  0.62163268655E+02  0.00000000000E+00 0. -1.
</event>
<event>
 7    1  0.6507405E-006  0.1389039E+03  0.7818608E-02  0.1313081E+00
          2   -1    0    0  502    0  0.00000000000E+00  0.00000000000E+00  0.22861250549E+04  0.22861250549E+04  0.00000000000E+00 0. -1.
          1   -1    0    0  501    0 -0.00000000000E+00 -0.00000000000E+00 -0.27569307811E+03  0.27569307811E+03  0.00000000000E+00 0. -1.
         25    2    1    2    0    0 -0.66944420393E+02 -0.55677588714E+02  0.73012224964E+03  0.74584478887E+03  0.12499760140E+03 0.  0.
          2    1    1    2  501    0  0.10712655790E+03  0.90434836792E+02 -0.24899287411E+03  0.28574815917E+03  0.00000000000E+00 0. -1.
          1    1    1    2  502    0 -0.40182137504E+02 -0.34757248078E+02  0.15293026013E+04  0.15302251850E+04  0.00000000000E+00 0. -1.
         22    1    3    3    0    0 -0.64070184442E+02 -0.90272653740E+02  0.63520461915E+03  0.64477829425E+03  0.00000000000E+00 0.  1.
         22    1    3    3    0    0 -0.28742359510E+01  0.34595065026E+02  0.94917630494E+02  0.10106649462E+03  0.00000000000E+00 0.  1.
</event>
<event>
 7    1  0.6507405E-006  0.1214027E+03  0.7818608E-02  0.1329090E+00
          2   -1    0    0  502    0  0.00000000000E+00  0.00000000000E+00  0.34728064632E+03  0.34728064632E+03  0.00000000000E+00 0. -1.
          1   -1    0    0  501    0 -0.00000000000E+00 -0.00000000000E+00 -0.16782244193E+04  0.16782244193E+04  0.00000000000E+00 0. -1.
         25    2    1    2    0    0  0.40107651622E+02  0.12901888770E+03  0.16795022585E+03  0.24917367356E+03  0.12500297647E+03 0.  0.
          2    1    1    2  501    0  0.34931107844E+02 -0.39459102834E+02 -0.16125023171E+04  0.16133632343E+04  0.00000000000E+00 0. -1.
          1    1    1    2  502    0 -0.75038759466E+02 -0.89559784866E+02  0.11360831824E+03  0.16296815781E+03  0.00000000000E+00 0. -1.
         22    1    3    3    0    0  0.39399038458E+02 -0.13283133828E+02  0.33404607507E+02  0.53334732384E+02  0.00000000000E+00 0.  1.
         22    1    3    3    0    0  0.70861316349E+00  0.14230202153E+03  0.13454561835E+03  0.19583894117E+03  0.00000000000E+00 0.  1.
</event>
<event>
 7    1  0.6507405E-006  0.1303925E+03  0.7818608E-02  0.1330579E+00
          2   -1    0    0  502    0  0.00000000000E+00  0.00000000000E+00  0.43032130243E+02  0.43032130243E+02  0.00000000000E+00 0. -1.
          1   -1    0    0  501    0 -0.00000000000E+00 -0.00000000000E+00 -0.13816551336E+04  0.13816551336E+04  0.00000000000E+00 0. -1.
         25    2    1    2    0    0  0.10159531797E+03 -0.99323100560E+02 -0.44608574449E+03  0.48456257519E+03  0.12498684293E+03 0.  0.
          2    1    1    2  501    0 -0.45697789466E+02 -0.16027982377E+02 -0.73693700919E+03  0.73852646513E+03  0.00000000000E+00 0. -1.
          1    1    1    2  502    0 -0.55897528502E+02  0.11535108294E+03 -0.15560024969E+03  0.20159822353E+03  0.00000000000E+00 0. -1.
         22    1    3    3    0    0  0.33376288606E+02  0.27543293369E+02 -0.76384136026E+02  0.87790351903E+02  0.00000000000E+00 0. -1.
         22    1    3    3    0    0  0.68219029362E+02 -0.12686639393E+03 -0.36970160846E+03  0.39677222329E+03  0.00000000000E+00 0. -1.
</event>
<event>
 7    1  0.6507405E-006  0.2030725E+03  0.7818608E-02  0.1286840E+00
          2   -1    0    0  502    0  0.00000000000E+00  0.00000000000E+00  0.74523724386E+03  0.74523724386E+03  0.00000000000E+00 0. -1.
          1   -1    0    0  501    0 -0.00000000000E+00 -0.00000000000E+00 -0.58131506238E+03  0.58131506238E+03  0.00000000000E+00 0. -1.
         25    2    1    2    0    0  0.12143656194E+02 -0.15835237110E+03 -0.33250262222E+03  0.38910917665E+03  0.12500006301E+03 0.  0.
          2    1    1    2  501    0 -0.16775913576E+01 -0.46256495933E+02 -0.20321671220E+03  0.20842147165E+03  0.00000000000E+00 0. -1.
          1    1    1    2  502    0 -0.10466064836E+02  0.20460886703E+03  0.69964151590E+03  0.72902165794E+03  0.00000000000E+00 0. -1.
         22    1    3    3    0    0 -0.31449578181E+02 -0.51874930511E+02 -0.21992596690E+03  0.22813924542E+03  0.00000000000E+00 0. -1.
         22    1    3    3    0    0  0.43593234375E+02 -0.10647744058E+03 -0.11257665532E+03  0.16096993123E+03  0.00000000000E+00 0. -1.
</event>
<event>
 7    1  0.6507405E-006  0.6409038E+02  0.7818608E-02  0.1392223E+00
          2   -1    0    0  502    0  0.00000000000E+00  0.00000000000E+00  0.27046451030E+04  0.27046451030E+04  0.00000000000E+00 0. -1.
          1   -1    0    0  501    0 -0.00000000000E+00 -0.00000000000E+00 -0.42085922603E+03  0.42085922603E+03  0.00000000000E+00 0. -1.
         25    2    1    2    0    0  0.71973936698E+02 -0.97094844517E+02  0.16011487461E+02  0.17460989984E+03  0.12499837197E+03 0.  0.
          2    1    1    2  501    0 -0.42609276359E+02  0.40433679601E+02 -0.33864104309E+03  0.34369781632E+03  0.00000000000E+00 0. -1.
          1    1    1    2  502    0 -0.29364660339E+02  0.56661164916E+02  0.26064154326E+04  0.26071966128E+04  0.00000000000E+00 0. -1.
         22    1    3    3    0    0  0.18312141507E+02 -0.11296112660E+03 -0.57233396409E+01  0.11457882555E+03  0.00000000000E+00 0.  1.
         22    1    3    3    0    0  0.53661795191E+02  0.15866282081E+02  0.21734827102E+02  0.60031074281E+02  0.00000000000E+00 0.  1.
</event>
<event>
 7    1  0.6507405E-006  0.6684613E+02  0.7818608E-02  0.1491744E+00
          2   -1    0    0  502    0  0.00000000000E+00  0.00000000000E+00  0.12221847175E+04  0.12221847175E+04  0.00000000000E+00 0. -1.
          1   -1    0    0  501    0 -0.00000000000E+00 -0.00000000000E+00 -0.38077541642E+03  0.38077541642E+03  0.00000000000E+00 0. -1.
         25    2    1    2    0    0  0.75815192080E+02 -0.27612515797E+02  0.21963738948E+03  0.26528505534E+03  0.12500073340E+03 0.  0.
          2    1    1    2  501    0 -0.23403759645E+02 -0.13064500905E+02 -0.35632450177E+03  0.35733117372E+03  0.00000000000E+00 0. -1.
          1    1    1    2  502    0 -0.52411432435E+02  0.40677016703E+02  0.97809641341E+03  0.98034390490E+03  0.00000000000E+00 0. -1.
         22    1    3    3    0    0  0.36768194535E+02 -0.98008108954E+01 -0.33555308038E+01  0.38199680765E+02  0.00000000000E+00 0. -1.
         22    1    3    3    0    0  0.39046997545E+02 -0.17811704902E+02  0.22299292029E+03  0.22708537458E+03  0.00000000000E+00 0. -1.
</event>
<event>
 7    1  0.6507405E-006  0.7558833E+02  0.7818608E-02  0.1456626E+00
          2   -1    0    0  502    0  0.00000000000E+00  0.00000000000E+00  0.14254769191E+04  0.14254769191E+04  0.00000000000E+00 0. -1.
          1   -1    0    0  501    0 -0.00000000000E+00 -0.00000000000E+00 -0.12235799656E+03  0.12235799656E+03  0.00000000000E+00 0. -1.
         25    2    1    2    0    0  0.41829558202E+02  0.90904028762E+02  0.15632966238E+03  0.22378058605E+03  0.12500213184E+03 0.  0.
          2    1    1    2  501    0 -0.42178670386E+02 -0.60467109962E+02 -0.73078743099E+02  0.10380661981E+03  0.00000000000E+00 0. -1.
          1    1    1    2  502    0  0.34911218423E+00 -0.30436918801E+02  0.12198680033E+04  0.12202477098E+04  0.00000000000E+00 0. -1.
         22    1    3    3    0    0 -0.15889863933E+02  0.97965053117E+02  0.11775467821E+03  0.15399936249E+03  0.00000000000E+00 0. -1.
         22    1    3    3    0    0  0.57719422135E+02 -0.70610243547E+01  0.38574984172E+02  0.69781223552E+02  0.00000000000E+00 0. -1.
</event>
<event>
 7    1  0.6507405E-006  0.1543512E+03  0.7818608E-02  0.1276343E+00
          2   -1    0    0  502    0  0.00000000000E+00  0.00000000000E+00  0.11874007701E+04  0.11874007701E+04  0.00000000000E+00 0. -1.
          1   -1    0    0  501    0 -0.00000000000E+00 -0.00000000000E+00 -0.66949692001E+03  0.66949692001E+03  0.00000000000E+00 0. -1.
         25    2    1    2    0    0 -0.42893777712E+02  0.14410904313E+03  0.12412186863E+03  0.23160152038E+03  0.12500293395E+03 0.  0.
          2    1    1    2  501    0 -0.61324726163E+02 -0.27667820509E+02 -0.60784269913E+03  0.61155455784E+03  0.00000000000E+00 0. -1.
          1    1    1    2  502    0  0.10421850388E+03 -0.11644122262E+03  0.10016246806E+04  0.10137416119E+04  0.00000000000E+00 0. -1.
         22    1    3    3    0    0 -0.64560337093E+02  0.92516563256E+02  0.13358529734E+03  0.17484960185E+03  0.00000000000E+00 0. -1.
         22    1    3    3    0    0  0.21666559380E+02  0.51592479872E+02 -0.94634287069E+01  0.56751918537E+02  0.00000000000E+00 0. -1.
</event>
<event>
 7    1  0.6507405E-006  0.3821163E+02  0.7818608E-02  0.1567071E+00
          2   -1    0    0  502    0  0.00000000000E+00  0.00000000000E+00  0.14474961948E+04  0.14474961948E+04  0.00000000000E+00 0. -1.
          1   -1    0    0  501    0 -0.00000000000E+00 -0.00000000000E+00 -0.11848580524E+03  0.11848580524E+03  0.00000000000E+00 0. -1.
         25    2    1    2    0    0 -0.16669690839E+02  0.25633500168E+02  0.66774068828E+03  0.68002781613E+03  0.12500099598E+03 0.  0.
          2    1    1    2  501    0 -0.22143290704E+02 -0.17953184661E+02 -0.11001855860E+03  0.11365177253E+03  0.00000000000E+00 0. -1.
          1    1    1    2  502    0  0.38812981544E+02 -0.76803155077E+01  0.77128825983E+03  0.77230241133E+03  0.00000000000E+00 0. -1.
         22    1    3    3    0    0  0.48755671537E+02  0.36862371228E+02  0.27440864109E+03  0.28113351317E+03  0.00000000000E+00 0. -1.
         22    1    3    3    0    0 -0.65425362376E+02 -0.11228871059E+02  0.39333204719E+03  0.39889430296E+03  0.00000000000E+00 0. -1.
</event>
<event>
 7    1  0.6507405E-006  0.8194761E+02  0.7818608E-02  0.1367226E+00
          2   -1    0    0  502    0  0.00000000000E+00  0.00000000000E+00  0.69612161035E+03  0.69612161035E+03  0.00000000000E+00 0. -1.
          1   -1    0    0  501    0 -0.00000000000E+00 -0.00000000000E+00 -0.17907429807E+03  0.17907429807E+03  0.00000000000E+00 0. -1.
         25    2    1    2    0    0 -0.27140587011E+02 -0.26926299212E+02  0.81798134499E+02  0.15419773213E+03  0.12499747491E+03 0.  0.
          2    1    1    2  501    0  0.83466879727E+02  0.25999277721E+02 -0.12796344150E+03  0.15497523936E+03  0.00000000000E+00 0. -1.
          1    1    1    2  502    0 -0.56326292716E+02  0.92702149194E+00  0.56321261928E+03  0.56602293694E+03  0.00000000000E+00 0. -1.
         22    1    3    3    0    0 -0.12078258514E+02 -0.58877670813E+02  0.98292840977E+02  0.11521261665E+03  0.00000000000E+00 0. -1.
         22    1    3    3    0    0 -0.15062328497E+02  0.31951371601E+02 -0.16494706478E+02  0.38985115476E+02  0.00000000000E+00 0. -1.
</event>
<event>
 7    1  0.6507405E-006  0.7485673E+02  0.7818608E-02  0.1344318E+00
          2   -1    0    0  502    0  0.00000000000E+00  0.00000000000E+00  0.16445531036E+03  0.16445531036E+03  0.00000000000E+00 0. -1.
          1   -1    0    0  501    0 -0.00000000000E+00 -0.00000000000E+00 -0.48624030528E+03  0.48624030528E+03  0.00000000000E+00 0. -1.
         25    2    1    2    0    0 -0.40091115409E+02 -0.83716272130E+01  0.25158289468E+02  0.13391839479E+03  0.12499526094E+03 0.  0.
          2    1    1    2  501    0 -0.15584177882E+02 -0.73214938968E+02 -0.39842295694E+03  0.40539381656E+03  0.00000000000E+00 0. -1.
          1    1    1    2  502    0  0.55675293292E+02  0.81586566181E+02  0.51479672552E+02  0.11138340429E+03  0.00000000000E+00 0. -1.
         22    1    3    3    0    0 -0.18788138813E+02  0.31629967596E+02  0.64270028218E+02  0.74054611857E+02  0.00000000000E+00 0. -1.
         22    1    3    3    0    0 -0.21302976596E+02 -0.40001594809E+02 -0.39111738750E+02  0.59863782934E+02  0.00000000000E+00 0. -1.
</event>
<event>
 7    1  0.6507405E-006  0.4148906E+02  0.7818608E-02  0.1500857E+00
          2   -1    0    0  502    0  0.00000000000E+00  0.00000000000E+00  0.73014946030E+03  0.73014946030E+03  0.00000000000E+00 0. -1.
          1   -1    0    0  501    0 -0.00000000000E+00 -0.00000000000E+00 -0.14415801906E+04  0.14415801906E+04  0.00000000000E+00 0. -1.
         25    2    1    2    0    0 -0.37467903959E+02  0.30070203582E+02 -0.24246056099E+01  0.13392609613E+03  0.12498903769E+03 0.  0.
          2    1    1    2  501    0 -0.14311744569E+01 -0.41524854938E+02 -0.13724714214E+04  0.13731002019E+04  0.00000000000E+00 0. -1.
          1    1    1    2  502    0  0.38899078416E+02  0.11454651356E+02  0.66346529674E+03  0.66470335287E+03  0.00000000000E+00 0. -1.
         22    1    3    3    0    0 -0.38128722496E+02  0.77078059270E+02  0.58459221657E+01  0.86191655663E+02  0.00000000000E+00 0. -1.
         22    1    3    3    0    0  0.66081853726E+00 -0.47007855687E+02 -0.82705277755E+01  0.47734440472E+02  0.00000000000E+00 0. -1.
</event>
<event>
 7    1  0.6507405E-006  0.9379153E+02  0.7818608E-02  0.1442269E+00
          2   -1    0    0  502    0  0.00000000000E+00  0.00000000000E+00  0.17714537936E+02  0.17714537936E+02  0.00000000000E+00 0. -1.
          1   -1    0    0  501    0 -0.00000000000E+00 -0.00000000000E+00 -0.26173300621E+04  0.26173300621E+04  0.00000000000E+00 0. -1.
         25    2    1    2    0    0  0.80173820540E+02  0.82440838172E+01 -0.91551868295E+03  0.92752138061E+03  0.12500258492E+03 0.  0.
          2    1    1    2  501    0  0.15994372731E+02 -0.22087524063E+02 -0.14920376872E+04  0.14922868822E+04  0.00000000000E+00 0. -1.
          1    1    1    2  502    0 -0.96168193271E+02  0.13843440246E+02 -0.19205915401E+03  0.21523633725E+03  0.00000000000E+00 0. -1.
         22    1    3    3    0    0 -0.47211596425E+01  0.49966956148E+02 -0.42604857250E+03  0.42899460624E+03  0.00000000000E+00 0.  1.
         22    1    3    3    0    0  0.84894980183E+02 -0.41722872331E+02 -0.48947011045E+03  0.49852677437E+03  0.00000000000E+00 0.  1.
</event>
<event>
 7    1  0.6507405E-006  0.7250283E+02  0.7818608E-02  0.1359398E+00
          2   -1    0    0  502    0  0.00000000000E+00  0.00000000000E+00  0.22746253144E+03  0.22746253144E+03  0.00000000000E+00 0. -1.
          1   -1    0    0  501    0 -0.00000000000E+00 -0.00000000000E+00 -0.20534092292E+03  0.20534092292E+03  0.00000000000E+00 0. -1.
         25    2    1    2    0    0 -0.28488318718E+02 -0.48564341623E+02  0.69731014698E+02  0.15381053290E+03  0.12500074415E+03 0.  0.
          2    1    1    2  501    0  0.76134129429E+02  0.76357365877E-01 -0.14291379106E+03  0.16192826551E+03  0.00000000000E+00 0. -1.
          1    1    1    2  502    0 -0.47645810711E+02  0.48487984257E+02  0.95304384881E+02  0.11706465595E+03  0.00000000000E+00 0. -1.
         22    1    3    3    0    0 -0.66838829120E+01 -0.71262264131E+02 -0.59735690971E+01  0.71823868649E+02  0.00000000000E+00 0. -1.
         22    1    3    3    0    0 -0.21804435806E+02  0.22697922508E+02  0.75704583795E+02  0.81986664249E+02  0.00000000000E+00 0. -1.
</event>
<event>
 7    1  0.6507405E-006  0.2788387E+03  0.7818608E-02  0.1136187E+00
          2   -1    0    0  502    0  0.00000000000E+00  0.00000000000E+00  0.15881521590E+04  0.15881521590E+04  0.00000000000E+00 0. -1.
          1   -1    0    0  501    0 -0.00000000000E+00 -0.00000000000E+00 -0.75956094218E+03  0.75956094218E+03  0.00000000000E+00 0. -1.
         25    2    1    2    0    0 -0.28879311321E+02  0.12714850319E+03  0.10679864762E+04  0.10831525581E+04  0.12499437634E+03 0.  0.
          2    1    1    2  501    0  0.16039065657E+03 -0.23293401743E+03 -0.71018841977E+03  0.76442855177E+03  0.00000000000E+00 0. -1.
          1    1    1    2  502    0 -0.13151134525E+03  0.10578551424E+03  0.47079316037E+03  0.50013199138E+03  0.00000000000E+00 0. -1.
         22    1    3    3    0    0 -0.26193049943E+02  0.13643343848E+03  0.10634310765E+04  0.10724671619E+04  0.00000000000E+00 0.  1.
         22    1    3    3    0    0 -0.26862613779E+01 -0.92849352894E+01  0.45553997664E+01  0.10685396134E+02  0.00000000000E+00 0.  1.
</event>
<event>
 7    1  0.6507405E-006  0.5991426E+02  0.7818608E-02  0.1551531E+00
          2   -1    0    0  502    0  0.00000000000E+00  0.00000000000E+00  0.39228333561E+03  0.39228333561E+03  0.00000000000E+00 0. -1.
          1   -1    0    0  501    0 -0.00000000000E+00 -0.00000000000E+00 -0.11634097009E+04  0.11634097009E+04  0.00000000000E+00 0. -1.
         25    2    1    2    0    0  0.39711508924E+02  0.31937553464E+02 -0.47305806835E+02  0.14303829642E+03  0.12500041448E+03 0.  0.
          2    1    1    2  501    0 -0.56404173315E+02 -0.20804501688E+02 -0.10670986261E+04  0.10687907821E+04  0.00000000000E+00 0. -1.
          1    1    1    2  502    0  0.16692664392E+02 -0.11133051776E+02  0.34327806765E+03  0.34386395801E+03  0.00000000000E+00 0. -1.
         22    1    3    3    0    0 -0.28616359018E+02  0.10864003030E+02 -0.62811330292E+02  0.69872639698E+02  0.00000000000E+00 0. -1.
         22    1    3    3    0    0  0.68327867942E+02  0.21073550434E+02  0.15505523457E+02  0.73165656718E+02  0.00000000000E+00 0. -1.
</event>
<event>
 7    1  0.6507405E-006  0.1027784E+03  0.7818608E-02  0.1423661E+00
          2   -1    0    0  502    0  0.00000000000E+00  0.00000000000E+00  0.78595482035E+03  0.78595482035E+03  0.00000000000E+00 0. -1.
          1   -1    0    0  501    0 -0.00000000000E+00 -0.00000000000E+00 -0.32137558905E+03  0.32137558905E+03  0.00000000000E+00 0. -1.
         25    2    1    2    0    0  0.82529527489E+02 -0.35098076595E+02 -0.31420544619E+02  0.15701933136E+03  0.12499928763E+03 0.  0.
          2    1    1    2  501    0 -0.10447201733E+03  0.16693551078E+02 -0.21453278779E+03  0.23920157626E+03  0.00000000000E+00 0. -1.
          1    1    1    2  502    0  0.21942489837E+02  0.18404525517E+02  0.71053256371E+03  0.71110950177E+03  0.00000000000E+00 0. -1.
         22    1    3    3    0    0 -0.19170315178E+02  0.26591898162E+02  0.37141329214E+01  0.32991283928E+02  0.00000000000E+00 0. -1.
         22    1    3    3    0    0  0.10169984267E+03 -0.61689974757E+02 -0.35134677541E+02  0.12402804743E+03  0.00000000000E+00 0. -1.
</event>
<event>
 7    1  0.6507405E-006  0.8190200E+02  0.7818608E-02  0.1340155E+00
          2   -1    0    0  502    0  0.00000000000E+00  0.00000000000E+00  0.23570496573E+04  0.23570496573E+04  0.00000000000E+00 0. -1.
          1   -1    0    0  501    0 -0.00000000000E+00 -0.00000000000E+00 -0.14490870000E+04  0.14490870000E+04  0.00000000000E+00 0. -1.
         25    2    1    2    0    0  0.12572278263E+02  0.27288323822E+01 -0.23807615801E+02  0.12789439286E+03  0.12499865778E+03 0.  0.
          2    1    1    2  501    0 -0.77872985060E+02 -0.30393814116E+02 -0.13714175125E+04  0.13739628741E+04  0.00000000000E+00 0. -1.
          1    1    1    2  502    0  0.65300706797E+02  0.27664981734E+02  0.23031877856E+04  0.23042793904E+04  0.00000000000E+00 0. -1.
         22    1    3    3    0    0 -0.77266404027E+01  0.46799955314E+02 -0.53112681224E+02  0.71210207808E+02  0.00000000000E+00 0.  1.
         22    1    3    3    0    0  0.20298918666E+02 -0.44071122931E+02  0.29305065423E+02  0.56684185051E+02  0.00000000000E+00 0.  1.
</event>
<event>
 7    1  0.6507405E-006  0.1261038E+03  0.7818608E-02  0.1311934E+00
          2   -1    0    0  502    0  0.00000000000E+00  0.00000000000E+00  0.33036800240E+03  0.33036800240E+03  0.00000000000E+00 0. -1.
          1   -1    0    0  501    0 -0.00000000000E+00 -0.00000000000E+00 -0.33587886144E+03  0.33587886144E+03  0.00000000000E+00 0. -1.
         25    2    1    2    0    0  0.14996988644E+02  0.70840370277E+02  0.10962029235E+03  0.18134399887E+03  0.12500307877E+03 0.  0.
          2    1    1    2  501    0 -0.24976726904E+02 -0.12912353128E+03 -0.28021764468E+03  0.30954587965E+03  0.00000000000E+00 0. -1.
          1    1    1    2  502    0  0.99797382605E+01  0.58283161005E+02  0.16508649329E+03  0.17535698531E+03  0.00000000000E+00 0. -1.
         22    1    3    3    0    0  0.35239088773E+02  0.75043079364E+02  0.14699826034E+02  0.84198230524E+02  0.00000000000E+00 0. -1.
         22    1    3    3    0    0 -0.20242100129E+02 -0.42027090876E+01  0.94920466320E+02  0.97145768347E+02  0.00000000000E+00 0. -1.
</event>
<event>
 7    1  0.6507405E-006  0.1026541E+03  0.7818608E-02  0.1426623E+00
          2   -1    0    0  502    0  0.00000000000E+00  0.00000000000E+00  0.12521331270E+04  0.12521331270E+04  0.00000000000E+00 0. -1.
          1   -1    0    0  501    0 -0.00000000000E+00 -0.00000000000E+00 -0.17014404502E+03  0.17014404502E+03  0.00000000000E+00 0. -1.
         25    2    1    2    0    0 -0.12719260985E+03 -0.10382148733E+02  0.19117725866E+03  0.26164299468E+03  0.12499025332E+03 0.  0.
          2    1    1    2  501    0  0.10059257520E+03  0.15354079800E+01 -0.11593356519E+03  0.15349858371E+03  0.00000000000E+00 0. -1.
          1    1    1    2  502    0  0.26600034653E+02  0.88467407534E+01  0.10067453885E+04  0.10071355936E+04  0.00000000000E+00 0. -1.
         22    1    3    3    0    0 -0.66970319361E+02 -0.67586370838E+02  0.11100259473E+03  0.14620026414E+03  0.00000000000E+00 0. -1.
         22    1    3    3    0    0 -0.60222290488E+02  0.57204222105E+02  0.80174663930E+02  0.11544273054E+03  0.00000000000E+00 0. -1.
</event>
<event>
 7    1  0.6507405E-006  0.1263158E+03  0.7818608E-02  0.1380522E+00
          2   -1    0    0  502    0  0.00000000000E+00  0.00000000000E+00  0.16718890504E+03  0.16718890504E+03  0.00000000000E+00 0. -1.
          1   -1    0    0  501    0 -0.00000000000E+00 -0.00000000000E+00 -0.21002940979E+04  0.21002940979E+04  0.00000000000E+00 0. -1.
         25    2    1    2    0    0  0.62423419711E+02  0.82508109427E+02  0.62228687791E+02  0.17378773439E+03  0.12500198235E+03 0.  0.
          2    1    1    2  501    0 -0.54666333546E+02 -0.11433514821E+03 -0.20368625915E+04  0.20408013501E+04  0.00000000000E+00 0. -1.
          1    1    1    2  502    0 -0.77570861657E+01  0.31827038779E+02  0.41528710820E+02  0.52893918418E+02  0.00000000000E+00 0. -1.
         22    1    3    3    0    0  0.34767223832E+01  0.45009840015E+02 -0.32828751927E+02  0.55818457967E+02  0.00000000000E+00 0.  1.
         22    1    3    3    0    0  0.58946697328E+02  0.37498269413E+02  0.95057439719E+02  0.11796927643E+03  0.00000000000E+00 0.  1.
</event>
<event>
 7    1  0.6507405E-006  0.4528870E+02  0.7818608E-02  0.1549455E+00
          2   -1    0    0  502    0  0.00000000000E+00  0.00000000000E+00  0.14576101251E+04  0.14576101251E+04  0.00000000000E+00 0. -1.
          1   -1    0    0  501    0 -0.00000000000E+00 -0.00000000000E+00 -0.32817403696E+03  0.32817403696E+03  0.00000000000E+00 0. -1.
         25    2    1    2    0    0  0.79828002855E+01 -0.27869639159E+02  0.33611431019E+03  0.35978987002E+03  0.12504190966E+03 0.  0.
          2    1    1    2  501    0  0.26788602318E+02 -0.24497066317E+01 -0.31528375951E+03  0.31642926427E+03  0.00000000000E+00 0. -1.
          1    1    1    2  502    0 -0.34771402603E+02  0.30319345791E+02  0.11086055374E+04  0.11095650277E+04  0.00000000000E+00 0. -1.
         22    1    3    3    0    0 -0.25185140702E+02 -0.38590561033E+02  0.31641094429E+03  0.31974897714E+03  0.00000000000E+00 0.  1.
         22    1    3    3    0    0  0.33167940988E+02  0.10720921873E+02  0.19703365891E+02  0.40040892880E+02  0.00000000000E+00 0.  1.
</event>
<event>
 7    1  0.6507405E-006  0.1741206E+03  0.7818608E-02  0.1275192E+00
          2   -1    0    0  502    0  0.00000000000E+00  0.00000000000E+00  0.19774427964E+04  0.19774427964E+04  0.00000000000E+00 0. -1.
          1   -1    0    0  501    0 -0.00000000000E+00 -0.00000000000E+00 -0.58127650740E+03  0.58127650740E+03  0.00000000000E+00 0. -1.
         25    2    1    2    0    0 -0.14682865507E+03 -0.65425778977E+02 -0.69964199249E+02  0.21532133150E+03  0.12501639940E+03 0.  0.
          2    1    1    2  501    0  0.17882424049E+03  0.14314190244E+02 -0.41978892872E+03  0.45651478585E+03  0.00000000000E+00 0. -1.
          1    1    1    2  502    0 -0.31995585418E+02  0.51111588732E+02  0.18859194170E+04  0.18868831864E+04  0.00000000000E+00 0. -1.
         22    1    3    3    0    0 -0.31073220169E+02 -0.65182075456E+02  0.12382513566E+02  0.73263733284E+02  0.00000000000E+00 0.  1.
         22    1    3    3    0    0 -0.11575543490E+03 -0.24370352058E+00 -0.82346712815E+02  0.14205759822E+03  0.00000000000E+00 0.  1.
</event>
<event>
 7    1  0.6507405E-006  0.1160079E+03  0.7818608E-02  0.1331685E+00
          2   -1    0    0  502    0  0.00000000000E+00  0.00000000000E+00  0.11312067631E+04  0.11312067631E+04  0.00000000000E+00 0. -1.
          1   -1    0    0  501    0 -0.00000000000E+00 -0.00000000000E+00 -0.97812927167E+03  0.97812927167E+03  0.00000000000E+00 0. -1.
         25    2    1    2    0    0 -0.11445483457E+03  0.11352053259E+03  0.40531278168E+03  0.45375710032E+03  0.12502093672E+03 0.  0.
          2    1    1    2  501    0  0.31928851645E+02 -0.43432903622E+02 -0.94896088733E+03  0.95049073344E+03  0.00000000000E+00 0. -1.
          1    1    1    2  502    0  0.82525982923E+02 -0.70087628972E+02  0.69672559703E+03  0.70508820097E+03  0.00000000000E+00 0. -1.
         22    1    3    3    0    0 -0.63698934835E+02  0.47297960369E+02  0.62678143389E+02  0.10110984627E+03  0.00000000000E+00 0. -1.
         22    1    3    3    0    0 -0.50755899733E+02  0.66222572225E+02  0.34263463829E+03  0.35264725405E+03  0.00000000000E+00 0. -1.
</event>
<event>
 7    1  0.6507405E-006  0.1092990E+03  0.7818608E-02  0.1460078E+00
          2   -1    0    0  502    0  0.00000000000E+00  0.00000000000E+00  0.16153081884E+03  0.16153081884E+03  0.00000000000E+00 0. -1.
          1   -1    0    0  501    0 -0.00000000000E+00 -0.00000000000E+00 -0.52823686986E+03  0.52823686986E+03  0.00000000000E+00 0. -1.
         25    2    1    2    0    0 -0.85763870908E+02  0.35519785455E+02 -0.37589574907E+03  0.40686489000E+03  0.12499731131E+03 0.  0.
          2    1    1    2  501    0 -0.20011003766E+02 -0.45798498792E+01 -0.11502696979E+03  0.11684442253E+03  0.00000000000E+00 0. -1.
          1    1    1    2  502    0  0.10577487467E+03 -0.30939935576E+02  0.12421666784E+03  0.16605837617E+03  0.00000000000E+00 0. -1.
         22    1    3    3    0    0 -0.11111291093E+03  0.15552453232E+01 -0.30028009056E+03  0.32018218337E+03  0.00000000000E+00 0. -1.
         22    1    3    3    0    0  0.25349040022E+02  0.33964540132E+02 -0.75615658506E+02  0.86682706624E+02  0.00000000000E+00 0. -1.
</event>
<event>
 7    1  0.6507405E-006  0.5691779E+02  0.7818608E-02  0.1421769E+00
          2   -1    0    0  502    0  0.00000000000E+00  0.00000000000E+00  0.18499192853E+03  0.18499192853E+03  0.00000000000E+00 0. -1.
          1   -1    0    0  501    0 -0.00000000000E+00 -0.00000000000E+00 -0.69752289928E+03  0.69752289928E+03  0.00000000000E+00 0. -1.
         25    2    1    2    0    0  0.22897665123E+02 -0.15319170975E+02 -0.23097484329E+03  0.26407460993E+03  0.12500816498E+03 0.  0.
          2    1    1    2  501    0 -0.43267463238E+02 -0.37828792205E+02 -0.44328129469E+03  0.44699149558E+03  0.00000000000E+00 0. -1.
          1    1    1    2  502    0  0.20369798115E+02  0.53147963180E+02  0.16172516723E+03  0.17144872231E+03  0.00000000000E+00 0. -1.
         22    1    3    3    0    0 -0.35369642254E+02  0.33263791733E+02 -0.61204831458E+02  0.78125046095E+02  0.00000000000E+00 0. -1.
         22    1    3    3    0    0  0.58267307377E+02 -0.48582962708E+02 -0.16977001183E+03  0.18594956384E+03  0.00000000000E+00 0. -1.
</event>
<event>
 7    1  0.6507405E-006  0.6966014E+02  0.7818608E-02  0.1398971E+00
          2   -1    0    0  502    0  0.00000000000E+00  0.00000000000E+00  0.59874834229E+03  0.59874834229E+03  0.00000000000E+00 0. -1.
          1   -1    0    0  501    0 -0.00000000000E+00 -0.00000000000E+00 -0.54142829402E+03  0.54142829402E+03  0.00000000000E+00 0. -1.
         25    2    1    2    0    0 -0.15300326185E+02  0.62374008954E+02  0.39638484389E+02  0.14601140727E+03  0.12499401840E+03 0.  0.
          2    1    1    2  501    0  0.59782010543E+02 -0.36991012037E+02 -0.48440180300E+03  0.48947658831E+03  0.00000000000E+00 0. -1.
          1    1    1    2  502    0 -0.44481684358E+02 -0.25382996917E+02  0.50208336688E+03  0.50468864072E+03  0.00000000000E+00 0. -1.
         22    1    3    3    0    0 -0.36504742632E+02  0.26746189868E+02 -0.37278778593E+02  0.58631580573E+02  0.00000000000E+00 0. -1.
         22    1    3    3    0    0  0.21204416447E+02  0.35627819086E+02  0.76917262982E+02  0.87379826701E+02  0.00000000000E+00 0. -1.
</event>
<event>
 7    1  0.6507405E-006  0.1122141E+03  0.7818608E-02  0.1286628E+00
          2   -1    0    0  502    0  0.00000000000E+00  0.00000000000E+00  0.10283400103E+04  0.10283400103E+04  0.00000000000E+00 0. -1.
          1   -1    0    0  501    0 -0.00000000000E+00 -0.00000000000E+00 -0.15898547676E+03  0.15898547676E+03  0.00000000000E+00 0. -1.
         25    2    1    2    0    0 -0.28460247423E+02 -0.17620294698E+03  0.84328849950E+02  0.23365330260E+03  0.12500018670E+03 0.  0.
          2    1    1    2  501    0 -0.65813025236E+01  0.99935260871E+02 -0.51726573729E+02  0.11272093123E+03  0.00000000000E+00 0. -1.
          1    1    1    2  502    0  0.35041549947E+02  0.76267686110E+02  0.83675225733E+03  0.84095125324E+03  0.00000000000E+00 0. -1.
         22    1    3    3    0    0 -0.65661107864E+02 -0.10846700925E+03  0.11247417517E+02  0.12729091712E+03  0.00000000000E+00 0.  1.
         22    1    3    3    0    0  0.37200860441E+02 -0.67735937733E+02  0.73081432433E+02  0.10636238548E+03  0.00000000000E+00 0.  1.
</event>
<event>
 7    1  0.6507405E-006  0.7048317E+02  0.7818608E-02  0.1397033E+00
          2   -1    0    0  502    0  0.00000000000E+00  0.00000000000E+00  0.70984895316E+03  0.70984895316E+03  0.00000000000E+00 0. -1.
          1   -1    0    0  501    0 -0.00000000000E+00 -0.00000000000E+00 -0.23107368753E+04  0.23107368753E+04  0.00000000000E+00 0. -1.
         25    2    1    2    0    0 -0.18646431763E+02  0.98332576211E+01  0.57639791023E+02  0.13925478002E+03  0.12500066350E+03 0.  0.
          2    1    1    2  501    0  0.47872270088E+02 -0.52117217488E+02 -0.22682962491E+04  0.22693998837E+04  0.00000000000E+00 0. -1.
          1    1    1    2  502    0 -0.29225838325E+02  0.42283959867E+02  0.60976853595E+03  0.61193116469E+03  0.00000000000E+00 0. -1.
         22    1    3    3    0    0 -0.66082532446E+02  0.15581225465E+02  0.48748492514E+01  0.68069375175E+02  0.00000000000E+00 0.  1.
         22    1    3    3    0    0  0.47436100682E+02 -0.57479678435E+01  0.52764941772E+02  0.71185404841E+02  0.00000000000E+00 0.  1.
</event>
<event>
 7    1  0.6507405E-006  0.6082121E+02  0.7818608E-02  0.1493864E+00
          2   -1    0    0  502    0  0.00000000000E+00  0.00000000000E+00  0.21325033234E+04  0.21325033234E+04  0.00000000000E+00 0. -1.
          1   -1    0    0  501    0 -0.00000000000E+00 -0.00000000000E+00 -0.13092412640E+03  0.13092412640E+03  0.00000000000E+00 0. -1.
         25    2    1    2    0    0 -0.17884707612E+02 -0.64907461431E+02  0.32570567136E+03  0.35530804482E+03  0.12500712394E+03 0.  0.
          2    1    1    2  501    0  0.39857756167E+02  0.45938417046E+02 -0.10803325505E+03  0.12397646181E+03  0.00000000000E+00 0. -1.
          1    1    1    2  502    0 -0.21973048555E+02  0.18969044385E+02  0.17839067807E+04  0.17841429432E+04  0.00000000000E+00 0. -1.
         22    1    3    3    0    0  0.20517438681E+01  0.31416605455E+02  0.29305372389E+02  0.43011830955E+02  0.00000000000E+00 0. -1.
         22    1    3    3    0    0 -0.19936451480E+02 -0.96324066886E+02  0.29640029898E+03  0.31229621386E+03  0.00000000000E+00 0. -1.
</event>
<event>
 7    1  0.6507405E-006  0.4955812E+02  0.7818608E-02  0.1459450E+00
          2   -1    0    0  502    0  0.00000000000E+00  0.00000000000E+00  0.19245950328E+03  0.19245950328E+03  0.00000000000E+00 0. -1.
          1   -1    0    0  501    0 -0.00000000000E+00 -0.00000000000E+00 -0.16014972842E+04  0.16014972842E+04  0.00000000000E+00 0. -1.
         25    2    1    2    0    0  0.53137813226E+02  0.44060467041E+02 -0.86089062404E+03  0.87265304201E+03  0.12500285285E+03 0.  0.
          2    1    1    2  501    0 -0.48849341703E+02  0.12186118542E+01 -0.73112599139E+03  0.73275709378E+03  0.00000000000E+00 0. -1.
          1    1    1    2  502    0 -0.42884715230E+01 -0.45279078895E+02  0.18297883453E+03  0.18854665168E+03  0.00000000000E+00 0. -1.
         22    1    3    3    0    0  0.66013527730E+02  0.66944494746E+02 -0.80951401998E+03  0.81495539741E+03  0.00000000000E+00 0. -1.
         22    1    3    3    0    0 -0.12875714504E+02 -0.22884027704E+02 -0.51376604055E+02  0.57697644598E+02  0.00000000000E+00 0. -1.
</event>
<event>
 7    1  0.6507405E-006  0.1319623E+03  0.7818608E-02  0.1386647E+00
          2   -1    0    0  502    0  0.00000000000E+00  0.00000000000E+00  0.69795273225E+03  0.69795273225E+03  0.00000000000E+00 0. -1.
          1   -1    0    0  501    0 -0.00000000000E+00 -0.00000000000E+00 -0.15170327736E+04  0.15170327736E+04  0.00000000000E+00 0. -1.
         25    2    1    2    0    0 -0.66604480925E+02 -0.11061206779E+03  0.11785797658E+03  0.21491078129E+03  0.12499981942E+03 0.  0.
          2    1    1    2  501    0  0.25338387386E+02 -0.15755005932E+02 -0.14600405342E+04  0.14603453754E+04  0.00000000000E+00 0. -1.
          1    1    1    2  502    0  0.41266093539E+02  0.12636707372E+03  0.52310251625E+03  0.53972934913E+03  0.00000000000E+00 0. -1.
         22    1    3    3    0    0 -0.77360758320E+02 -0.96812116971E+01  0.56778503959E+02  0.96447971983E+02  0.00000000000E+00 0. -1.
         22    1    3    3    0    0  0.10756277395E+02 -0.10093085609E+03  0.61079472616E+02  0.11846280931E+03  0.00000000000E+00 0. -1.
</event>
<event>
 7    1  0.6507405E-006  0.7569438E+02  0.7818608E-02  0.1461181E+00
          2   -1    0    0  502    0  0.00000000000E+00  0.00000000000E+00  0.24302026269E+04  0.24302026269E+04  0.00000000000E+00 0. -1.
          1   -1    0    0  501    0 -0.00000000000E+00 -0.00000000000E+00 -0.42394156703E+02  0.42394156703E+02  0.00000000000E+00 0. -1.
         25    2    1    2    0    0  0.92485280092E+02  0.12568156189E+02  0.93643470257E+03  0.94934026723E+03  0.12500202086E+03 0.  0.
          2    1    1    2  501    0 -0.74349389151E+02  0.10578634041E+02  0.36002944876E+01  0.75184448430E+02  0.00000000000E+00 0. -1.
          1    1    1    2  502    0 -0.18135890941E+02 -0.23146790230E+02  0.14477734731E+04  0.14480720679E+04  0.00000000000E+00 0. -1.
         22    1    3    3    0    0  0.10401179351E+03  0.37655590244E+02  0.50265543015E+03  0.51468327943E+03  0.00000000000E+00 0.  1.
         22    1    3    3    0    0 -0.11526513422E+02 -0.25087434055E+02  0.43377927242E+03  0.43465698780E+03  0.00000000000E+00 0.  1.
</event>
<event>
 7    1  0.6507405E-006  0.6194127E+02  0.7818608E-02  0.1451273E+00
          2   -1    0    0  502    0  0.00000000000E+00  0.00000000000E+00  0.84099400297E+03  0.84099400297E+03  0.00000000000E+00 0. -1.
          1   -1    0    0  501    0 -0.00000000000E+00 -0.00000000000E+00 -0.10898021815E+03  0.10898021815E+03  0.00000000000E+00 0. -1.
         25    2    1    2    0    0  0.49636672751E+02  0.54363840563E+02  0.24330306996E+03  0.28326880406E+03  0.12500242022E+03 0.  0.
          2    1    1    2  501    0 -0.59506918864E+02 -0.17014893992E+02 -0.77498642105E+02  0.99179733507E+02  0.00000000000E+00 0. -1.
          1    1    1    2  502    0  0.98702461132E+01 -0.37348946571E+02  0.56620935697E+03  0.56752568355E+03  0.00000000000E+00 0. -1.
         22    1    3    3    0    0  0.74524888608E+02  0.14800969794E+01  0.19026012298E+03  0.20434055913E+03  0.00000000000E+00 0.  1.
         22    1    3    3    0    0 -0.24888215857E+02  0.52883743583E+02  0.53042946988E+02  0.78928244938E+02  0.00000000000E+00 0.  1.
</event>
<event>
 7    1  0.6507405E-006  0.2041029E+03  0.7818608E-02  0.1377350E+00
          2   -1    0    0  502    0  0.00000000000E+00  0.00000000000E+00  0.15754484020E+04  0.15754484020E+04  0.00000000000E+00 0. -1.
          1   -1    0    0  501    0 -0.00000000000E+00 -0.00000000000E+00 -0.14905748988E+04  0.14905748988E+04  0.00000000000E+00 0. -1.
         25    2    1    2    0    0 -0.90513140337E+02  0.19337648412E+03  0.46192420388E+03  0.52400973582E+03  0.12500055971E+03 0.  0.
          2    1    1    2  501    0 -0.94776733758E+01 -0.18521863939E+02 -0.14500866524E+04  0.14502359068E+04  0.00000000000E+00 0. -1.
          1    1    1    2  502    0  0.99990813713E+02 -0.17485462018E+03  0.10730359518E+04  0.10917776582E+04  0.00000000000E+00 0. -1.
         22    1    3    3    0    0 -0.24777079792E+01  0.69865048124E+01  0.14965998992E+03  0.14984346122E+03  0.00000000000E+00 0.  1.
         22    1    3    3    0    0 -0.88035432358E+02  0.18638997930E+03  0.31226421395E+03  0.37416627460E+03  0.00000000000E+00 0.  1.
</event>
<event>
 7    1  0.6507405E-006  0.1110033E+03  0.7818608E-02  0.1267236E+00
          2   -1    0    0  502    0  0.00000000000E+00  0.00000000000E+00  0.24251392670E+04  0.24251392670E+04  0.00000000000E+00 0. -1.
          1   -1    0    0  501    0 -0.00000000000E+00 -0.00000000000E+00 -0.48342434189E+03  0.48342434189E+03  0.00000000000E+00 0. -1.
         25    2    1    2    0    0 -0.61729273684E+02  0.16126132989E+03  0.40266329847E+03  0.45560759280E+03  0.12499930775E+03 0.  0.
          2    1    1    2  501    0 -0.27377432807E+02 -0.98398030974E+02 -0.44973252684E+03  0.46118439048E+03  0.00000000000E+00 0. -1.
          1    1    1    2  502    0  0.89106706491E+02 -0.62863298919E+02  0.19887841535E+04  0.19917716256E+04  0.00000000000E+00 0. -1.
         22    1    3    3    0    0 -0.54369483515E+02  0.35000582764E+02  0.52458324833E+02  0.83264382396E+02  0.00000000000E+00 0. -1.
         22    1    3    3    0    0 -0.73597901686E+01  0.12626074713E+03  0.35020497364E+03  0.37234321041E+03  0.00000000000E+00 0. -1.
</event>
<event>
 7    1  0.6507405E-006  0.6659963E+02  0.7818608E-02  0.1488252E+00
          2   -1    0    0  502    0  0.00000000000E+00  0.00000000000E+00  0.83760198420E+03  0.83760198420E+03  0.00000000000E+00 0. -1.
          1   -1    0    0  501    0 -0.00000000000E+00 -0.00000000000E+00 -0.64006868130E+02  0.64006868130E+02  0.00000000000E+00 0. -1.
         25    2    1    2    0    0  0.21299797971E+02  0.43789499299E+02  0.33235742641E+03  0.35840922833E+03  0.12499805766E+03 0.  0.
          2    1    1    2  501    0  0.26350961858E+02  0.80905644708E+01 -0.44518968829E+02  0.52361904185E+02  0.00000000000E+00 0. -1.
          1    1    1    2  502    0 -0.47650759829E+02 -0.51880063770E+02  0.48575665849E+03  0.49083771982E+03  0.00000000000E+00 0. -1.
         22    1    3    3    0    0 -0.38371923355E+02  0.20491995349E+02  0.25158752906E+03  0.25532060464E+03  0.00000000000E+00 0.  1.
         22    1    3    3    0    0  0.59671721325E+02  0.23297503950E+02  0.80769897355E+02  0.10308862369E+03  0.00000000000E+00 0.  1.
</event>
<event>
 7    1  0.6507405E-006  0.1646061E+03  0.7818608E-02  0.1404697E+00
          2   -1    0    0  502    0  0.00000000000E+00  0.00000000000E+00  0.30602759697E+03  0.30602759697E+03  0.00000000000E+00 0. -1.
          1   -1    0    0  501    0 -0.00000000000E+00 -0.00000000000E+00 -0.25222106288E+03  0.25222106288E+03  0.00000000000E+00 0. -1.
         25    2    1    2    0    0 -0.72281212949E+02  0.13358004671E+03  0.19353513952E+03  0.27594927359E+03  0.12499579491E+03 0.  0.
          2    1    1    2  501    0  0.92405054786E+02 -0.13849477585E+03 -0.17490457944E+03  0.24147693264E+03  0.00000000000E+00 0. -1.
          1    1    1    2  502    0 -0.20123841837E+02  0.49147291441E+01  0.35175974009E+02  0.40822453630E+02  0.00000000000E+00 0. -1.
         22    1    3    3    0    0 -0.75331116079E+02  0.72854980674E+02  0.18756358792E+03  0.21485512508E+03  0.00000000000E+00 0.  1.
         22    1    3    3    0    0  0.30499031295E+01  0.60725066033E+02  0.59715515938E+01  0.61094148510E+02  0.00000000000E+00 0.  1.
</event>
<event>
 7    1  0.6507405E-006  0.3100337E+02  0.7818608E-02  0.1648413E+00
          2   -1    0    0  502    0  0.00000000000E+00  0.00000000000E+00  0.18508498199E+04  0.18508498199E+04  0.00000000000E+00 0. -1.
          1   -1    0    0  501    0 -0.00000000000E+00 -0.00000000000E+00 -0.93865405982E+02  0.93865405982E+02  0.00000000000E+00 0. -1.
         25    2    1    2    0    0  0.14119582077E+01  0.15961011136E+02  0.91707486990E+03  0.92569330007E+03  0.12500008515E+03 0.  0.
          2    1    1    2  501    0 -0.18417033741E+02  0.11353266073E+02 -0.87966589321E+02  0.90588104181E+02  0.00000000000E+00 0. -1.
          1    1    1    2  502    0  0.17005075533E+02 -0.27314277209E+02  0.92787613337E+03  0.92843382166E+03  0.00000000000E+00 0. -1.
         22    1    3    3    0    0  0.78899347908E+01  0.29427793113E+02  0.90735532355E+03  0.90786669134E+03  0.00000000000E+00 0. -1.
         22    1    3    3    0    0 -0.64779765831E+01 -0.13466781977E+02  0.97195463541E+01  0.17826608728E+02  0.00000000000E+00 0. -1.
</event>
<event>
 7    1  0.6507405E-006  0.9898497E+02  0.7818608E-02  0.1423458E+00
          2   -1    0    0  502    0  0.00000000000E+00  0.00000000000E+00  0.34086299757E+03  0.34086299757E+03  0.00000000000E+00 0. -1.
          1   -1    0    0  501    0 -0.00000000000E+00 -0.00000000000E+00 -0.26321756674E+03  0.26321756674E+03  0.00000000000E+00 0. -1.
         25    2    1    2    0    0 -0.85587010081E+01 -0.11859010455E+03  0.55733148901E+01  0.17260648822E+03  0.12500029471E+03 0.  0.
          2    1    1    2  501    0  0.24191176255E+02  0.93239665842E+02 -0.16579656045E+03  0.19174813624E+03  0.00000000000E+00 0. -1.
          1    1    1    2  502    0 -0.15632475247E+02  0.25350438711E+02  0.23786867640E+03  0.23972593985E+03  0.00000000000E+00 0. -1.
         22    1    3    3    0    0 -0.12439253070E+01  0.75742115739E+01  0.40717484260E+02  0.41434641975E+02  0.00000000000E+00 0.  1.
         22    1    3    3    0    0 -0.73147757011E+01 -0.12616431613E+03 -0.35144169370E+02  0.13117184625E+03  0.00000000000E+00 0.  1.
</event>
<event>
 7    1  0.6507405E-006  0.7422366E+02  0.7818608E-02  0.1360758E+00
          2   -1    0    0  502    0  0.00000000000E+00  0.00000000000E+00  0.18135716765E+04  0.18135716765E+04  0.00000000000E+00 0. -1.
          1   -1    0    0  501    0 -0.00000000000E+00 -0.00000000000E+00 -0.26634345197E+02  0.26634345197E+02  0.00000000000E+00 0. -1.
         25    2    1    2    0    0  0.20946562131E+01  0.21566800777E+02  0.55159086381E+03  0.56599253920E+03  0.12500223562E+03 0.  0.
          2    1    1    2  501    0  0.34071012299E+02  0.56115937350E+02  0.42306883141E+02  0.78100606047E+02  0.00000000000E+00 0. -1.
          1    1    1    2  502    0 -0.36165668512E+02 -0.77682738127E+02  0.11930395844E+04  0.11961128765E+04  0.00000000000E+00 0. -1.
         22    1    3    3    0    0  0.56487766247E+02  0.36683039420E+02  0.36045189057E+03  0.36669071237E+03  0.00000000000E+00 0. -1.
         22    1    3    3    0    0 -0.54393110034E+02 -0.15116238642E+02  0.19113897323E+03  0.19930182683E+03  0.00000000000E+00 0. -1.
</event>
<event>
 7    1  0.6507405E-006  0.1028952E+03  0.7818608E-02  0.1349451E+00
          2   -1    0    0  502    0  0.00000000000E+00  0.00000000000E+00  0.67156576402E+03  0.67156576402E+03  0.00000000000E+00 0. -1.
          1   -1    0    0  501    0 -0.00000000000E+00 -0.00000000000E+00 -0.10987753957E+04  0.10987753957E+04  0.00000000000E+00 0. -1.
         25    2    1    2    0    0 -0.91594186427E+02 -0.64399336130E+01 -0.67417121930E+02  0.16911687248E+03  0.12499792196E+03 0.  0.
          2    1    1    2  501    0  0.86302184176E+02  0.58283565297E+02 -0.97664143440E+03  0.98217795351E+03  0.00000000000E+00 0. -1.
          1    1    1    2  502    0  0.52920022511E+01 -0.51843631684E+02  0.61684892466E+03  0.61904633372E+03  0.00000000000E+00 0. -1.
         22    1    3    3    0    0 -0.53022238452E+02  0.59766796648E+01 -0.10247533945E+03  0.11553472926E+03  0.00000000000E+00 0.  1.
         22    1    3    3    0    0 -0.38571947975E+02 -0.12416613278E+02  0.35058217519E+02  0.53582143215E+02  0.00000000000E+00 0.  1.
</event>
<event>
 7    1  0.6507405E-006  0.9863404E+02  0.7818608E-02  0.1342899E+00
          2   -1    0    0  502    0  0.00000000000E+00  0.00000000000E+00  0.57286995052E+02  0.57286995052E+02  0.00000000000E+00 0. -1.
          1   -1    0    0  501    0 -0.00000000000E+00 -0.00000000000E+00 -0.23177219059E+04  0.23177219059E+04  0.00000000000E+00 0. -1.
         25    2    1    2    0    0  0.33657721502E+02 -0.33906640912E+02 -0.19915965160E+03  0.23994345953E+03  0.12500317769E+03 0.  0.
          2    1    1    2  501    0 -0.88995573477E+02  0.49558120067E+02 -0.20737244155E+04  0.20762247399E+04  0.00000000000E+00 0. -1.
          1    1    1    2  502    0  0.55337851975E+02 -0.15651479155E+02  0.12449156227E+02  0.58840701489E+02  0.00000000000E+00 0. -1.
         22    1    3    3    0    0  0.54134296028E+02 -0.66071926216E+02 -0.17519350392E+03  0.19490711956E+03  0.00000000000E+00 0.  1.
         22    1    3    3    0    0 -0.20476574526E+02  0.32165285304E+02 -0.23966147675E+02  0.45036339964E+02  0.00000000000E+00 0.  1.
</event>
<event>
 7    1  0.6507405E-006  0.7248599E+03  0.7818608E-02  0.1178385E+00
          2   -1    0    0  502    0  0.00000000000E+00  0.00000000000E+00  0.23933954635E+04  0.23933954635E+04  0.00000000000E+00 0. -1.
          1   -1    0    0  501    0 -0.00000000000E+00 -0.00000000000E+00 -0.91607841183E+03  0.91607841183E+03  0.00000000000E+00 0. -1.
         25    2    1    2    0    0  0.75106167724E+03  0.72487763255E+02  0.45346694662E+03  0.88915998818E+03  0.12500037627E+03 0.  0.
          2    1    1    2  501    0 -0.71222300339E+03 -0.80362922920E+02 -0.51397340120E+03  0.88197985413E+03  0.00000000000E+00 0. -1.
          1    1    1    2  502    0 -0.38838673850E+02  0.78751596659E+01  0.15378235062E+04  0.15383340330E+04  0.00000000000E+00 0. -1.
         22    1    3    3    0    0  0.49199599356E+03  0.10613009927E+03  0.30991516915E+03  0.59107619451E+03  0.00000000000E+00 0.  1.
         22    1    3    3    0    0  0.25906568368E+03 -0.33642336020E+02  0.14355177747E+03  0.29808379367E+03  0.00000000000E+00 0.  1.
</event>
<event>
 7    1  0.6507405E-006  0.5896219E+02  0.7818608E-02  0.1402853E+00
          2   -1    0    0  502    0  0.00000000000E+00  0.00000000000E+00  0.28578563631E+03  0.28578563631E+03  0.00000000000E+00 0. -1.
          1   -1    0    0  501    0 -0.00000000000E+00 -0.00000000000E+00 -0.33265261812E+03  0.33265261812E+03  0.00000000000E+00 0. -1.
         25    2    1    2    0    0 -0.27698438438E+00  0.35213630886E+01 -0.90560213071E+02  0.15439655055E+03  0.12499866364E+03 0.  0.
          2    1    1    2  501    0  0.46541472058E+02  0.35733815610E+02 -0.20231989406E+03  0.21065695748E+03  0.00000000000E+00 0. -1.
          1    1    1    2  502    0 -0.46264487674E+02 -0.39255178699E+02  0.24601312533E+03  0.25338474640E+03  0.00000000000E+00 0. -1.
         22    1    3    3    0    0  0.45709711284E+02 -0.35011377754E+02 -0.18171401085E+02  0.60376933470E+02  0.00000000000E+00 0. -1.
         22    1    3    3    0    0 -0.45986695668E+02  0.38532740842E+02 -0.72388811987E+02  0.94019617082E+02  0.00000000000E+00 0. -1.
</event>
<event>
 7    1  0.6507405E-006  0.6283756E+02  0.7818608E-02  0.1397779E+00
          2   -1    0    0  502    0  0.00000000000E+00  0.00000000000E+00  0.10423441692E+04  0.10423441692E+04  0.00000000000E+00 0. -1.
          1   -1    0    0  501    0 -0.00000000000E+00 -0.00000000000E+00 -0.22252152693E+03  0.22252152693E+03  0.00000000000E+00 0. -1.
         25    2    1    2    0    0 -0.37651472526E+02 -0.67494804251E+02 -0.10569473717E+02  0.14734237014E+03  0.12499951312E+03 0.  0.
          2    1    1    2  501    0 -0.23450149334E+02  0.52297888245E+02 -0.13678053684E+03  0.14830338457E+03  0.00000000000E+00 0. -1.
          1    1    1    2  502    0  0.61101621860E+02  0.15196916006E+02  0.96717265284E+03  0.96921994143E+03  0.00000000000E+00 0. -1.
         22    1    3    3    0    0  0.21335107488E+02 -0.65901840988E+02  0.30255302446E+02  0.75588509598E+02  0.00000000000E+00 0. -1.
         22    1    3    3    0    0 -0.58986580014E+02 -0.15929632629E+01 -0.40824776163E+02  0.71753860541E+02  0.00000000000E+00 0. -1.
</event>
<event>
 7    1  0.6507405E-006  0.9468207E+02  0.7818608E-02  0.1351936E+00
          2   -1    0    0  502    0  0.00000000000E+00  0.00000000000E+00  0.28243047974E+03  0.28243047974E+03  0.00000000000E+00 0. -1.
          1   -1    0    0  501    0 -0.00000000000E+00 -0.00000000000E+00 -0.54255488983E+03  0.54255488983E+03  0.00000000000E+00 0. -1.
         25    2    1    2    0    0  0.63272968937E+02  0.22538228281E+02 -0.29429381301E+02  0.14492667943E+03  0.12500485429E+03 0.  0.
          2    1    1    2  501    0  0.33770287174E+02 -0.43976394894E+02 -0.44257173500E+03  0.44603149689E+03  0.00000000000E+00 0. -1.
          1    1    1    2  502    0 -0.97043256111E+02  0.21438166612E+02  0.21187670620E+03  0.23402719324E+03  0.00000000000E+00 0. -1.
         22    1    3    3    0    0  0.70938508393E+02 -0.38270520664E+02 -0.17719018864E+02  0.82527985280E+02  0.00000000000E+00 0.  1.
         22    1    3    3    0    0 -0.76655394566E+01  0.60808748945E+02 -0.11710362437E+02  0.62398694151E+02  0.00000000000E+00 0.  1.
</event>
<event>
 7    1  0.6507405E-006  0.6635965E+02  0.7818608E-02  0.1490724E+00
          2   -1    0    0  502    0  0.00000000000E+00  0.00000000000E+00  0.19246134264E+04  0.19246134264E+04  0.00000000000E+00 0. -1.
          1   -1    0    0  501    0 -0.00000000000E+00 -0.00000000000E+00 -0.58082577543E+03  0.58082577543E+03  0.00000000000E+00 0. -1.
         25    2    1    2    0    0  0.55730958599E+02 -0.17697800865E+02  0.61450573476E+03  0.62981013127E+03  0.12499740595E+03 0.  0.
          2    1    1    2  501    0 -0.49566901844E+02  0.44181982859E+02 -0.57110793224E+03  0.57495495096E+03  0.00000000000E+00 0. -1.
          1    1    1    2  502    0 -0.61640567548E+01 -0.26484181994E+02  0.13003898484E+04  0.13006741196E+04  0.00000000000E+00 0. -1.
         22    1    3    3    0    0 -0.50984613632E+01 -0.22563219646E+02  0.49578330957E+03  0.49632266041E+03  0.00000000000E+00 0. -1.
         22    1    3    3    0    0  0.60829419962E+02  0.48654187808E+01  0.11872242519E+03  0.13348747085E+03  0.00000000000E+00 0. -1.
</event>
<event>
 7    1  0.6507405E-006  0.7946811E+02  0.7818608E-02  0.1338378E+00
          2   -1    0    0  502    0  0.00000000000E+00  0.00000000000E+00  0.59581063154E+03  0.59581063154E+03  0.00000000000E+00 0. -1.
          1   -1    0    0  501    0 -0.00000000000E+00 -0.00000000000E+00 -0.71982640383E+03  0.71982640383E+03  0.00000000000E+00 0. -1.
         25    2    1    2    0    0 -0.78417513770E+00 -0.13206702439E+02 -0.22193057148E+03  0.25505434916E+03  0.12499804218E+03 0.  0.
          2    1    1    2  501    0 -0.69937835480E+02 -0.24865736934E+02 -0.47565741370E+03  0.48141414698E+03  0.00000000000E+00 0. -1.
          1    1    1    2  502    0  0.70722010618E+02  0.38072439373E+02  0.57357221289E+03  0.57916853922E+03  0.00000000000E+00 0. -1.
         22    1    3    3    0    0  0.88931712251E+01  0.73629470337E+01  0.13934595511E+02  0.18096254738E+02  0.00000000000E+00 0.  1.
         22    1    3    3    0    0 -0.96773463628E+01 -0.20569649473E+02 -0.23586516699E+03  0.23695809442E+03  0.00000000000E+00 0.  1.
</event>
<event>
 7    1  0.6507405E-006  0.4633411E+02  0.7818608E-02  0.1468197E+00
          2   -1    0    0  502    0  0.00000000000E+00  0.00000000000E+00  0.30257452291E+04  0.30257452291E+04  0.00000000000E+00 0. -1.
          1   -1    0    0  501    0 -0.00000000000E+00 -0.00000000000E+00 -0.16821013644E+02  0.16821013644E+02  0.00000000000E+00 0. -1.
         25    2    1    2    0    0 -0.49662410676E+02 -0.12771431175E+02  0.15419610859E+04  0.15478687018E+04  0.12499625278E+03 0.  0.
          2    1    1    2  501    0  0.32296066117E+02 -0.32287025635E+02  0.25263438476E+02  0.52189359401E+02  0.00000000000E+00 0. -1.
          1    1    1    2  502    0  0.17366344558E+02  0.45058456810E+02  0.14416996911E+04  0.14425081815E+04  0.00000000000E+00 0. -1.
         22    1    3    3    0    0 -0.79552426211E+02  0.26099117509E+02  0.11043262571E+04  0.11074954783E+04  0.00000000000E+00 0.  1.
         22    1    3    3    0    0  0.29890015535E+02 -0.38870548683E+02  0.43763482880E+03  0.44037322349E+03  0.00000000000E+00 0.  1.
</event>
<event>
 7    1  0.6507405E-006  0.4514413E+02  0.7818608E-02  0.1517146E+00
          2   -1    0    0  502    0  0.00000000000E+00  0.00000000000E+00  0.32928257180E+03  0.32928257180E+03  0.00000000000E+00 0. -1.
          1   -1    0    0  501    0 -0.00000000000E+00 -0.00000000000E+00 -0.10542068327E+04  0.10542068327E+04  0.00000000000E+00 0. -1.
         25    2    1    2    0    0  0.29305986054E+01 -0.77201553389E+02 -0.46345021641E+02  0.15408294245E+03  0.12500009548E+03 0.  0.
          2    1    1    2  501    0  0.38428699107E+01  0.33144764484E+02 -0.95189508007E+03  0.95247970400E+03  0.00000000000E+00 0. -1.
          1    1    1    2  502    0 -0.67734685161E+01  0.44056788905E+02  0.27331584078E+03  0.27692675809E+03  0.00000000000E+00 0. -1.
         22    1    3    3    0    0  0.18434024398E+01 -0.41123898637E+02 -0.89087966974E+02  0.98138876248E+02  0.00000000000E+00 0.  1.
         22    1    3    3    0    0  0.10871961656E+01 -0.36077654752E+02  0.42742945332E+02  0.55944066205E+02  0.00000000000E+00 0.  1.
</event>
<event>
 7    1  0.6507405E-006  0.1811441E+03  0.7818608E-02  0.1280651E+00
          2   -1    0    0  502    0  0.00000000000E+00  0.00000000000E+00  0.11594499872E+04  0.11594499872E+04  0.00000000000E+00 0. -1.
          1   -1    0    0  501    0 -0.00000000000E+00 -0.00000000000E+00 -0.33742735401E+03  0.33742735401E+03  0.00000000000E+00 0. -1.
         25    2    1    2    0    0 -0.78400201211E+02  0.11978591755E+03  0.86516965199E+03  0.88579809804E+03  0.12499794466E+03 0.  0.
          2    1    1    2  501    0  0.60839003862E+02 -0.17192686157E+03 -0.29853428856E+03  0.34983274799E+03  0.00000000000E+00 0. -1.
          1    1    1    2  502    0  0.17561197349E+02  0.52140944017E+02  0.25538726976E+03  0.26124649519E+03  0.00000000000E+00 0. -1.
         22    1    3    3    0    0 -0.70289125362E+01 -0.12000221482E+02  0.88993763048E+01  0.16510900207E+02  0.00000000000E+00 0. -1.
         22    1    3    3    0    0 -0.71371288675E+02  0.13178613903E+03  0.85627027569E+03  0.86928719783E+03  0.00000000000E+00 0. -1.
</event>
<event>
 7    1  0.6507405E-006  0.5567340E+02  0.7818608E-02  0.1421759E+00
          2   -1    0    0  502    0  0.00000000000E+00  0.00000000000E+00  0.52962234303E+03  0.52962234303E+03  0.00000000000E+00 0. -1.
          1   -1    0    0  501    0 -0.00000000000E+00 -0.00000000000E+00 -0.22828458330E+03  0.22828458330E+03  0.00000000000E+00 0. -1.
         25    2    1    2    0    0  0.49317005216E+02 -0.33816562814E+01  0.89970354141E+02  0.16174761831E+03  0.12499609914E+03 0.  0.
          2    1    1    2  501    0 -0.24689881480E+02  0.51041258476E+02 -0.18637841113E+03  0.19481199257E+03  0.00000000000E+00 0. -1.
          1    1    1    2  502    0 -0.24627123736E+02 -0.47659602195E+02  0.39774581672E+03  0.40134731545E+03  0.00000000000E+00 0. -1.
         22    1    3    3    0    0  0.79604718114E+02 -0.17001715601E+02  0.19290258494E+02  0.83654548903E+02  0.00000000000E+00 0.  1.
         22    1    3    3    0    0 -0.30287712898E+02  0.13620059320E+02  0.70680095647E+02  0.78093069405E+02  0.00000000000E+00 0.  1.
</event>
<event>
 7    1  0.6507405E-006  0.1373810E+03  0.7818608E-02  0.1221280E+00
          2   -1    0    0  502    0  0.00000000000E+00  0.00000000000E+00  0.23567830416E+04  0.23567830416E+04  0.00000000000E+00 0. -1.
          1   -1    0    0  501    0 -0.00000000000E+00 -0.00000000000E+00 -0.44187435622E+03  0.44187435622E+03  0.00000000000E+00 0. -1.
         25    2    1    2    0    0 -0.85492101769E+02  0.10794723485E+03 -0.19782195423E+02  0.18702347120E+03  0.12499975418E+03 0.  0.
          2    1    1    2  501    0  0.12904091364E+03  0.23665499665E+02 -0.32355285152E+03  0.34913902817E+03  0.00000000000E+00 0. -1.
          1    1    1    2  502    0 -0.43548811871E+02 -0.13161273452E+03  0.22582437323E+04  0.22624948984E+04  0.00000000000E+00 0. -1.
         22    1    3    3    0    0 -0.80068622843E+02  0.58242379356E+02 -0.65953368589E+02  0.11896640679E+03  0.00000000000E+00 0.  1.
         22    1    3    3    0    0 -0.54234789262E+01  0.49704855497E+02  0.46171173166E+02  0.68057064403E+02  0.00000000000E+00 0.  1.
</event>
<event>
 7    1  0.6507405E-006  0.5314837E+02  0.7818608E-02  0.1430148E+00
          2   -1    0    0  502    0  0.00000000000E+00  0.00000000000E+00  0.50257983758E+02  0.50257983758E+02  0.00000000000E+00 0. -1.
          1   -1    0    0  501    0 -0.00000000000E+00 -0.00000000000E+00 -0.13211820902E+04  0.13211820902E+04  0.00000000000E+00 0. -1.
         25    2    1    2    0    0 -0.21762023005E+02  0.43955599645E+01 -0.48896743870E+03  0.50518015399E+03  0.12499970112E+03 0.  0.
          2    1    1    2  501    0  0.36257062811E+02  0.46285298420E+02 -0.80612802135E+03  0.80826931790E+03  0.00000000000E+00 0. -1.
          1    1    1    2  502    0 -0.14495039806E+02 -0.50680858385E+02  0.24171353656E+02  0.57990602024E+02  0.00000000000E+00 0. -1.
         22    1    3    3    0    0 -0.65133868200E+02  0.16668212116E+02 -0.16625177004E+03  0.17933181849E+03  0.00000000000E+00 0. -1.
         22    1    3    3    0    0  0.43371845195E+02 -0.12272652152E+02 -0.32271566866E+03  0.32584833550E+03  0.00000000000E+00 0. -1.
</event>
<event>
 7    1  0.6507405E-006  0.3013306E+03  0.7818608E-02  0.1220811E+00
          2   -1    0    0  502    0  0.00000000000E+00  0.00000000000E+00  0.19884317721E+04  0.19884317721E+04  0.00000000000E+00 0. -1.
          1   -1    0    0  501    0 -0.00000000000E+00 -0.00000000000E+00 -0.15374467356E+03  0.15374467356E+03  0.00000000000E+00 0. -1.
         25    2    1    2    0    0  0.13829874882E+03  0.20957799184E+03  0.18957034242E+03  0.33854164765E+03  0.12499621545E+03 0.  0.
          2    1    1    2  501    0  0.26968007927E+02  0.53718625689E+02 -0.51267576401E+02  0.79002079640E+02  0.00000000000E+00 0. -1.
          1    1    1    2  502    0 -0.16526675674E+03 -0.26329661753E+03  0.16963843325E+04  0.17246327183E+04  0.00000000000E+00 0. -1.
         22    1    3    3    0    0  0.70517365120E+02  0.14802760068E+02  0.68386052199E+02  0.99340186352E+02  0.00000000000E+00 0. -1.
         22    1    3    3    0    0  0.67781383695E+02  0.19477523178E+03  0.12118429022E+03  0.23920146129E+03  0.00000000000E+00 0. -1.
</event>
<event>
 7    1  0.6507405E-006  0.6943452E+02  0.7818608E-02  0.1513390E+00
          2   -1    0    0  502    0  0.00000000000E+00  0.00000000000E+00  0.62565777870E+03  0.62565777870E+03  0.00000000000E+00 0. -1.
          1   -1    0    0  501    0 -0.00000000000E+00 -0.00000000000E+00 -0.12018800834E+04  0.12018800834E+04  0.00000000000E+00 0. -1.
         25    2    1    2    0    0 -0.35309705213E+02 -0.80680623695E+02  0.30151383899E+03  0.33807070312E+03  0.12500026754E+03 0.  0.
          2    1    1    2  501    0  0.86032985759E+01  0.20518704093E+02 -0.11799542270E+04  0.11801639766E+04  0.00000000000E+00 0. -1.
          1    1    1    2  502    0  0.26706406637E+02  0.60161919601E+02  0.30221808331E+03  0.30930318233E+03  0.00000000000E+00 0. -1.
         22    1    3    3    0    0 -0.25732128013E+02 -0.35218915039E+02  0.28567460660E+03  0.28898528551E+03  0.00000000000E+00 0. -1.
         22    1    3    3    0    0 -0.95775771993E+01 -0.45461708656E+02  0.15839232392E+02  0.49085417607E+02  0.00000000000E+00 0. -1.
</event>
<event>
 7    1  0.6507405E-006  0.1907194E+03  0.7818608E-02  0.1361834E+00
          2   -1    0    0  502    0  0.00000000000E+00  0.00000000000E+00  0.11784740217E+04  0.11784740217E+04  0.00000000000E+00 0. -1.
          1   -1    0    0  501    0 -0.00000000000E+00 -0.00000000000E+00 -0.12043185225E+04  0.12043185225E+04  0.00000000000E+00 0. -1.
         25    2    1    2    0    0  0.12936921117E+03  0.11632554114E+03 -0.57559679983E+03  0.61416615502E+03  0.12498146129E+03 0.  0.
          2    1    1    2  501    0 -0.12727524750E+01  0.25287584913E+02 -0.60130492101E+03  0.60183776043E+03  0.00000000000E+00 0. -1.
          1    1    1    2  502    0 -0.12809645870E+03 -0.14161312606E+03  0.11510572201E+04  0.11667886287E+04  0.00000000000E+00 0. -1.
         22    1    3    3    0    0  0.13361870475E+03  0.13512859077E+03 -0.55140311025E+03  0.58323158719E+03  0.00000000000E+00 0.  1.
         22    1    3    3    0    0 -0.42494935796E+01 -0.18803049626E+02 -0.24193689582E+02  0.30934567824E+02  0.00000000000E+00 0.  1.
</event>
<event>
 7    1  0.6507405E-006  0.1102451E+03  0.7818608E-02  0.1277739E+00
          2   -1    0    0  502    0  0.00000000000E+00  0.00000000000E+00  0.14789946168E+03  0.14789946168E+03  0.00000000000E+00 0. -1.
          1   -1    0    0  501    0 -0.00000000000E+00 -0.00000000000E+00 -0.48728428572E+03  0.48728428572E+03  0.00000000000E+00 0. -1.
         25    2    1    2    0    0 -0.50547207290E+00  0.28734170619E+02 -0.20147227714E+03  0.23883028897E+03  0.12499168137E+03 0.  0.
          2    1    1    2  501    0  0.30367284376E+01  0.92895146996E+02 -0.22718164592E+03  0.24545922329E+03  0.00000000000E+00 0. -1.
          1    1    1    2  502    0 -0.25312563647E+01 -0.12162931762E+03  0.89269099010E+02  0.15089423515E+03  0.00000000000E+00 0. -1.
         22    1    3    3    0    0  0.23330189978E+02  0.62185933991E+02 -0.53567746062E+02  0.85328140545E+02  0.00000000000E+00 0. -1.
         22    1    3    3    0    0 -0.23835662051E+02 -0.33451763372E+02 -0.14790453108E+03  0.15350214843E+03  0.00000000000E+00 0. -1.
</event>
<event>
 7    1  0.6507405E-006  0.2482846E+02  0.7818608E-02  0.1694138E+00
          2   -1    0    0  502    0  0.00000000000E+00  0.00000000000E+00  0.78204169383E+03  0.78204169383E+03  0.00000000000E+00 0. -1.
          1   -1    0    0  501    0 -0.00000000000E+00 -0.00000000000E+00 -0.11969476123E+04  0.11969476123E+04  0.00000000000E+00 0. -1.
         25    2    1    2    0    0 -0.17925104586E+02  0.40176897734E+02 -0.24642623659E+03  0.27979268843E+03  0.12499026336E+03 0.  0.
          2    1    1    2  501    0  0.13985453718E+02 -0.15676690802E+02 -0.93351879665E+03  0.93375515809E+03  0.00000000000E+00 0. -1.
          1    1    1    2  502    0  0.39396508676E+01 -0.24500206931E+02  0.76503911476E+03  0.76544145962E+03  0.00000000000E+00 0. -1.
         22    1    3    3    0    0  0.21181536757E+02 -0.32747444428E+02 -0.33716497043E+02  0.51554386707E+02  0.00000000000E+00 0. -1.
         22    1    3    3    0    0 -0.39106641343E+02  0.72924342161E+02 -0.21270973954E+03  0.22823830172E+03  0.00000000000E+00 0. -1.
</event>
<event>
 7    1  0.6507405E-006  0.1277922E+03  0.7818608E-02  0.1233175E+00
          2   -1    0    0  502    0  0.00000000000E+00  0.00000000000E+00  0.16612992005E+04  0.16612992005E+04  0.00000000000E+00 0. -1.
          1   -1    0    0  501    0 -0.00000000000E+00 -0.00000000000E+00 -0.21351909042E+03  0.21351909042E+03  0.00000000000E+00 0. -1.
         25    2    1    2    0    0  0.71870581693E+01 -0.17312008845E+03  0.22430446223E+03  0.30977552363E+03  0.12500465764E+03 0.  0.
          2    1    1    2  501    0  0.88151061618E+02  0.92792543682E+02 -0.14356294220E+03  0.19233144361E+03  0.00000000000E+00 0. -1.
          1    1    1    2  502    0 -0.95338119787E+02  0.80327544766E+02  0.13670385900E+04  0.13727113237E+04  0.00000000000E+00 0. -1.
         22    1    3    3    0    0  0.64165273253E+02 -0.99798688510E+02  0.14731473168E+03  0.18915229496E+03  0.00000000000E+00 0. -1.
         22    1    3    3    0    0 -0.56978215084E+02 -0.73321399938E+02  0.76989730553E+02  0.12062322867E+03  0.00000000000E+00 0. -1.
</event>
<event>
 7    1  0.6507405E-006  0.9775898E+02  0.7818608E-02  0.1346992E+00
          2   -1    0    0  502    0  0.00000000000E+00  0.00000000000E+00  0.17330973043E+03  0.17330973043E+03  0.00000000000E+00 0. -1.
          1   -1    0    0  501    0 -0.00000000000E+00 -0.00000000000E+00 -0.11091193630E+04  0.11091193630E+04  0.00000000000E+00 0. -1.
         25    2    1    2    0    0 -0.43007461986E+02  0.65816289008E+02 -0.24979528961E+03  0.29017736404E+03  0.12499516073E+03 0.  0.
          2    1    1    2  501    0  0.93603597984E+02 -0.41775959108E+02 -0.83075219412E+03  0.83705201293E+03  0.00000000000E+00 0. -1.
          1    1    1    2  502    0 -0.50596135998E+02 -0.24040329900E+02  0.14473785114E+03  0.15519971647E+03  0.00000000000E+00 0. -1.
         22    1    3    3    0    0  0.46432018889E+01  0.88634507126E+02 -0.19399022221E+03  0.21333035764E+03  0.00000000000E+00 0.  1.
         22    1    3    3    0    0 -0.47650663875E+02 -0.22818218118E+02 -0.55805067401E+02  0.76847006404E+02  0.00000000000E+00 0.  1.
</event>
<event>
 7    1  0.6507405E-006  0.2916211E+03  0.7818608E-02  0.1130858E+00
          2   -1    0    0  502    0  0.00000000000E+00  0.00000000000E+00  0.61186483615E+03  0.61186483615E+03  0.00000000000E+00 0. -1.
          1   -1    0    0  501    0 -0.00000000000E+00 -0.00000000000E+00 -0.22339936829E+04  0.22339936829E+04  0.00000000000E+00 0. -1.
         25    2    1    2    0    0 -0.29303166495E+03 -0.12016123508E+03  0.45254423366E+03  0.56632824092E+03  0.12500045583E+03 0.  0.
          2    1    1    2  501    0  0.44886883061E+02  0.16627017002E+03 -0.20121529036E+04  0.20195098190E+04  0.00000000000E+00 0. -1.
          1    1    1    2  502    0  0.24814478189E+03 -0.46108934934E+02 -0.62520176864E+02  0.26002045914E+03  0.00000000000E+00 0. -1.
         22    1    3    3    0    0 -0.17939151232E+03 -0.85031381368E+02  0.17607122966E+03  0.26535396817E+03  0.00000000000E+00 0. -1.
         22    1    3    3    0    0 -0.11364015263E+03 -0.35129853715E+02  0.27647300401E+03  0.30097427275E+03  0.00000000000E+00 0. -1.
</event>
<event>
 7    1  0.6507405E-006  0.4435313E+02  0.7818608E-02  0.1549115E+00
          2   -1    0    0  502    0  0.00000000000E+00  0.00000000000E+00  0.54335142512E+03  0.54335142512E+03  0.00000000000E+00 0. -1.
          1   -1    0    0  501    0 -0.00000000000E+00 -0.00000000000E+00 -0.10020674413E+03  0.10020674413E+03  0.00000000000E+00 0. -1.
         25    2    1    2    0    0 -0.21369393183E+02  0.14182640777E+02  0.25975177043E+03  0.28940279211E+03  0.12500078232E+03 0.  0.
          2    1    1    2  501    0 -0.25815455233E+02 -0.95580186173E+01 -0.80997560146E+02  0.85547637012E+02  0.00000000000E+00 0. -1.
          1    1    1    2  502    0  0.47184848416E+02 -0.46246221598E+01  0.26439047071E+03  0.26860774012E+03  0.00000000000E+00 0. -1.
         22    1    3    3    0    0  0.38865419990E+02 -0.12151240816E+02  0.18685873869E+03  0.19124424632E+03  0.00000000000E+00 0. -1.
         22    1    3    3    0    0 -0.60234813173E+02  0.26333881593E+02  0.72893031736E+02  0.98158545800E+02  0.00000000000E+00 0. -1.
</event>
<event>
 7    1  0.6507405E-006  0.6249100E+02  0.7818608E-02  0.1486982E+00
          2   -1    0    0  502    0  0.00000000000E+00  0.00000000000E+00  0.79054744362E+02  0.79054744362E+02  0.00000000000E+00 0. -1.
          1   -1    0    0  501    0 -0.00000000000E+00 -0.00000000000E+00 -0.67455535782E+03  0.67455535782E+03  0.00000000000E+00 0. -1.
         25    2    1    2    0    0  0.15187236016E+02 -0.61781003884E+02 -0.25509077006E+01  0.14028118271E+03  0.12499903405E+03 0.  0.
          2    1    1    2  501    0 -0.41050152642E+02  0.47303758847E+02 -0.57557473393E+03  0.57897239569E+03  0.00000000000E+00 0. -1.
          1    1    1    2  502    0  0.25862916626E+02  0.14477245037E+02 -0.17374971830E+02  0.34356523781E+02  0.00000000000E+00 0. -1.
         22    1    3    3    0    0  0.27110173513E+02 -0.58717037528E+02  0.52854937835E+02  0.83524226770E+02  0.00000000000E+00 0. -1.
         22    1    3    3    0    0 -0.11922937497E+02 -0.30639663561E+01 -0.55405845536E+02  0.56756955943E+02  0.00000000000E+00 0. -1.
</event>
<event>
 7    1  0.6507405E-006  0.5452801E+02  0.7818608E-02  0.1508084E+00
          2   -1    0    0  502    0  0.00000000000E+00  0.00000000000E+00  0.32076512861E+04  0.32076512861E+04  0.00000000000E+00 0. -1.
          1   -1    0    0  501    0 -0.00000000000E+00 -0.00000000000E+00 -0.24173731217E+02  0.24173731217E+02  0.00000000000E+00 0. -1.
         25    2    1    2    0    0 -0.54892610964E+01  0.76505238317E+02  0.21648878191E+04  0.21698501075E+04  0.12500814505E+03 0.  0.
          2    1    1    2  501    0 -0.66989359886E+01 -0.28593983658E+02 -0.10880028259E+02  0.31318790840E+02  0.00000000000E+00 0. -1.
          1    1    1    2  502    0  0.12188197085E+02 -0.47911254660E+02  0.10294697640E+04  0.10306561189E+04  0.00000000000E+00 0. -1.
         22    1    3    3    0    0 -0.17441455663E+02 -0.13547396400E+02  0.80235468470E+02  0.83219389120E+02  0.00000000000E+00 0.  1.
         22    1    3    3    0    0  0.11952194567E+02  0.90052634717E+02  0.20846523506E+04  0.20866307184E+04  0.00000000000E+00 0.  1.
</event>
<event>
 7    1  0.6507405E-006  0.6648268E+02  0.7818608E-02  0.1392002E+00
          2   -1    0    0  502    0  0.00000000000E+00  0.00000000000E+00  0.20605917957E+04  0.20605917957E+04  0.00000000000E+00 0. -1.
          1   -1    0    0  501    0 -0.00000000000E+00 -0.00000000000E+00 -0.14715572156E+03  0.14715572156E+03  0.00000000000E+00 0. -1.
         25    2    1    2    0    0 -0.81108532717E+01  0.58497255331E+02  0.18485867253E+04  0.18537490560E+04  0.12499986676E+03 0.  0.
          2    1    1    2  501    0  0.65785952174E+02 -0.95997795610E+01 -0.12943941670E+03  0.14551463798E+03  0.00000000000E+00 0. -1.
          1    1    1    2  502    0 -0.57675098902E+02 -0.48897475770E+02  0.19428876551E+03  0.20848382329E+03  0.00000000000E+00 0. -1.
         22    1    3    3    0    0 -0.60802799510E+02  0.70292480337E+01  0.10460751044E+04  0.10478642636E+04  0.00000000000E+00 0.  1.
         22    1    3    3    0    0  0.52691946238E+02  0.51468007297E+02  0.80251162086E+03  0.80588479238E+03  0.00000000000E+00 0.  1.
</event>
<event>
 7    1  0.6507405E-006  0.4953087E+02  0.7818608E-02  0.1521026E+00
          2   -1    0    0  502    0  0.00000000000E+00  0.00000000000E+00  0.23677483904E+03  0.23677483904E+03  0.00000000000E+00 0. -1.
          1   -1    0    0  501    0 -0.00000000000E+00 -0.00000000000E+00 -0.14125769034E+04  0.14125769034E+04  0.00000000000E+00 0. -1.
         25    2    1    2    0    0  0.76864779375E+02  0.84736142438E+01 -0.13599944474E+03  0.20025134790E+03  0.12499902767E+03 0.  0.
          2    1    1    2  501    0 -0.47507311851E+02 -0.12496522207E+02 -0.12428911421E+04  0.12438615272E+04  0.00000000000E+00 0. -1.
          1    1    1    2  502    0 -0.29357467524E+02  0.40229079631E+01  0.20308852250E+03  0.20523886732E+03  0.00000000000E+00 0. -1.
         22    1    3    3    0    0  0.69016003995E+02 -0.24395666634E+02 -0.14740917742E+03  0.16458378700E+03  0.00000000000E+00 0.  1.
         22    1    3    3    0    0  0.78487753796E+01  0.32869280878E+02  0.11409732673E+02  0.35667560893E+02  0.00000000000E+00 0.  1.
</event>
<event>
 7    1  0.6507405E-006  0.9533351E+02  0.7818608E-02  0.1312537E+00
          2   -1    0    0  502    0  0.00000000000E+00  0.00000000000E+00  0.37628472159E+03  0.37628472159E+03  0.00000000000E+00 0. -1.
          1   -1    0    0  501    0 -0.00000000000E+00 -0.00000000000E+00 -0.20903036295E+03  0.20903036295E+03  0.00000000000E+00 0. -1.
         25    2    1    2    0    0  0.45449737735E+02  0.44938218557E+01 -0.18942362005E+02  0.13442689795E+03  0.12500361882E+03 0.  0.
          2    1    1    2  501    0  0.18253487631E+02  0.75619753354E+02 -0.11157484517E+03  0.13601648055E+03  0.00000000000E+00 0. -1.
          1    1    1    2  502    0 -0.63703225366E+02 -0.80113575210E+02  0.29777156581E+03  0.31487170603E+03  0.00000000000E+00 0. -1.
         22    1    3    3    0    0  0.76533636477E+01  0.62449443752E+02 -0.90453318499E+00  0.62923168868E+02  0.00000000000E+00 0.  1.
         22    1    3    3    0    0  0.37796374088E+02 -0.57955621896E+02 -0.18037828820E+02  0.71503729078E+02  0.00000000000E+00 0.  1.
</event>
<event>
 7    1  0.6507405E-006  0.5288210E+02  0.7818608E-02  0.1497466E+00
          2   -1    0    0  502    0  0.00000000000E+00  0.00000000000E+00  0.63114362069E+03  0.63114362069E+03  0.00000000000E+00 0. -1.
          1   -1    0    0  501    0 -0.00000000000E+00 -0.00000000000E+00 -0.47714136158E+03  0.47714136158E+03  0.00000000000E+00 0. -1.
         25    2    1    2    0    0 -0.10645755901E+02 -0.18133036802E+02  0.10840259380E+03  0.16678747612E+03  0.12499920283E+03 0.  0.
          2    1    1    2  501    0  0.33128459534E+02  0.41691817548E+02 -0.44582550520E+03  0.44899452510E+03  0.00000000000E+00 0. -1.
          1    1    1    2  502    0 -0.22482703633E+02 -0.23558780746E+02  0.49142517052E+03  0.49250298104E+03  0.00000000000E+00 0. -1.
         22    1    3    3    0    0  0.27209722239E+02  0.43562654463E+02  0.63240124888E+02  0.81470161679E+02  0.00000000000E+00 0.  1.
         22    1    3    3    0    0 -0.37855478140E+02 -0.61695691265E+02  0.45162468907E+02  0.85317314442E+02  0.00000000000E+00 0.  1.
</event>
<event>
 7    1  0.6507405E-006  0.6253154E+02  0.7818608E-02  0.1440138E+00
          2   -1    0    0  502    0  0.00000000000E+00  0.00000000000E+00  0.12228949780E+04  0.12228949780E+04  0.00000000000E+00 0. -1.
          1   -1    0    0  501    0 -0.00000000000E+00 -0.00000000000E+00 -0.64107054845E+02  0.64107054845E+02  0.00000000000E+00 0. -1.
         25    2    1    2    0    0 -0.25797376296E+02 -0.98868167300E+02  0.27824384059E+03  0.32169071181E+03  0.12499944043E+03 0.  0.
          2    1    1    2  501    0  0.12309222170E+02  0.39694111356E+02 -0.30938401160E+02  0.51810463163E+02  0.00000000000E+00 0. -1.
          1    1    1    2  502    0  0.13488154126E+02  0.59174055944E+02  0.91148248375E+03  0.91350085790E+03  0.00000000000E+00 0. -1.
         22    1    3    3    0    0 -0.29503483168E+02  0.16685870444E+02  0.21558597415E+02  0.40170224222E+02  0.00000000000E+00 0. -1.
         22    1    3    3    0    0  0.37061068729E+01 -0.11555403774E+03  0.25668524317E+03  0.28152048759E+03  0.00000000000E+00 0. -1.
</event>
<event>
 7    1  0.6507405E-006  0.1233813E+03  0.7818608E-02  0.1249128E+00
          2   -1    0    0  502    0  0.00000000000E+00  0.00000000000E+00  0.53406724679E+03  0.53406724679E+03  0.00000000000E+00 0. -1.
          1   -1    0    0  501    0 -0.00000000000E+00 -0.00000000000E+00 -0.11113532830E+04  0.11113532830E+04  0.00000000000E+00 0. -1.
         25    2    1    2    0    0  0.18224477159E+03  0.33079417518E+02 -0.29111858622E+02  0.22534418670E+03  0.12500039012E+03 0.  0.
          2    1    1    2  501    0 -0.86281256823E+02 -0.86531023639E+02 -0.97332436021E+03  0.98096502665E+03  0.00000000000E+00 0. -1.
          1    1    1    2  502    0 -0.95963514768E+02  0.53451606121E+02  0.42515018266E+03  0.43911131639E+03  0.00000000000E+00 0. -1.
         22    1    3    3    0    0  0.11973549321E+03 -0.32703911070E+02 -0.47236166202E+02  0.13280583395E+03  0.00000000000E+00 0. -1.
         22    1    3    3    0    0  0.62509278377E+02  0.65783328588E+02  0.18124307580E+02  0.92538352745E+02  0.00000000000E+00 0. -1.
</event>
<event>
 7    1  0.6507405E-006  0.1127021E+03  0.7818608E-02  0.1382751E+00
          2   -1    0    0  502    0  0.00000000000E+00  0.00000000000E+00  0.83959985840E+03  0.83959985840E+03  0.00000000000E+00 0. -1.
          1   -1    0    0  501    0 -0.00000000000E+00 -0.00000000000E+00 -0.26137638449E+03  0.26137638449E+03  0.00000000000E+00 0. -1.
         25    2    1    2    0    0 -0.17954037385E+02 -0.85819493265E+02  0.23303747591E+03  0.27860750181E+03  0.12501336729E+03 0.  0.
          2    1    1    2  501    0  0.49788319267E+02  0.10274882679E+03 -0.22432900904E+03  0.25171353249E+03  0.00000000000E+00 0. -1.
          1    1    1    2  502    0 -0.31834281883E+02 -0.16929333523E+02  0.56951500704E+03  0.57065520858E+03  0.00000000000E+00 0. -1.
         22    1    3    3    0    0 -0.65214803861E+02 -0.79773114788E+02  0.13722992087E+03  0.17160644413E+03  0.00000000000E+00 0. -1.
         22    1    3    3    0    0  0.47260766476E+02 -0.60463784774E+01  0.95807555045E+02  0.10700105768E+03  0.00000000000E+00 0. -1.
</event>
<event>
 7    1  0.6507405E-006  0.1476741E+03  0.7818608E-02  0.1236174E+00
          2   -1    0    0  502    0  0.00000000000E+00  0.00000000000E+00  0.23886335574E+04  0.23886335574E+04  0.00000000000E+00 0. -1.
          1   -1    0    0  501    0 -0.00000000000E+00 -0.00000000000E+00 -0.11355494102E+04  0.11355494102E+04  0.00000000000E+00 0. -1.
         25    2    1    2    0    0 -0.17409787744E+03 -0.11595927457E+03 -0.30118343463E+03  0.38741823865E+03  0.12499922421E+03 0.  0.
          2    1    1    2  501    0  0.14036224925E+03  0.16928921877E+02 -0.78375408804E+03  0.79640355344E+03  0.00000000000E+00 0. -1.
          1    1    1    2  502    0  0.33735628190E+02  0.99030352695E+02  0.23380216698E+04  0.23403611755E+04  0.00000000000E+00 0. -1.
         22    1    3    3    0    0 -0.16781577748E+03 -0.53391521861E+02 -0.25272570915E+03  0.30803096248E+03  0.00000000000E+00 0. -1.
         22    1    3    3    0    0 -0.62820999598E+01 -0.62567752711E+02 -0.48457725481E+02  0.79387276172E+02  0.00000000000E+00 0. -1.
</event>
<event>
 7    1  0.6507405E-006  0.5513390E+02  0.7818608E-02  0.1420429E+00
          2   -1    0    0  502    0  0.00000000000E+00  0.00000000000E+00  0.19695392376E+04  0.19695392376E+04  0.00000000000E+00 0. -1.
          1   -1    0    0  501    0 -0.00000000000E+00 -0.00000000000E+00 -0.14672616301E+03  0.14672616301E+03  0.00000000000E+00 0. -1.
         25    2    1    2    0    0 -0.21554677951E+02  0.87409475476E+01  0.32634092932E+03  0.35023504754E+03  0.12500071227E+03 0.  0.
          2    1    1    2  501    0  0.33844692852E+02  0.44588409499E+02 -0.12848605472E+03  0.14015083216E+03  0.00000000000E+00 0. -1.
          1    1    1    2  502    0 -0.12290014901E+02 -0.53329357046E+02  0.16249582000E+04  0.16258795209E+04  0.00000000000E+00 0. -1.
         22    1    3    3    0    0 -0.12687351733E+02 -0.46604274862E+02  0.55142965033E+02  0.73305347159E+02  0.00000000000E+00 0. -1.
         22    1    3    3    0    0 -0.88673262184E+01  0.55345222410E+02  0.27119796429E+03  0.27692970038E+03  0.00000000000E+00 0. -1.
</event>
<event>
 7    1  0.6507405E-006  0.5429933E+02  0.7818608E-02  0.1462620E+00
          2   -1    0    0  502    0  0.00000000000E+00  0.00000000000E+00  0.17428704905E+04  0.17428704905E+04  0.00000000000E+00 0. -1.
          1   -1    0    0  501    0 -0.00000000000E+00 -0.00000000000E+00 -0.12380461369E+03  0.12380461369E+03  0.00000000000E+00 0. -1.
         25    2    1    2    0    0 -0.13677796632E+02 -0.74279237329E+01  0.32209241781E+03  0.34584932312E+03  0.12500389002E+03 0.  0.
          2    1    1    2  501    0 -0.35097407656E+02 -0.20343112167E+02 -0.10767140676E+03  0.11505999336E+03  0.00000000000E+00 0. -1.
          1    1    1    2  502    0  0.48775204289E+02  0.27771035900E+02  0.14046448658E+04  0.14057657877E+04  0.00000000000E+00 0. -1.
         22    1    3    3    0    0 -0.40270467211E+02 -0.33655000206E+02  0.54493959650E+02  0.75656864900E+02  0.00000000000E+00 0. -1.
         22    1    3    3    0    0  0.26592670579E+02  0.26227076473E+02  0.26759845816E+03  0.27019245822E+03  0.00000000000E+00 0. -1.
</event>
<event>
 7    1  0.6507405E-006  0.1284919E+03  0.7818608E-02  0.1320497E+00
          2   -1    0    0  502    0  0.00000000000E+00  0.00000000000E+00  0.29476649437E+04  0.29476649437E+04  0.00000000000E+00 0. -1.
          1   -1    0    0  501    0 -0.00000000000E+00 -0.00000000000E+00 -0.86354432841E+03  0.86354432841E+03  0.00000000000E+00 0. -1.
         25    2    1    2    0    0 -0.99628786957E+02 -0.11023838348E+03 -0.33984615097E+03  0.39140606735E+03  0.12499962740E+03 0.  0.
          2    1    1    2  501    0  0.11037131685E+03  0.57588890498E+02 -0.48988508622E+03  0.50545593833E+03  0.00000000000E+00 0. -1.
          1    1    1    2  502    0 -0.10742529897E+02  0.52649492978E+02  0.29138518525E+04  0.29143472664E+04  0.00000000000E+00 0. -1.
         22    1    3    3    0    0  0.18569724077E+02 -0.36960223956E+02 -0.15295577086E+03  0.15844986792E+03  0.00000000000E+00 0. -1.
         22    1    3    3    0    0 -0.11819851103E+03 -0.73278159520E+02 -0.18689038011E+03  0.23295619943E+03  0.00000000000E+00 0. -1.
</event>
<event>
 7    1  0.6507405E-006  0.4195948E+02  0.7818608E-02  0.1536106E+00
          2   -1    0    0  502    0  0.00000000000E+00  0.00000000000E+00  0.43318418282E+03  0.43318418282E+03  0.00000000000E+00 0. -1.
          1   -1    0    0  501    0 -0.00000000000E+00 -0.00000000000E+00 -0.19209295839E+03  0.19209295839E+03  0.00000000000E+00 0. -1.
         25    2    1    2    0    0  0.11828146059E+02  0.14971997059E+02  0.19924065669E+02  0.12800096758E+03  0.12499285409E+03 0.  0.
          2    1    1    2  501    0 -0.15745270798E+02  0.27467607957E+02 -0.13495180408E+03  0.13861591706E+03  0.00000000000E+00 0. -1.
          1    1    1    2  502    0  0.39171247389E+01 -0.42439605015E+02  0.35611896284E+03  0.35866025656E+03  0.00000000000E+00 0. -1.
         22    1    3    3    0    0  0.43566678915E+01 -0.45853071116E+02 -0.24632784784E+02  0.52232736594E+02  0.00000000000E+00 0. -1.
         22    1    3    3    0    0  0.74714781675E+01  0.60825068175E+02  0.44556850453E+02  0.75768230986E+02  0.00000000000E+00 0. -1.
</event>
<event>
 7    1  0.6507405E-006  0.3872431E+02  0.7818608E-02  0.1618402E+00
          2   -1    0    0  502    0  0.00000000000E+00  0.00000000000E+00  0.55944630834E+03  0.55944630834E+03  0.00000000000E+00 0. -1.
          1   -1    0    0  501    0 -0.00000000000E+00 -0.00000000000E+00 -0.86741589642E+03  0.86741589642E+03  0.00000000000E+00 0. -1.
         25    2    1    2    0    0  0.31168546201E+02  0.27990388483E+02 -0.33156641284E+02  0.13593892845E+03  0.12500035715E+03 0.  0.
          2    1    1    2  501    0 -0.12494942560E+02 -0.36674059563E+02 -0.78217973134E+03  0.78313871207E+03  0.00000000000E+00 0. -1.
          1    1    1    2  502    0 -0.18673603642E+02  0.86836710801E+01  0.50736678455E+03  0.50778456424E+03  0.00000000000E+00 0. -1.
         22    1    3    3    0    0 -0.16537655151E+02 -0.56828711630E+01  0.39221014544E+02  0.42942718176E+02  0.00000000000E+00 0. -1.
         22    1    3    3    0    0  0.47706201352E+02  0.33673259646E+02 -0.72377655828E+02  0.92996210276E+02  0.00000000000E+00 0. -1.
</event>
<event>
 7    1  0.6507405E-006  0.5261401E+02  0.7818608E-02  0.1510042E+00
          2   -1    0    0  502    0  0.00000000000E+00  0.00000000000E+00  0.10662649055E+04  0.10662649055E+04  0.00000000000E+00 0. -1.
          1   -1    0    0  501    0 -0.00000000000E+00 -0.00000000000E+00 -0.32410616573E+03  0.32410616573E+03  0.00000000000E+00 0. -1.
         25    2    1    2    0    0  0.14761246760E+02 -0.20511635355E+02  0.12914446327E+03  0.18150108371E+03  0.12500291758E+03 0.  0.
          2    1    1    2  501    0  0.27333018221E+02 -0.12449589022E+02 -0.29638378020E+03  0.29790171419E+03  0.00000000000E+00 0. -1.
          1    1    1    2  502    0 -0.42094264981E+02  0.32961224377E+02  0.90939805674E+03  0.91096827335E+03  0.00000000000E+00 0. -1.
         22    1    3    3    0    0 -0.42952106461E+01 -0.54315750298E+01 -0.24749627497E+02  0.25700095390E+02  0.00000000000E+00 0.  1.
         22    1    3    3    0    0  0.19056457406E+02 -0.15080060325E+02  0.15389409077E+03  0.15580098832E+03  0.00000000000E+00 0.  1.
</event>
<event>
 7    1  0.6507405E-006  0.1049424E+03  0.7818608E-02  0.1311380E+00
          2   -1    0    0  502    0  0.00000000000E+00  0.00000000000E+00  0.72255393439E+02  0.72255393439E+02  0.00000000000E+00 0. -1.
          1   -1    0    0  501    0 -0.00000000000E+00 -0.00000000000E+00 -0.22306833023E+04  0.22306833023E+04  0.00000000000E+00 0. -1.
         25    2    1    2    0    0 -0.48419092579E+02  0.77356323281E+02 -0.12671297959E+04  0.12765466314E+04  0.12499989332E+03 0.  0.
          2    1    1    2  501    0 -0.41155894158E+01 -0.12572777531E+03 -0.93450011360E+03  0.94292888061E+03  0.00000000000E+00 0. -1.
          1    1    1    2  502    0  0.52534681995E+02  0.48371452025E+02  0.43202000592E+02  0.83463183731E+02  0.00000000000E+00 0. -1.
         22    1    3    3    0    0  0.42379035458E+02  0.29725326155E+02 -0.47338501023E+03  0.47620683067E+03  0.00000000000E+00 0. -1.
         22    1    3    3    0    0 -0.90798128036E+02  0.47630997125E+02 -0.79374478563E+03  0.80033980075E+03  0.00000000000E+00 0. -1.
</event>
<event>
 7    1  0.1159999E-005  0.9086761E+02  0.7818608E-02  0.1331029E+00
          2   -1    0    0  502    0  0.00000000000E+00  0.00000000000E+00  0.95205891067E+03  0.95205891067E+03  0.00000000000E+00 0. -1.
          1   -1    0    0  501    0 -0.00000000000E+00 -0.00000000000E+00 -0.18042731137E+04  0.18042731137E+04  0.00000000000E+00 0. -1.
         25    2    1    2    0    0 -0.29139474206E+02 -0.11483580470E+02 -0.19186852256E+03  0.23112396250E+03  0.12499509796E+03 0.  0.
          2    1    1    2  501    0  0.62591027044E+02  0.72080828007E+02 -0.15900587778E+04  0.15929219062E+04  0.00000000000E+00 0. -1.
          1    1    1    2  502    0 -0.33451552838E+02 -0.60597247538E+02  0.92971309730E+03  0.93228615568E+03  0.00000000000E+00 0. -1.
         22    1    3    3    0    0 -0.76895439184E+00  0.55588052915E+02 -0.92616186457E+02  0.10802028009E+03  0.00000000000E+00 0. -1.
         22    1    3    3    0    0 -0.28370519814E+02 -0.67071633384E+02 -0.99252336106E+02  0.12310368241E+03  0.00000000000E+00 0. -1.
</event>
<event>
 7    1  0.6507405E-006  0.4196679E+02  0.7818608E-02  0.1520865E+00
          2   -1    0    0  502    0  0.00000000000E+00  0.00000000000E+00  0.30342061011E+04  0.30342061011E+04  0.00000000000E+00 0. -1.
          1   -1    0    0  501    0 -0.00000000000E+00 -0.00000000000E+00 -0.82971886175E+02  0.82971886175E+02  0.00000000000E+00 0. -1.
         25    2    1    2    0    0 -0.10327874990E+02 -0.24131772168E+02  0.17924526969E+03  0.22009529622E+03  0.12499626106E+03 0.  0.
          2    1    1    2  501    0  0.33116801668E+02 -0.11357461536E+02 -0.57478187568E+02  0.67301237220E+02  0.00000000000E+00 0. -1.
          1    1    1    2  502    0 -0.22788926678E+02  0.35489233704E+02  0.28294671328E+04  0.28297814538E+04  0.00000000000E+00 0. -1.
         22    1    3    3    0    0  0.11794981480E+02  0.41816035258E+02  0.23212327815E+02  0.49259664589E+02  0.00000000000E+00 0. -1.
         22    1    3    3    0    0 -0.22122856470E+02 -0.65947807427E+02  0.15603294188E+03  0.17083563163E+03  0.00000000000E+00 0. -1.
</event>
<event>
 7    1  0.6507405E-006  0.1000000E+03  0.7818608E-02  0.1307580E+00
          2   -1    0    0  502    0  0.00000000000E+00  0.00000000000E+00  0.26545182978E+04  0.26545182978E+04  0.00000000000E+00 0. -1.
          1   -1    0    0  501    0 -0.00000000000E+00 -0.00000000000E+00 -0.18184908721E+03  0.18184908721E+03  0.00000000000E+00 0. -1.
         25    2    1    2    0    0 -0.11842832578E+03 -0.12967447422E+03  0.55734694472E+03  0.59758121048E+03  0.12500779462E+03 0.  0.
          2    1    1    2  501    0  0.66493777513E+02  0.72052059285E+02 -0.14607575147E+03  0.17592909613E+03  0.00000000000E+00 0. -1.
          1    1    1    2  502    0  0.51934548264E+02  0.57622414930E+02  0.20613980174E+04  0.20628570784E+04  0.00000000000E+00 0. -1.
         22    1    3    3    0    0 -0.58868869258E+02 -0.13963966235E+03  0.44404086037E+03  0.46918766474E+03  0.00000000000E+00 0. -1.
         22    1    3    3    0    0 -0.59559456519E+02  0.99651881306E+01  0.11330608435E+03  0.12839354574E+03  0.00000000000E+00 0. -1.
</event>
<event>
 7    1  0.6507405E-006  0.9325645E+02  0.7818608E-02  0.1307982E+00
          2   -1    0    0  502    0  0.00000000000E+00  0.00000000000E+00  0.77332355517E+03  0.77332355517E+03  0.00000000000E+00 0. -1.
          1   -1    0    0  501    0 -0.00000000000E+00 -0.00000000000E+00 -0.68956708828E+03  0.68956708828E+03  0.00000000000E+00 0. -1.
         25    2    1    2    0    0 -0.11644994651E+03 -0.38297121174E+02  0.53255824895E+02  0.18299861373E+03  0.12500020083E+03 0.  0.
          2    1    1    2  501    0  0.70798969233E+02 -0.43085692252E+02 -0.61859562059E+03  0.62412291476E+03  0.00000000000E+00 0. -1.
          1    1    1    2  502    0  0.45650977282E+02  0.81382813426E+02  0.64909626258E+03  0.65576911497E+03  0.00000000000E+00 0. -1.
         22    1    3    3    0    0  0.10063525385E+02  0.10609286546E+02  0.44768258631E+02  0.47095949774E+02  0.00000000000E+00 0.  1.
         22    1    3    3    0    0 -0.12651347190E+03 -0.48906407721E+02  0.84875662642E+01  0.13590266395E+03  0.00000000000E+00 0.  1.
</event>
<event>
 7    1  0.6507405E-006  0.2209211E+03  0.7818608E-02  0.1206198E+00
          2   -1    0    0  502    0  0.00000000000E+00  0.00000000000E+00  0.86301436421E+02  0.86301436421E+02  0.00000000000E+00 0. -1.
          1   -1    0    0  501    0 -0.00000000000E+00 -0.00000000000E+00 -0.20115999662E+04  0.20115999662E+04  0.00000000000E+00 0. -1.
         25    2    1    2    0    0 -0.15185879362E+03  0.53469356061E+02 -0.50512126026E+03  0.54469502054E+03  0.12500045039E+03 0.  0.
          2    1    1    2  501    0 -0.94516421468E+02 -0.15262419042E+02 -0.12445767897E+04  0.12482538527E+04  0.00000000000E+00 0. -1.
          1    1    1    2  502    0  0.24637521509E+03 -0.38206937019E+02 -0.17560047980E+03  0.30495252934E+03  0.00000000000E+00 0. -1.
         22    1    3    3    0    0 -0.14149797232E+03  0.52936600955E+02 -0.51093503940E+03  0.53280256604E+03  0.00000000000E+00 0.  1.
         22    1    3    3    0    0 -0.10360821306E+02  0.53275510593E+00  0.58137791426E+01  0.11892454501E+02  0.00000000000E+00 0.  1.
</event>
<event>
 7    1  0.6507405E-006  0.6266323E+02  0.7818608E-02  0.1395864E+00
          2   -1    0    0  502    0  0.00000000000E+00  0.00000000000E+00  0.20292091956E+04  0.20292091956E+04  0.00000000000E+00 0. -1.
          1   -1    0    0  501    0 -0.00000000000E+00 -0.00000000000E+00 -0.30929426890E+03  0.30929426890E+03  0.00000000000E+00 0. -1.
         25    2    1    2    0    0 -0.78623985635E+01 -0.55062436669E+02  0.54045800098E+03  0.55750638826E+03  0.12499933153E+03 0.  0.
          2    1    1    2  501    0 -0.48511619749E+02  0.39982380586E+02 -0.29690245657E+03  0.30348482124E+03  0.00000000000E+00 0. -1.
          1    1    1    2  502    0  0.56374018312E+02  0.15080056082E+02  0.14763593823E+04  0.14775122550E+04  0.00000000000E+00 0. -1.
         22    1    3    3    0    0  0.55649488621E+02 -0.35114455098E+02  0.19830038858E+03  0.20893284723E+03  0.00000000000E+00 0. -1.
         22    1    3    3    0    0 -0.63511887184E+02 -0.19947981571E+02  0.34215761239E+03  0.34857354102E+03  0.00000000000E+00 0. -1.
</event>
<event>
 7    1  0.6507405E-006  0.8654758E+02  0.7818608E-02  0.1326247E+00
          2   -1    0    0  502    0  0.00000000000E+00  0.00000000000E+00  0.21936926582E+04  0.21936926582E+04  0.00000000000E+00 0. -1.
          1   -1    0    0  501    0 -0.00000000000E+00 -0.00000000000E+00 -0.15730270757E+03  0.15730270757E+03  0.00000000000E+00 0. -1.
         25    2    1    2    0    0 -0.19867117056E+02 -0.10009602681E+03  0.82951899915E+02  0.18143301518E+03  0.12499201725E+03 0.  0.
          2    1    1    2  501    0 -0.50631079727E+02  0.72242198372E+02 -0.89236725217E+02  0.12548161055E+03  0.00000000000E+00 0. -1.
          1    1    1    2  502    0  0.70498196783E+02  0.27853828439E+02  0.20426747759E+04  0.20440807400E+04  0.00000000000E+00 0. -1.
         22    1    3    3    0    0  0.46409760283E+02 -0.75315727394E+02  0.60587417187E+02  0.10722480946E+03  0.00000000000E+00 0.  1.
         22    1    3    3    0    0 -0.66276877340E+02 -0.24780299417E+02  0.22364482729E+02  0.74208205724E+02  0.00000000000E+00 0.  1.
</event>
<event>
 7    1  0.6507405E-006  0.9164788E+02  0.7818608E-02  0.1320734E+00
          2   -1    0    0  502    0  0.00000000000E+00  0.00000000000E+00  0.71932746791E+02  0.71932746791E+02  0.00000000000E+00 0. -1.
          1   -1    0    0  501    0 -0.00000000000E+00 -0.00000000000E+00 -0.14485569934E+04  0.14485569934E+04  0.00000000000E+00 0. -1.
         25    2    1    2    0    0  0.14752362362E+03  0.82591653130E+00 -0.57718671493E+03  0.60871400495E+03  0.12499733702E+03 0.  0.
          2    1    1    2  501    0 -0.65917220977E+02 -0.36145527913E+02 -0.81757418953E+03  0.82102322415E+03  0.00000000000E+00 0. -1.
          1    1    1    2  502    0 -0.81606402644E+02  0.35319611382E+02  0.18136657902E+02  0.90752511043E+02  0.00000000000E+00 0. -1.
         22    1    3    3    0    0  0.13399005515E+03 -0.31371167716E+02 -0.54176567314E+03  0.55897006149E+03  0.00000000000E+00 0.  1.
         22    1    3    3    0    0  0.13533568471E+02  0.32197084247E+02 -0.35421041785E+02  0.49743943458E+02  0.00000000000E+00 0.  1.
</event>
<event>
 7    1  0.6507405E-006  0.5801174E+02  0.7818608E-02  0.1548637E+00
          2   -1    0    0  502    0  0.00000000000E+00  0.00000000000E+00  0.48985133697E+03  0.48985133697E+03  0.00000000000E+00 0. -1.
          1   -1    0    0  501    0 -0.00000000000E+00 -0.00000000000E+00 -0.42626383884E+03  0.42626383884E+03  0.00000000000E+00 0. -1.
         25    2    1    2    0    0  0.73099730726E+02  0.64023166102E+01  0.27526585509E+03  0.31109696055E+03  0.12500187037E+03 0.  0.
          2    1    1    2  501    0 -0.19896243028E+02  0.70591337220E+01 -0.40423894434E+03  0.40478984175E+03  0.00000000000E+00 0. -1.
          1    1    1    2  502    0 -0.53203487698E+02 -0.13461450332E+02  0.19256058738E+03  0.20022837352E+03  0.00000000000E+00 0. -1.
         22    1    3    3    0    0  0.41616517331E+02 -0.59076414262E+02  0.13405059899E+03  0.15228762368E+03  0.00000000000E+00 0. -1.
         22    1    3    3    0    0  0.31483213395E+02  0.65478730873E+02  0.14121525609E+03  0.15880933687E+03  0.00000000000E+00 0. -1.
</event>
<event>
 7    1  0.6507405E-006  0.9276209E+02  0.7818608E-02  0.1348253E+00
          2   -1    0    0  502    0  0.00000000000E+00  0.00000000000E+00  0.12837291683E+04  0.12837291683E+04  0.00000000000E+00 0. -1.
          1   -1    0    0  501    0 -0.00000000000E+00 -0.00000000000E+00 -0.34532571458E+03  0.34532571458E+03  0.00000000000E+00 0. -1.
         25    2    1    2    0    0  0.18990267724E+02  0.53658859398E+02  0.41519846339E+02  0.14348700548E+03  0.12499887856E+03 0.  0.
          2    1    1    2  501    0 -0.45075630268E+02  0.37132309163E+02 -0.28954937670E+03  0.29538019970E+03  0.00000000000E+00 0. -1.
          1    1    1    2  502    0  0.26085362544E+02 -0.90791168561E+02  0.11864329841E+04  0.11901876777E+04  0.00000000000E+00 0. -1.
         22    1    3    3    0    0 -0.40017416602E+02  0.49684221507E+02  0.53362761404E+02  0.83171508360E+02  0.00000000000E+00 0.  1.
         22    1    3    3    0    0  0.59007684326E+02  0.39746378912E+01 -0.11842915065E+02  0.60315497122E+02  0.00000000000E+00 0.  1.
</event>
<event>
 7    1  0.6507405E-006  0.4163386E+02  0.7818608E-02  0.1548163E+00
          2   -1    0    0  502    0  0.00000000000E+00  0.00000000000E+00  0.91482116428E+02  0.91482116428E+02  0.00000000000E+00 0. -1.
          1   -1    0    0  501    0 -0.00000000000E+00 -0.00000000000E+00 -0.78572719499E+03  0.78572719499E+03  0.00000000000E+00 0. -1.
         25    2    1    2    0    0  0.11587994016E+02  0.46860997198E+02 -0.69796668060E+02  0.15108743424E+03  0.12500241298E+03 0.  0.
          2    1    1    2  501    0 -0.32524832821E+02 -0.26070223007E+02 -0.67030111426E+03  0.67159593883E+03  0.00000000000E+00 0. -1.
          1    1    1    2  502    0  0.20936838805E+02 -0.20790774191E+02  0.45852703757E+02  0.54525938345E+02  0.00000000000E+00 0. -1.
         22    1    3    3    0    0  0.32144039237E+02  0.73484142072E+02 -0.82565741031E+02  0.11510977364E+03  0.00000000000E+00 0.  1.
         22    1    3    3    0    0 -0.20556045220E+02 -0.26623144874E+02  0.12769072972E+02  0.35977660605E+02  0.00000000000E+00 0.  1.
</event>
<event>
 7    1  0.6507405E-006  0.3514626E+03  0.7818608E-02  0.1235683E+00
          2   -1    0    0  502    0  0.00000000000E+00  0.00000000000E+00  0.25837235840E+03  0.25837235840E+03  0.00000000000E+00 0. -1.
          1   -1    0    0  501    0 -0.00000000000E+00 -0.00000000000E+00 -0.24322538044E+04  0.24322538044E+04  0.00000000000E+00 0. -1.
         25    2    1    2    0    0  0.31821320208E+03  0.14575107462E+03 -0.84487943810E+03  0.92301115175E+03  0.12500121442E+03 0.  0.
          2    1    1    2  501    0 -0.19038544359E+02  0.39865808105E+02 -0.14064297622E+04  0.14071234576E+04  0.00000000000E+00 0. -1.
          1    1    1    2  502    0 -0.29917465772E+03 -0.18561688272E+03  0.77427754328E+02  0.36049155346E+03  0.00000000000E+00 0. -1.
         22    1    3    3    0    0  0.24830477999E+02 -0.20157834491E+02 -0.10944330655E+03  0.11402073617E+03  0.00000000000E+00 0.  1.
         22    1    3    3    0    0  0.29338272408E+03  0.16590890911E+03 -0.73543613155E+03  0.80899041558E+03  0.00000000000E+00 0.  1.
</event>
<event>
 7    1  0.6507405E-006  0.8717725E+02  0.7818608E-02  0.1335356E+00
          2   -1    0    0  502    0  0.00000000000E+00  0.00000000000E+00  0.29245841753E+03  0.29245841753E+03  0.00000000000E+00 0. -1.
          1   -1    0    0  501    0 -0.00000000000E+00 -0.00000000000E+00 -0.24162113174E+04  0.24162113174E+04  0.00000000000E+00 0. -1.
         25    2    1    2    0    0 -0.73941292062E+02  0.43102213545E+02 -0.11577680078E+04  0.11676384836E+04  0.12501101139E+03 0.  0.
          2    1    1    2  501    0  0.24259937273E+02 -0.91654186382E+02 -0.12474870462E+04  0.12510847153E+04  0.00000000000E+00 0. -1.
          1    1    1    2  502    0  0.49681354789E+02  0.48551972837E+02  0.28150215404E+03  0.28994653613E+03  0.00000000000E+00 0. -1.
         22    1    3    3    0    0 -0.26855005164E+02  0.21957794466E+02 -0.65215789436E+02  0.73867687333E+02  0.00000000000E+00 0. -1.
         22    1    3    3    0    0 -0.47086286898E+02  0.21144419079E+02 -0.10925522184E+04  0.10937707962E+04  0.00000000000E+00 0. -1.
</event>
<event>
 7    1  0.6507405E-006  0.1597622E+03  0.7818608E-02  0.1340904E+00
          2   -1    0    0  502    0  0.00000000000E+00  0.00000000000E+00  0.20872212471E+04  0.20872212471E+04  0.00000000000E+00 0. -1.
          1   -1    0    0  501    0 -0.00000000000E+00 -0.00000000000E+00 -0.62577123213E+03  0.62577123213E+03  0.00000000000E+00 0. -1.
         25    2    1    2    0    0  0.99056856625E+02 -0.11810711037E+03 -0.17207253122E+02  0.19920509688E+03  0.12500012279E+03 0.  0.
          2    1    1    2  501    0 -0.73251462503E+02  0.14338289750E+03 -0.50487433287E+03  0.52992690444E+03  0.00000000000E+00 0. -1.
          1    1    1    2  502    0 -0.25805394122E+02 -0.25275787131E+02  0.19835316010E+04  0.19838604779E+04  0.00000000000E+00 0. -1.
         22    1    3    3    0    0  0.10861085347E+03 -0.13762112566E+03 -0.22737968366E+02  0.17678491714E+03  0.00000000000E+00 0.  1.
         22    1    3    3    0    0 -0.95539968485E+01  0.19514015290E+02  0.55307152443E+01  0.22420179742E+02  0.00000000000E+00 0.  1.
</event>
<event>
 7    1  0.6507405E-006  0.1284431E+03  0.7818608E-02  0.1346654E+00
          2   -1    0    0  502    0  0.00000000000E+00  0.00000000000E+00  0.42498798511E+03  0.42498798511E+03  0.00000000000E+00 0. -1.
          1   -1    0    0  501    0 -0.00000000000E+00 -0.00000000000E+00 -0.16082007653E+03  0.16082007653E+03  0.00000000000E+00 0. -1.
         25    2    1    2    0    0  0.49943416946E+02  0.10481579609E+03  0.16986281642E+03  0.24075268228E+03  0.12501112597E+03 0.  0.
          2    1    1    2  501    0  0.42696075906E+02 -0.23166016529E+01 -0.98776694945E+02  0.10763436721E+03  0.00000000000E+00 0. -1.
          1    1    1    2  502    0 -0.92639492852E+02 -0.10249919443E+03  0.19308178711E+03  0.23742101215E+03  0.00000000000E+00 0. -1.
         22    1    3    3    0    0  0.48860272960E+02  0.59124602110E+02  0.17846213670E+03  0.19424669646E+03  0.00000000000E+00 0.  1.
         22    1    3    3    0    0  0.10831439862E+01  0.45691193977E+02 -0.85993202837E+01  0.46505985822E+02  0.00000000000E+00 0.  1.
</event>
<event>
 7    1  0.6507405E-006  0.1585904E+03  0.7818608E-02  0.1242818E+00
          2   -1    0    0  502    0  0.00000000000E+00  0.00000000000E+00  0.11195046960E+04  0.11195046960E+04  0.00000000000E+00 0. -1.
          1   -1    0    0  501    0 -0.00000000000E+00 -0.00000000000E+00 -0.12803724836E+04  0.12803724836E+04  0.00000000000E+00 0. -1.
         25    2    1    2    0    0 -0.24974174799E+02 -0.73409279964E+02 -0.59422083093E+02  0.15864618682E+03  0.12499998737E+03 0.  0.
          2    1    1    2  501    0  0.48788205554E+02  0.16129619163E+03 -0.11633190506E+04  0.11754607453E+04  0.00000000000E+00 0. -1.
          1    1    1    2  502    0 -0.23814030755E+02 -0.87886911669E+02  0.10618733460E+04  0.10657702474E+04  0.00000000000E+00 0. -1.
         22    1    3    3    0    0 -0.44036497590E+02 -0.91109520512E+02 -0.86059215428E+01  0.10155894709E+03  0.00000000000E+00 0. -1.
         22    1    3    3    0    0  0.19062322791E+02  0.17700240548E+02 -0.50816161550E+02  0.57087239733E+02  0.00000000000E+00 0. -1.
</event>
<event>
 7    1  0.6507405E-006  0.8520546E+02  0.7818608E-02  0.1421983E+00
          2   -1    0    0  502    0  0.00000000000E+00  0.00000000000E+00  0.20140073962E+04  0.20140073962E+04  0.00000000000E+00 0. -1.
          1   -1    0    0  501    0 -0.00000000000E+00 -0.00000000000E+00 -0.10159576038E+04  0.10159576038E+04  0.00000000000E+00 0. -1.
         25    2    1    2    0    0  0.40776167651E+02 -0.94569274598E+02  0.23682504256E+03  0.28690939196E+03  0.12499941944E+03 0.  0.
          2    1    1    2  501    0 -0.56752681023E+02  0.63436844699E+02 -0.98891233180E+03  0.99256873820E+03  0.00000000000E+00 0. -1.
          1    1    1    2  502    0  0.15976513372E+02  0.31132429899E+02  0.17501370816E+04  0.17504868698E+04  0.00000000000E+00 0. -1.
         22    1    3    3    0    0  0.58053231872E+02 -0.11821811070E+03  0.18070541683E+03  0.22360712667E+03  0.00000000000E+00 0. -1.
         22    1    3    3    0    0 -0.17277064221E+02  0.23648836104E+02  0.56119625738E+02  0.63302265284E+02  0.00000000000E+00 0. -1.
</event>
<event>
 7    1  0.6507405E-006  0.1635774E+03  0.7818608E-02  0.1384452E+00
          2   -1    0    0  502    0  0.00000000000E+00  0.00000000000E+00  0.15793746140E+03  0.15793746140E+03  0.00000000000E+00 0. -1.
          1   -1    0    0  501    0 -0.00000000000E+00 -0.00000000000E+00 -0.10342830657E+04  0.10342830657E+04  0.00000000000E+00 0. -1.
         25    2    1    2    0    0  0.11341983989E+03 -0.13782163502E+03 -0.55763909099E+03  0.59870321170E+03  0.12500126696E+03 0.  0.
          2    1    1    2  501    0  0.27774300619E+01  0.24343472563E+02 -0.40762020883E+03  0.40835591513E+03  0.00000000000E+00 0. -1.
          1    1    1    2  502    0 -0.11619726995E+03  0.11347816245E+03  0.88913695527E+02  0.18516140027E+03  0.00000000000E+00 0. -1.
         22    1    3    3    0    0  0.75457406861E+02 -0.11346985816E+03 -0.52661861849E+03  0.54396360016E+03  0.00000000000E+00 0. -1.
         22    1    3    3    0    0  0.37962433026E+02 -0.24351776856E+02 -0.31020472503E+02  0.54739611540E+02  0.00000000000E+00 0. -1.
</event>
<event>
 7    1  0.6507405E-006  0.1063244E+03  0.7818608E-02  0.1442573E+00
          2   -1    0    0  502    0  0.00000000000E+00  0.00000000000E+00  0.16662414611E+03  0.16662414611E+03  0.00000000000E+00 0. -1.
          1   -1    0    0  501    0 -0.00000000000E+00 -0.00000000000E+00 -0.79506967852E+03  0.79506967852E+03  0.00000000000E+00 0. -1.
         25    2    1    2    0    0  0.71238448020E+02  0.91412584997E+02  0.31512810262E+02  0.17334721047E+03  0.12500008398E+03 0.  0.
          2    1    1    2  501    0 -0.47479934490E+02 -0.94819751376E+02 -0.71786905415E+03  0.72565908548E+03  0.00000000000E+00 0. -1.
          1    1    1    2  502    0 -0.23758513530E+02  0.34071663793E+01  0.57910711482E+02  0.62687528682E+02  0.00000000000E+00 0. -1.
         22    1    3    3    0    0 -0.18756934524E+02  0.65850208720E+02  0.40184885674E+02  0.79390790510E+02  0.00000000000E+00 0. -1.
         22    1    3    3    0    0  0.89995382544E+02  0.25562376277E+02 -0.86720754119E+01  0.93956419962E+02  0.00000000000E+00 0. -1.
</event>
<event>
 7    1  0.6507405E-006  0.2535153E+03  0.7818608E-02  0.1221457E+00
          2   -1    0    0  502    0  0.00000000000E+00  0.00000000000E+00  0.48026927155E+03  0.48026927155E+03  0.00000000000E+00 0. -1.
          1   -1    0    0  501    0 -0.00000000000E+00 -0.00000000000E+00 -0.17467813227E+04  0.17467813227E+04  0.00000000000E+00 0. -1.
         25    2    1    2    0    0 -0.18567441019E+03 -0.23844886801E+03 -0.88948127618E+03  0.94769895015E+03  0.12499404065E+03 0.  0.
          2    1    1    2  501    0 -0.23483182608E+01  0.70923689406E+02 -0.79133824056E+03  0.79451362184E+03  0.00000000000E+00 0. -1.
          1    1    1    2  502    0  0.18802272845E+03  0.16752517860E+03  0.41430746554E+03  0.48483802231E+03  0.00000000000E+00 0. -1.
         22    1    3    3    0    0 -0.18235943203E+03 -0.25276367085E+03 -0.86046175074E+03  0.91517149226E+03  0.00000000000E+00 0. -1.
         22    1    3    3    0    0 -0.33149781533E+01  0.14314802842E+02 -0.29019525432E+02  0.32527457891E+02  0.00000000000E+00 0. -1.
</event>
<event>
 7    1  0.6507405E-006  0.7494324E+02  0.7818608E-02  0.1503985E+00
          2   -1    0    0  502    0  0.00000000000E+00  0.00000000000E+00  0.80981886810E+02  0.80981886810E+02  0.00000000000E+00 0. -1.
          1   -1    0    0  501    0 -0.00000000000E+00 -0.00000000000E+00 -0.92022938984E+03  0.92022938984E+03  0.00000000000E+00 0. -1.
         25    2    1    2    0    0 -0.28207840440E+02 -0.53278044798E+02 -0.79355974990E+02  0.15986360806E+03  0.12499908038E+03 0.  0.
          2    1    1    2  501    0  0.49880930472E+02  0.56897911968E+02 -0.79572447728E+03  0.79931403300E+03  0.00000000000E+00 0. -1.
          1    1    1    2  502    0 -0.21673090032E+02 -0.36198671692E+01  0.35832949237E+02  0.42033635589E+02  0.00000000000E+00 0. -1.
         22    1    3    3    0    0  0.41948249009E+02  0.31824635831E+01 -0.49562492746E+02  0.65009417445E+02  0.00000000000E+00 0. -1.
         22    1    3    3    0    0 -0.70156089449E+02 -0.56460508382E+02 -0.29793482244E+02  0.94854190617E+02  0.00000000000E+00 0. -1.
</event>
<event>
 7    1  0.6507405E-006  0.7969419E+02  0.7818608E-02  0.1483463E+00
          2   -1    0    0  502    0  0.00000000000E+00  0.00000000000E+00  0.12367907258E+03  0.12367907258E+03  0.00000000000E+00 0. -1.
          1   -1    0    0  501    0 -0.00000000000E+00 -0.00000000000E+00 -0.13637870726E+04  0.13637870726E+04  0.00000000000E+00 0. -1.
         25    2    1    2    0    0 -0.46683819799E+02 -0.70784155742E+02  0.68609720489E+02  0.16591082361E+03  0.12501732644E+03 0.  0.
          2    1    1    2  501    0  0.44494103267E+01  0.23402496415E+02 -0.11550401269E+04  0.11552857520E+04  0.00000000000E+00 0. -1.
          1    1    1    2  502    0  0.42234409473E+02  0.47381659327E+02 -0.15367759369E+03  0.16626956964E+03  0.00000000000E+00 0. -1.
         22    1    3    3    0    0  0.86521082172E+01 -0.23291945456E+02  0.87188297438E+02  0.90659654256E+02  0.00000000000E+00 0. -1.
         22    1    3    3    0    0 -0.55335928017E+02 -0.47492210286E+02 -0.18578576948E+02  0.75251169351E+02  0.00000000000E+00 0. -1.
</event>
<event>
 7    1  0.6507405E-006  0.6446548E+02  0.7818608E-02  0.1391383E+00
          2   -1    0    0  502    0  0.00000000000E+00  0.00000000000E+00  0.64591261286E+02  0.64591261286E+02  0.00000000000E+00 0. -1.
          1   -1    0    0  501    0 -0.00000000000E+00 -0.00000000000E+00 -0.20479681975E+04  0.20479681975E+04  0.00000000000E+00 0. -1.
         25    2    1    2    0    0 -0.14970680865E+02 -0.94232817768E+02 -0.16773348820E+04  0.16846903853E+04  0.12500177152E+03 0.  0.
          2    1    1    2  501    0 -0.31445732875E+02  0.49676988204E+02 -0.34677173881E+03  0.35172045165E+03  0.00000000000E+00 0. -1.
          1    1    1    2  502    0  0.46416413740E+02  0.44555829564E+02  0.40729684510E+02  0.76148621871E+02  0.00000000000E+00 0. -1.
         22    1    3    3    0    0  0.53408763632E+02 -0.60633310744E+02 -0.81429370363E+03  0.81829281445E+03  0.00000000000E+00 0. -1.
         22    1    3    3    0    0 -0.68379444498E+02 -0.33599507024E+02 -0.86304117833E+03  0.86639757086E+03  0.00000000000E+00 0. -1.
</event>
<event>
 7    1  0.6507405E-006  0.5733398E+02  0.7818608E-02  0.1517721E+00
          2   -1    0    0  502    0  0.00000000000E+00  0.00000000000E+00  0.95757476459E+03  0.95757476459E+03  0.00000000000E+00 0. -1.
          1   -1    0    0  501    0 -0.00000000000E+00 -0.00000000000E+00 -0.14116698537E+04  0.14116698537E+04  0.00000000000E+00 0. -1.
         25    2    1    2    0    0  0.31903650629E+02  0.49486460053E+01  0.18509359216E+03  0.22566847899E+03  0.12499717010E+03 0.  0.
          2    1    1    2  501    0 -0.54411818455E+02 -0.18302516183E+02 -0.13905623354E+04  0.13917468292E+04  0.00000000000E+00 0. -1.
          1    1    1    2  502    0  0.22508167826E+02  0.13353870178E+02  0.75137365408E+03  0.75182931010E+03  0.00000000000E+00 0. -1.
         22    1    3    3    0    0 -0.25255835333E+02 -0.41206876341E+02  0.11223613777E+03  0.12219989565E+03  0.00000000000E+00 0. -1.
         22    1    3    3    0    0  0.57159485962E+02  0.46155522346E+02  0.72857454392E+02  0.10346858334E+03  0.00000000000E+00 0. -1.
</event>
<event>
 7    1  0.6507405E-006  0.9824165E+02  0.7818608E-02  0.1358393E+00
          2   -1    0    0  502    0  0.00000000000E+00  0.00000000000E+00  0.33102060741E+04  0.33102060741E+04  0.00000000000E+00 0. -1.
          1   -1    0    0  501    0 -0.00000000000E+00 -0.00000000000E+00 -0.96528923895E+02  0.96528923895E+02  0.00000000000E+00 0. -1.
         25    2    1    2    0    0  0.20287048916E+02  0.49744740269E+02  0.29176641835E+02  0.13914888010E+03  0.12500012347E+03 0.  0.
          2    1    1    2  501    0  0.43512231389E+02  0.25818156752E+02 -0.25088356428E+02  0.56474039405E+02  0.00000000000E+00 0. -1.
          1    1    1    2  502    0 -0.63799280305E+02 -0.75562897020E+02  0.32095888648E+04  0.32111120785E+04  0.00000000000E+00 0. -1.
         22    1    3    3    0    0  0.21040857021E+01  0.32261213038E+02  0.77867294333E+02  0.84312090296E+02  0.00000000000E+00 0.  1.
         22    1    3    3    0    0  0.18182963214E+02  0.17483527231E+02 -0.48690652498E+02  0.54836789807E+02  0.00000000000E+00 0.  1.
</event>
<event>
 7    1  0.6507405E-006  0.3179405E+02  0.7818608E-02  0.1602504E+00
          2   -1    0    0  502    0  0.00000000000E+00  0.00000000000E+00  0.54203736280E+03  0.54203736280E+03  0.00000000000E+00 0. -1.
          1   -1    0    0  501    0 -0.00000000000E+00 -0.00000000000E+00 -0.15702203700E+03  0.15702203700E+03  0.00000000000E+00 0. -1.
         25    2    1    2    0    0  0.28173700854E+01 -0.68338644419E+01  0.46270316171E+02  0.13349081113E+03  0.12499686084E+03 0.  0.
          2    1    1    2  501    0  0.27140615421E+02 -0.48201707014E+01 -0.11115485256E+03  0.11452182455E+03  0.00000000000E+00 0. -1.
          1    1    1    2  502    0 -0.29957985506E+02  0.11654035143E+02  0.44989986218E+03  0.45104676412E+03  0.00000000000E+00 0. -1.
         22    1    3    3    0    0  0.38458232950E+02 -0.53493825116E+02  0.17845890313E+02  0.68257606230E+02  0.00000000000E+00 0.  1.
         22    1    3    3    0    0 -0.35640862864E+02  0.46659960675E+02  0.28424425858E+02  0.65233204898E+02  0.00000000000E+00 0.  1.
</event>
<event>
 7    1  0.6507405E-006  0.6003300E+02  0.7818608E-02  0.1529500E+00
          2   -1    0    0  502    0  0.00000000000E+00  0.00000000000E+00  0.10912539479E+04  0.10912539479E+04  0.00000000000E+00 0. -1.
          1   -1    0    0  501    0 -0.00000000000E+00 -0.00000000000E+00 -0.13777999679E+04  0.13777999679E+04  0.00000000000E+00 0. -1.
         25    2    1    2    0    0  0.68965458196E+02 -0.35345311912E+02  0.17738793249E+03  0.23042741557E+03  0.12499915902E+03 0.  0.
          2    1    1    2  501    0 -0.11533016730E+02  0.20027131586E+02 -0.13501858086E+04  0.13503835804E+04  0.00000000000E+00 0. -1.
          1    1    1    2  502    0 -0.57432441466E+02  0.15318180326E+02  0.88625185617E+03  0.88824291979E+03  0.00000000000E+00 0. -1.
         22    1    3    3    0    0 -0.24695739654E+02 -0.39889994977E+02  0.29833807047E+02  0.55598087191E+02  0.00000000000E+00 0. -1.
         22    1    3    3    0    0  0.93661197850E+02  0.45446830650E+01  0.14755412545E+03  0.17482932838E+03  0.00000000000E+00 0. -1.
</event>
<event>
 7    1  0.6507405E-006  0.8097132E+02  0.7818608E-02  0.1448315E+00
          2   -1    0    0  502    0  0.00000000000E+00  0.00000000000E+00  0.51525262033E+04  0.51525262033E+04  0.00000000000E+00 0. -1.
          1   -1    0    0  501    0 -0.00000000000E+00 -0.00000000000E+00 -0.23041522921E+03  0.23041522921E+03  0.00000000000E+00 0. -1.
         25    2    1    2    0    0 -0.82409874803E+02  0.45796307995E+02  0.86015225091E+03  0.87428575432E+03  0.12499998463E+03 0.  0.
          2    1    1    2  501    0  0.34895176499E+01 -0.30000999453E+02 -0.22194765073E+03  0.22399329536E+03  0.00000000000E+00 0. -1.
          1    1    1    2  502    0  0.78920357153E+02 -0.15795308542E+02  0.42839063739E+04  0.42846623828E+04  0.00000000000E+00 0. -1.
         22    1    3    3    0    0 -0.11339725934E+03  0.22844961415E+02  0.57333473479E+03  0.58488763776E+03  0.00000000000E+00 0. -1.
         22    1    3    3    0    0  0.30987384538E+02  0.22951346580E+02  0.28681751612E+03  0.28939811656E+03  0.00000000000E+00 0. -1.
</event>
<event>
 7    1  0.6507405E-006  0.8799880E+02  0.7818608E-02  0.1328542E+00
          2   -1    0    0  502    0  0.00000000000E+00  0.00000000000E+00  0.10377334550E+03  0.10377334550E+03  0.00000000000E+00 0. -1.
          1   -1    0    0  501    0 -0.00000000000E+00 -0.00000000000E+00 -0.94663875691E+03  0.94663875691E+03  0.00000000000E+00 0. -1.
         25    2    1    2    0    0  0.25059101252E+02  0.12153177308E+03 -0.56257025477E+02  0.18489767678E+03  0.12499747013E+03 0.  0.
          2    1    1    2  501    0  0.32336623556E+02 -0.65508821477E+02 -0.78175674500E+03  0.78516283105E+03  0.00000000000E+00 0. -1.
          1    1    1    2  502    0 -0.57395724808E+02 -0.56022951599E+02 -0.48516409346E+01  0.80351594582E+02  0.00000000000E+00 0. -1.
         22    1    3    3    0    0  0.30161199976E+02  0.14186195125E+03 -0.24861636210E+02  0.14714826588E+03  0.00000000000E+00 0.  1.
         22    1    3    3    0    0 -0.51020987241E+01 -0.20330178173E+02 -0.31395389266E+02  0.37749410897E+02  0.00000000000E+00 0.  1.
</event>
<event>
 7    1  0.6507405E-006  0.2038878E+03  0.7818608E-02  0.1222504E+00
          2   -1    0    0  502    0  0.00000000000E+00  0.00000000000E+00  0.99935389425E+03  0.99935389425E+03  0.00000000000E+00 0. -1.
          1   -1    0    0  501    0 -0.00000000000E+00 -0.00000000000E+00 -0.62742293318E+03  0.62742293318E+03  0.00000000000E+00 0. -1.
         25    2    1    2    0    0 -0.81123110651E+02 -0.18260737258E+03 -0.12085566259E+03  0.26487278466E+03  0.12500035709E+03 0.  0.
          2    1    1    2  501    0 -0.17064239663E+01  0.21010245593E+03 -0.40692623051E+03  0.45796824229E+03  0.00000000000E+00 0. -1.
          1    1    1    2  502    0  0.82829534617E+02 -0.27495083350E+02  0.89971285417E+03  0.90393580047E+03  0.00000000000E+00 0. -1.
         22    1    3    3    0    0 -0.31722513684E+02 -0.19943139826E+02  0.21447192198E+02  0.43174399286E+02  0.00000000000E+00 0. -1.
         22    1    3    3    0    0 -0.49400596967E+02 -0.16266423275E+03 -0.14230285479E+03  0.22169838538E+03  0.00000000000E+00 0. -1.
</event>
<event>
 7    1  0.6507405E-006  0.1214288E+03  0.7818608E-02  0.1312668E+00
          2   -1    0    0  502    0  0.00000000000E+00  0.00000000000E+00  0.12449601669E+04  0.12449601669E+04  0.00000000000E+00 0. -1.
          1   -1    0    0  501    0 -0.00000000000E+00 -0.00000000000E+00 -0.43251319716E+03  0.43251319716E+03  0.00000000000E+00 0. -1.
         25    2    1    2    0    0 -0.10174570861E+03  0.43069154082E+02  0.10621674909E+02  0.16715217753E+03  0.12497955521E+03 0.  0.
          2    1    1    2  501    0  0.12358037394E+03  0.13890757249E+02 -0.34249645936E+03  0.36437465147E+03  0.00000000000E+00 0. -1.
          1    1    1    2  502    0 -0.21834665326E+02 -0.56959911331E+02  0.11443217542E+04  0.11459465351E+04  0.00000000000E+00 0. -1.
         22    1    3    3    0    0 -0.97767607487E+02  0.14291998663E+02 -0.41748048471E+02  0.10726446686E+03  0.00000000000E+00 0.  1.
         22    1    3    3    0    0 -0.39781011231E+01  0.28777155419E+02  0.52369723380E+02  0.59887710672E+02  0.00000000000E+00 0.  1.
</event>
<event>
 7    1  0.6507405E-006  0.1290356E+03  0.7818608E-02  0.1255746E+00
          2   -1    0    0  502    0  0.00000000000E+00  0.00000000000E+00  0.10470696316E+04  0.10470696316E+04  0.00000000000E+00 0. -1.
          1   -1    0    0  501    0 -0.00000000000E+00 -0.00000000000E+00 -0.10035466563E+04  0.10035466563E+04  0.00000000000E+00 0. -1.
         25    2    1    2    0    0  0.14110315785E+03  0.15236562599E+03  0.13204060331E+03  0.27601736551E+03  0.12500192000E+03 0.  0.
          2    1    1    2  501    0 -0.31412894073E+02 -0.93186897045E+02 -0.92432921318E+03  0.92954562128E+03  0.00000000000E+00 0. -1.
          1    1    1    2  502    0 -0.10969026378E+03 -0.59178728946E+02  0.83581158510E+03  0.84505330111E+03  0.00000000000E+00 0. -1.
         22    1    3    3    0    0 -0.14037320231E+02  0.35147315205E+01 -0.10656925209E+02  0.17971359209E+02  0.00000000000E+00 0.  1.
         22    1    3    3    0    0  0.15514047808E+03  0.14885089447E+03  0.14269752852E+03  0.25804600630E+03  0.00000000000E+00 0.  1.
</event>
<event>
 7    1  0.6507405E-006  0.9775226E+02  0.7818608E-02  0.1376584E+00
          2   -1    0    0  502    0  0.00000000000E+00  0.00000000000E+00  0.61994992456E+03  0.61994992456E+03  0.00000000000E+00 0. -1.
          1   -1    0    0  501    0 -0.00000000000E+00 -0.00000000000E+00 -0.49220586939E+03  0.49220586939E+03  0.00000000000E+00 0. -1.
         25    2    1    2    0    0 -0.13701362405E+02 -0.55878391242E+02  0.32836814470E+02  0.14147439793E+03  0.12500650761E+03 0.  0.
          2    1    1    2  501    0  0.34515015707E+02  0.94321063578E+02 -0.43120926786E+03  0.44275182894E+03  0.00000000000E+00 0. -1.
          1    1    1    2  502    0 -0.20813653302E+02 -0.38442672336E+02  0.52611650856E+03  0.52792956708E+03  0.00000000000E+00 0. -1.
         22    1    3    3    0    0  0.49593117480E+02  0.46721189259E+01  0.82059143048E+01  0.50484086861E+02  0.00000000000E+00 0. -1.
         22    1    3    3    0    0 -0.63294479885E+02 -0.60550510168E+02  0.24630900166E+02  0.90990311069E+02  0.00000000000E+00 0. -1.
</event>
<event>
 7    1  0.6507405E-006  0.1039328E+03  0.7818608E-02  0.1383558E+00
          2   -1    0    0  502    0  0.00000000000E+00  0.00000000000E+00  0.72948429940E+03  0.72948429940E+03  0.00000000000E+00 0. -1.
          1   -1    0    0  501    0 -0.00000000000E+00 -0.00000000000E+00 -0.79654968356E+02  0.79654968356E+02  0.00000000000E+00 0. -1.
         25    2    1    2    0    0 -0.85556461209E+02 -0.95541227092E+02  0.47139735994E+03  0.50427216937E+03  0.12500766262E+03 0.  0.
          2    1    1    2  501    0  0.84944647901E+02  0.56703140970E+02 -0.18799365289E+02  0.10384727025E+03  0.00000000000E+00 0. -1.
          1    1    1    2  502    0  0.61181330861E+00  0.38838086122E+02  0.19723133640E+03  0.20101982814E+03  0.00000000000E+00 0. -1.
         22    1    3    3    0    0 -0.11734502797E+03 -0.82246925602E+02  0.35342111644E+03  0.38136714319E+03  0.00000000000E+00 0. -1.
         22    1    3    3    0    0  0.31788566765E+02 -0.13294301490E+02  0.11797624350E+03  0.12290502617E+03  0.00000000000E+00 0. -1.
</event>
<event>
 7    1  0.6507405E-006  0.9358140E+02  0.7818608E-02  0.1449711E+00
          2   -1    0    0  502    0  0.00000000000E+00  0.00000000000E+00  0.11727942484E+03  0.11727942484E+03  0.00000000000E+00 0. -1.
          1   -1    0    0  501    0 -0.00000000000E+00 -0.00000000000E+00 -0.16489587953E+04  0.16489587953E+04  0.00000000000E+00 0. -1.
         25    2    1    2    0    0 -0.96610020607E+02 -0.19240803337E+02 -0.18029745953E+03  0.24049222850E+03  0.12500253382E+03 0.  0.
          2    1    1    2  501    0  0.93277880593E+02 -0.64092029087E+01 -0.14350901462E+04  0.14381326672E+04  0.00000000000E+00 0. -1.
          1    1    1    2  502    0  0.33321400140E+01  0.25650006246E+02  0.83708235220E+02  0.87613324450E+02  0.00000000000E+00 0. -1.
         22    1    3    3    0    0 -0.80475940671E+02  0.40983719366E+02 -0.71874575979E+02  0.11542095543E+03  0.00000000000E+00 0. -1.
         22    1    3    3    0    0 -0.16134079936E+02 -0.60224522703E+02 -0.10842288355E+03  0.12507127307E+03  0.00000000000E+00 0. -1.
</event>
<event>
 7    1  0.6507405E-006  0.7087126E+02  0.7818608E-02  0.1450114E+00
          2   -1    0    0  502    0  0.00000000000E+00  0.00000000000E+00  0.31607446172E+04  0.31607446172E+04  0.00000000000E+00 0. -1.
          1   -1    0    0  501    0 -0.00000000000E+00 -0.00000000000E+00 -0.37637859826E+03  0.37637859826E+03  0.00000000000E+00 0. -1.
         25    2    1    2    0    0 -0.51160542818E+02  0.41977995217E+01  0.77542674548E+03  0.78711277219E+03  0.12499942355E+03 0.  0.
          2    1    1    2  501    0  0.65835260514E+02  0.26530559534E+02 -0.36701322313E+03  0.37381393509E+03  0.00000000000E+00 0. -1.
          1    1    1    2  502    0 -0.14674717696E+02 -0.30728359056E+02  0.23759524966E+04  0.23761965082E+04  0.00000000000E+00 0. -1.
         22    1    3    3    0    0 -0.23570199150E+02 -0.50022233418E+01  0.74363282727E+03  0.74402308991E+03  0.00000000000E+00 0. -1.
         22    1    3    3    0    0 -0.27590343667E+02  0.92000228635E+01  0.31793918211E+02  0.43089682287E+02  0.00000000000E+00 0. -1.
</event>
<event>
 7    1  0.6507405E-006  0.7919555E+02  0.7818608E-02  0.1442794E+00
          2   -1    0    0  502    0  0.00000000000E+00  0.00000000000E+00  0.10687806447E+04  0.10687806447E+04  0.00000000000E+00 0. -1.
          1   -1    0    0  501    0 -0.00000000000E+00 -0.00000000000E+00 -0.31680212160E+03  0.31680212160E+03  0.00000000000E+00 0. -1.
         25    2    1    2    0    0 -0.82208929853E+02  0.32094177576E+02 -0.58883038337E+02  0.16395353639E+03  0.12500082203E+03 0.  0.
          2    1    1    2  501    0  0.57921743940E+02 -0.53191197788E+02 -0.19759026521E+03  0.21266439487E+03  0.00000000000E+00 0. -1.
          1    1    1    2  502    0  0.24287185912E+02  0.21097020213E+02  0.10084518267E+04  0.10089648350E+04  0.00000000000E+00 0. -1.
         22    1    3    3    0    0  0.26435088068E+02 -0.17355717882E+02 -0.18968063256E+01  0.31680162541E+02  0.00000000000E+00 0. -1.
         22    1    3    3    0    0 -0.10864401792E+03  0.49449895457E+02 -0.56986232012E+02  0.13227337385E+03  0.00000000000E+00 0. -1.
</event>
<event>
 7    1  0.6507405E-006  0.6763796E+02  0.7818608E-02  0.1442766E+00
          2   -1    0    0  502    0  0.00000000000E+00  0.00000000000E+00  0.18954851466E+04  0.18954851466E+04  0.00000000000E+00 0. -1.
          1   -1    0    0  501    0 -0.00000000000E+00 -0.00000000000E+00 -0.21804423758E+03  0.21804423758E+03  0.00000000000E+00 0. -1.
         25    2    1    2    0    0 -0.15696706107E+02  0.31916811870E+02  0.52590472261E+03  0.54172469284E+03  0.12499918438E+03 0.  0.
          2    1    1    2  501    0 -0.98600177344E+00  0.37662715185E+02 -0.20749678536E+03  0.21088946927E+03  0.00000000000E+00 0. -1.
          1    1    1    2  502    0  0.16682707881E+02 -0.69579527055E+02  0.13590329717E+04  0.13609152221E+04  0.00000000000E+00 0. -1.
         22    1    3    3    0    0  0.39745889072E+02 -0.22562947012E+02  0.28355745710E+03  0.28721708472E+03  0.00000000000E+00 0.  1.
         22    1    3    3    0    0 -0.55442595180E+02  0.54479758881E+02  0.24234726551E+03  0.25450760812E+03  0.00000000000E+00 0.  1.
</event>
<event>
 7    1  0.6507405E-006  0.1026370E+03  0.7818608E-02  0.1423713E+00
          2   -1    0    0  502    0  0.00000000000E+00  0.00000000000E+00  0.21005106861E+04  0.21005106861E+04  0.00000000000E+00 0. -1.
          1   -1    0    0  501    0 -0.00000000000E+00 -0.00000000000E+00 -0.25172592550E+03  0.25172592550E+03  0.00000000000E+00 0. -1.
         25    2    1    2    0    0  0.25428054591E+02 -0.70014558916E+02 -0.56522040075E+02  0.15610883865E+03  0.12500641611E+03 0.  0.
          2    1    1    2  501    0  0.13208118942E+02 -0.25443068682E+02 -0.14269116968E+03  0.14554234454E+03  0.00000000000E+00 0. -1.
          1    1    1    2  502    0 -0.38636173533E+02  0.95457627599E+02  0.20479979703E+04  0.20505854284E+04  0.00000000000E+00 0. -1.
         22    1    3    3    0    0 -0.30907890288E+02 -0.82239349775E+02 -0.35202551521E+02  0.94645802691E+02  0.00000000000E+00 0. -1.
         22    1    3    3    0    0  0.56335944879E+02  0.12224790858E+02 -0.21319488554E+02  0.61463035957E+02  0.00000000000E+00 0. -1.
</event>
<event>
 7    1  0.6507405E-006  0.1328658E+03  0.7818608E-02  0.1301351E+00
          2   -1    0    0  502    0  0.00000000000E+00  0.00000000000E+00  0.12997536884E+04  0.12997536884E+04  0.00000000000E+00 0. -1.
          1   -1    0    0  501    0 -0.00000000000E+00 -0.00000000000E+00 -0.23512031142E+03  0.23512031142E+03  0.00000000000E+00 0. -1.
         25    2    1    2    0    0  0.10902678523E+03 -0.12232571919E+03  0.44186090065E+03  0.48756241119E+03  0.12500251120E+03 0.  0.
          2    1    1    2  501    0 -0.61708892254E+02  0.35385076938E+01 -0.20274122118E+03  0.21195403083E+03  0.00000000000E+00 0. -1.
          1    1    1    2  502    0 -0.47317892981E+02  0.11878721150E+03  0.82551369754E+03  0.83535755783E+03  0.00000000000E+00 0. -1.
         22    1    3    3    0    0  0.10416945388E+03 -0.28595496003E+02  0.28475913647E+03  0.30455991745E+03  0.00000000000E+00 0. -1.
         22    1    3    3    0    0  0.48573313583E+01 -0.93730223186E+02  0.15710176418E+03  0.18300249374E+03  0.00000000000E+00 0. -1.
</event>
<event>
 7    1  0.6507405E-006  0.4847984E+02  0.7818608E-02  0.1501261E+00
          2   -1    0    0  502    0  0.00000000000E+00  0.00000000000E+00  0.12313741092E+04  0.12313741092E+04  0.00000000000E+00 0. -1.
          1   -1    0    0  501    0 -0.00000000000E+00 -0.00000000000E+00 -0.28876086005E+03  0.28876086005E+03  0.00000000000E+00 0. -1.
         25    2    1    2    0    0  0.50959472104E+02 -0.36066025720E+02  0.12321389127E+03  0.18628990270E+03  0.12499855535E+03 0.  0.
          2    1    1    2  501    0 -0.48399057496E+02  0.15537150710E+01 -0.25466264880E+03  0.25922566904E+03  0.00000000000E+00 0. -1.
          1    1    1    2  502    0 -0.25604146079E+01  0.34512310649E+02  0.10740620067E+04  0.10746193975E+04  0.00000000000E+00 0. -1.
         22    1    3    3    0    0  0.16186876438E+02 -0.81031726484E+02  0.67516012521E+02  0.10670786106E+03  0.00000000000E+00 0.  1.
         22    1    3    3    0    0  0.34772595666E+02  0.44965700764E+02  0.55697878746E+02  0.79582041638E+02  0.00000000000E+00 0.  1.
</event>
<event>
 7    1  0.6507405E-006  0.8765262E+02  0.7818608E-02  0.1408006E+00
          2   -1    0    0  502    0  0.00000000000E+00  0.00000000000E+00  0.52724565295E+03  0.52724565295E+03  0.00000000000E+00 0. -1.
          1   -1    0    0  501    0 -0.00000000000E+00 -0.00000000000E+00 -0.30422896245E+03  0.30422896245E+03  0.00000000000E+00 0. -1.
         25    2    1    2    0    0  0.11672535322E+03  0.12339397019E+02  0.15727180154E+03  0.23267127861E+03  0.12499774208E+03 0.  0.
          2    1    1    2  501    0 -0.33239778264E+02 -0.18218779507E+02 -0.25986227057E+03  0.26261227399E+03  0.00000000000E+00 0. -1.
          1    1    1    2  502    0 -0.83485574961E+02  0.58793824882E+01  0.32560715953E+03  0.33619106279E+03  0.00000000000E+00 0. -1.
         22    1    3    3    0    0  0.27762824835E+02  0.39288788602E+02 -0.21200303799E+01  0.48154728547E+02  0.00000000000E+00 0. -1.
         22    1    3    3    0    0  0.88962528389E+02 -0.26949391583E+02  0.15939183192E+03  0.18451655007E+03  0.00000000000E+00 0. -1.
</event>
<event>
 7    1  0.6507405E-006  0.1036419E+03  0.7818608E-02  0.1418653E+00
          2   -1    0    0  502    0  0.00000000000E+00  0.00000000000E+00  0.10810535231E+04  0.10810535231E+04  0.00000000000E+00 0. -1.
          1   -1    0    0  501    0 -0.00000000000E+00 -0.00000000000E+00 -0.10075937440E+04  0.10075937440E+04  0.00000000000E+00 0. -1.
         25    2    1    2    0    0  0.10929117764E+03 -0.38065040730E+02  0.14806420226E+03  0.22570024754E+03  0.12499633960E+03 0.  0.
          2    1    1    2  501    0 -0.10310348896E+03  0.92073266543E+01 -0.96576561646E+03  0.97129724093E+03  0.00000000000E+00 0. -1.
          1    1    1    2  502    0 -0.61876886711E+01  0.28857714076E+02  0.89116119330E+03  0.89164977856E+03  0.00000000000E+00 0. -1.
         22    1    3    3    0    0  0.10440583017E+03  0.53983377071E+01  0.14892217407E+03  0.18195475633E+03  0.00000000000E+00 0. -1.
         22    1    3    3    0    0  0.48853474708E+01 -0.43463378437E+02 -0.85797181338E+00  0.43745491204E+02  0.00000000000E+00 0. -1.
</event>
<event>
 7    1  0.6507405E-006  0.8274542E+02  0.7818608E-02  0.1341437E+00
          2   -1    0    0  502    0  0.00000000000E+00  0.00000000000E+00  0.12584522827E+04  0.12584522827E+04  0.00000000000E+00 0. -1.
          1   -1    0    0  501    0 -0.00000000000E+00 -0.00000000000E+00 -0.92002002965E+03  0.92002002965E+03  0.00000000000E+00 0. -1.
         25    2    1    2    0    0  0.13636586979E+03  0.36055080338E+02  0.25985450775E+03  0.32100719724E+03  0.12500254485E+03 0.  0.
          2    1    1    2  501    0 -0.69062153259E+02  0.70606721921E+01 -0.88643427430E+03  0.88914855719E+03  0.00000000000E+00 0. -1.
          1    1    1    2  502    0 -0.67303716527E+02 -0.43115752530E+02  0.96501201964E+03  0.96831655796E+03  0.00000000000E+00 0. -1.
         22    1    3    3    0    0  0.69780768911E+02  0.35372410879E+02  0.23861562415E+03  0.25111347883E+03  0.00000000000E+00 0.  1.
         22    1    3    3    0    0  0.66585100874E+02  0.68266945871E+00  0.21238883600E+02  0.69893718406E+02  0.00000000000E+00 0.  1.
</event>
<event>
 7    1  0.6507405E-006  0.1478075E+03  0.7818608E-02  0.1272801E+00
          2   -1    0    0  502    0  0.00000000000E+00  0.00000000000E+00  0.15321981769E+04  0.15321981769E+04  0.00000000000E+00 0. -1.
          1   -1    0    0  501    0 -0.00000000000E+00 -0.00000000000E+00 -0.13664013252E+04  0.13664013252E+04  0.00000000000E+00 0. -1.
         25    2    1    2    0    0 -0.16075474334E+03 -0.97420812758E+02  0.12141994959E+03  0.25632179788E+03  0.12500063059E+03 0.  0.
          2    1    1    2  501    0  0.17126823746E+02  0.70638768416E+02 -0.12939548004E+04  0.12959946718E+04  0.00000000000E+00 0. -1.
          1    1    1    2  502    0  0.14362791959E+03  0.26782044342E+02  0.13383317026E+04  0.13462830324E+04  0.00000000000E+00 0. -1.
         22    1    3    3    0    0 -0.16504558851E+03 -0.11533285506E+03  0.12576218756E+03  0.23739806563E+03  0.00000000000E+00 0.  1.
         22    1    3    3    0    0  0.42908451759E+01  0.17912042301E+02 -0.43422379755E+01  0.18923732252E+02  0.00000000000E+00 0.  1.
</event>
<event>
 7    1  0.6507405E-006  0.3684377E+02  0.7818608E-02  0.1560362E+00
          2   -1    0    0  502    0  0.00000000000E+00  0.00000000000E+00  0.11532754446E+04  0.11532754446E+04  0.00000000000E+00 0. -1.
          1   -1    0    0  501    0 -0.00000000000E+00 -0.00000000000E+00 -0.31459913688E+02  0.31459913688E+02  0.00000000000E+00 0. -1.
         25    2    1    2    0    0  0.32824556151E+02 -0.42167369049E+02  0.15821977719E+03  0.20860174993E+03  0.12500261470E+03 0.  0.
          2    1    1    2  501    0 -0.30345725335E+02  0.55170328887E+01  0.34362165030E+02  0.46174225316E+02  0.00000000000E+00 0. -1.
          1    1    1    2  502    0 -0.24788308151E+01  0.36650336160E+02  0.92923358865E+03  0.92995938300E+03  0.00000000000E+00 0. -1.
         22    1    3    3    0    0 -0.77572789670E+01 -0.50525063441E+02  0.15915014506E+03  0.16715778799E+03  0.00000000000E+00 0. -1.
         22    1    3    3    0    0  0.40581835118E+02  0.83576943919E+01 -0.93036787416E+00  0.41443961942E+02  0.00000000000E+00 0. -1.
</event>
<event>
 7    1  0.6507405E-006  0.5815892E+02  0.7818608E-02  0.1456730E+00
          2   -1    0    0  502    0  0.00000000000E+00  0.00000000000E+00  0.12361671468E+03  0.12361671468E+03  0.00000000000E+00 0. -1.
          1   -1    0    0  501    0 -0.00000000000E+00 -0.00000000000E+00 -0.20840039805E+04  0.20840039805E+04  0.00000000000E+00 0. -1.
         25    2    1    2    0    0 -0.60646802993E+02 -0.10929449397E+02 -0.69131732249E+02  0.15556901182E+03  0.12500013383E+03 0.  0.
          2    1    1    2  501    0  0.85457066002E+01  0.38596482381E+02 -0.19606063601E+04  0.19610048488E+04  0.00000000000E+00 0. -1.
          1    1    1    2  502    0  0.52101096393E+02 -0.27667032983E+02  0.69350826505E+02  0.91046834631E+02  0.00000000000E+00 0. -1.
         22    1    3    3    0    0  0.20633335122E+02 -0.26481575440E+02  0.15697994975E+02  0.37059889400E+02  0.00000000000E+00 0.  1.
         22    1    3    3    0    0 -0.81280138115E+02  0.15552126043E+02 -0.84829727224E+02  0.11850912242E+03  0.00000000000E+00 0.  1.
</event>
<event>
 7    1  0.6507405E-006  0.1061158E+03  0.7818608E-02  0.1334004E+00
          2   -1    0    0  502    0  0.00000000000E+00  0.00000000000E+00  0.16840264100E+04  0.16840264100E+04  0.00000000000E+00 0. -1.
          1   -1    0    0  501    0 -0.00000000000E+00 -0.00000000000E+00 -0.35039130421E+02  0.35039130421E+02  0.00000000000E+00 0. -1.
         25    2    1    2    0    0 -0.50128285317E+02 -0.38031160176E+02  0.41057895716E+03  0.43377122229E+03  0.12499271617E+03 0.  0.
          2    1    1    2  501    0 -0.23626700551E+02 -0.52691864949E+02  0.19735752005E+02  0.61025843033E+02  0.00000000000E+00 0. -1.
          1    1    1    2  502    0  0.73754985868E+02  0.90723025125E+02  0.12186725705E+04  0.12242684751E+04  0.00000000000E+00 0. -1.
         22    1    3    3    0    0 -0.52620896076E+02  0.18893892350E+02  0.75861646433E+02  0.94238671847E+02  0.00000000000E+00 0.  1.
         22    1    3    3    0    0  0.24926107589E+01 -0.56925052526E+02  0.33471731072E+03  0.33953255044E+03  0.00000000000E+00 0.  1.
</event>
<event>
 7    1  0.6507405E-006  0.6202811E+02  0.7818608E-02  0.1392052E+00
          2   -1    0    0  502    0  0.00000000000E+00  0.00000000000E+00  0.26199933801E+03  0.26199933801E+03  0.00000000000E+00 0. -1.
          1   -1    0    0  501    0 -0.00000000000E+00 -0.00000000000E+00 -0.38661082164E+03  0.38661082164E+03  0.00000000000E+00 0. -1.
         25    2    1    2    0    0 -0.12370747600E+01  0.40250468042E+02 -0.21404044416E+02  0.13305478458E+03  0.12499524812E+03 0.  0.
          2    1    1    2  501    0  0.59651895043E+02 -0.11639694151E+02 -0.30113857209E+03  0.30721046639E+03  0.00000000000E+00 0. -1.
          1    1    1    2  502    0 -0.58414820283E+02 -0.28610773891E+02  0.19793113288E+03  0.20834490868E+03  0.00000000000E+00 0. -1.
         22    1    3    3    0    0 -0.29073914483E+02  0.25558167699E+02 -0.67160097252E+02  0.77517682514E+02  0.00000000000E+00 0. -1.
         22    1    3    3    0    0  0.27836839723E+02  0.14692300343E+02  0.45756052836E+02  0.55537102069E+02  0.00000000000E+00 0. -1.
</event>
<event>
 7    1  0.6507405E-006  0.4693850E+02  0.7818608E-02  0.1474449E+00
          2   -1    0    0  502    0  0.00000000000E+00  0.00000000000E+00  0.73873677801E+03  0.73873677801E+03  0.00000000000E+00 0. -1.
          1   -1    0    0  501    0 -0.00000000000E+00 -0.00000000000E+00 -0.10015255707E+04  0.10015255707E+04  0.00000000000E+00 0. -1.
         25    2    1    2    0    0 -0.24667573331E+02 -0.19596920676E+02  0.30508434557E+03  0.33120003056E+03  0.12499789540E+03 0.  0.
          2    1    1    2  501    0 -0.93686096103E+01  0.46052583920E+02 -0.98680243192E+03  0.98792087283E+03  0.00000000000E+00 0. -1.
          1    1    1    2  502    0  0.34036182941E+02 -0.26455663244E+02  0.41892929366E+03  0.42114144531E+03  0.00000000000E+00 0. -1.
         22    1    3    3    0    0 -0.56298023627E+02  0.34357971898E+02  0.16975827404E+03  0.18212031546E+03  0.00000000000E+00 0.  1.
         22    1    3    3    0    0  0.31630450297E+02 -0.53954892574E+02  0.13532607153E+03  0.14907971510E+03  0.00000000000E+00 0.  1.
</event>
<event>
 7    1  0.6507405E-006  0.9691195E+02  0.7818608E-02  0.1470089E+00
          2   -1    0    0  502    0  0.00000000000E+00  0.00000000000E+00  0.83801903800E+03  0.83801903800E+03  0.00000000000E+00 0. -1.
          1   -1    0    0  501    0 -0.00000000000E+00 -0.00000000000E+00 -0.20987049420E+04  0.20987049420E+04  0.00000000000E+00 0. -1.
         25    2    1    2    0    0  0.14311389960E+01  0.88801272849E+02 -0.32591533060E+03  0.36018412292E+03  0.12499634182E+03 0.  0.
          2    1    1    2  501    0 -0.22001034644E+02 -0.95190952380E+02 -0.17541543452E+04  0.17568730260E+04  0.00000000000E+00 0. -1.
          1    1    1    2  502    0  0.20569895648E+02  0.63896795303E+01  0.81938377173E+03  0.81966683109E+03  0.00000000000E+00 0. -1.
         22    1    3    3    0    0 -0.21979665725E+02  0.31934302581E+02 -0.12411688167E+02  0.40705716918E+02  0.00000000000E+00 0.  1.
         22    1    3    3    0    0  0.23410804721E+02  0.56866970269E+02 -0.31350364243E+03  0.31947840600E+03  0.00000000000E+00 0.  1.
</event>
<event>
 7    1  0.6507405E-006  0.1635263E+03  0.7818608E-02  0.1310314E+00
          2   -1    0    0  502    0  0.00000000000E+00  0.00000000000E+00  0.17264368828E+04  0.17264368828E+04  0.00000000000E+00 0. -1.
          1   -1    0    0  501    0 -0.00000000000E+00 -0.00000000000E+00 -0.47921103080E+03  0.47921103080E+03  0.00000000000E+00 0. -1.
         25    2    1    2    0    0 -0.23287159771E+02 -0.18053168838E+03  0.45829771204E+03  0.50872024477E+03  0.12500204904E+03 0.  0.
          2    1    1    2  501    0 -0.34593671132E+02  0.30732944053E+02 -0.44761472639E+03  0.45000019913E+03  0.00000000000E+00 0. -1.
          1    1    1    2  502    0  0.57880830902E+02  0.14979874432E+03  0.12365428664E+04  0.12469274697E+04  0.00000000000E+00 0. -1.
         22    1    3    3    0    0 -0.63270663177E+02 -0.16694201117E+03  0.37506691562E+03  0.41538897807E+03  0.00000000000E+00 0. -1.
         22    1    3    3    0    0  0.39983503407E+02 -0.13589677205E+02  0.83230796422E+02  0.93331266702E+02  0.00000000000E+00 0. -1.
</event>
<event>
 7    1  0.6507405E-006  0.7618664E+02  0.7818608E-02  0.1427965E+00
          2   -1    0    0  502    0  0.00000000000E+00  0.00000000000E+00  0.14174837963E+04  0.14174837963E+04  0.00000000000E+00 0. -1.
          1   -1    0    0  501    0 -0.00000000000E+00 -0.00000000000E+00 -0.23159910746E+03  0.23159910746E+03  0.00000000000E+00 0. -1.
         25    2    1    2    0    0  0.78972130551E+01  0.58249370484E+02  0.29019761539E+00  0.13813354058E+03  0.12500174272E+03 0.  0.
          2    1    1    2  501    0  0.25409924506E+02 -0.75233541395E+02 -0.15271021861E+03  0.17212251707E+03  0.00000000000E+00 0. -1.
          1    1    1    2  502    0 -0.33307137561E+02  0.16984170911E+02  0.13383047099E+04  0.13388268461E+04  0.00000000000E+00 0. -1.
         22    1    3    3    0    0  0.31984316650E+02 -0.26563106258E+02 -0.22216122379E+02  0.47139698972E+02  0.00000000000E+00 0. -1.
         22    1    3    3    0    0 -0.24087103595E+02  0.84812476742E+02  0.22506319995E+02  0.90993841607E+02  0.00000000000E+00 0. -1.
</event>
<event>
 7    1  0.6507405E-006  0.4978487E+02  0.7818608E-02  0.1540220E+00
          2   -1    0    0  502    0  0.00000000000E+00  0.00000000000E+00  0.14591331133E+03  0.14591331133E+03  0.00000000000E+00 0. -1.
          1   -1    0    0  501    0 -0.00000000000E+00 -0.00000000000E+00 -0.22767353462E+03  0.22767353462E+03  0.00000000000E+00 0. -1.
         25    2    1    2    0    0  0.20120748420E+01  0.67249788793E+02  0.43264277778E+02  0.14839913162E+03  0.12499568790E+03 0.  0.
          2    1    1    2  501    0 -0.17189515315E+02 -0.46167788791E+02 -0.16794330391E+03  0.17501970600E+03  0.00000000000E+00 0. -1.
          1    1    1    2  502    0  0.15177440473E+02 -0.21082000002E+02  0.42918802842E+02  0.50168008340E+02  0.00000000000E+00 0. -1.
         22    1    3    3    0    0  0.51445967219E+02  0.61017313725E+01  0.46623046493E+02  0.69696679498E+02  0.00000000000E+00 0. -1.
         22    1    3    3    0    0 -0.49433892377E+02  0.61148057421E+02 -0.33587687145E+01  0.78702452117E+02  0.00000000000E+00 0. -1.
</event>
<event>
 7    1  0.6507405E-006  0.8944612E+02  0.7818608E-02  0.1464652E+00
          2   -1    0    0  502    0  0.00000000000E+00  0.00000000000E+00  0.14810386275E+04  0.14810386275E+04  0.00000000000E+00 0. -1.
          1   -1    0    0  501    0 -0.00000000000E+00 -0.00000000000E+00 -0.76152009052E+02  0.76152009052E+02  0.00000000000E+00 0. -1.
         25    2    1    2    0    0  0.33572031334E+02  0.68343240229E+02  0.42547439247E+03  0.44994571015E+03  0.12499921463E+03 0.  0.
          2    1    1    2  501    0 -0.57800048205E+02 -0.69727282023E+02 -0.31613609266E+02  0.95927888133E+02  0.00000000000E+00 0. -1.
          1    1    1    2  502    0  0.24228016871E+02  0.13840417941E+01  0.10110258352E+04  0.10113170382E+04  0.00000000000E+00 0. -1.
         22    1    3    3    0    0  0.76712199777E+01  0.94726812070E+02  0.19966076066E+03  0.22112538499E+03  0.00000000000E+00 0. -1.
         22    1    3    3    0    0  0.25900811357E+02 -0.26383571841E+02  0.22581363182E+03  0.22882032516E+03  0.00000000000E+00 0. -1.
</event>
<event>
 7    1  0.6507405E-006  0.6657551E+02  0.7818608E-02  0.1502860E+00
          2   -1    0    0  502    0  0.00000000000E+00  0.00000000000E+00  0.60824689085E+03  0.60824689085E+03  0.00000000000E+00 0. -1.
          1   -1    0    0  501    0 -0.00000000000E+00 -0.00000000000E+00 -0.91749948543E+03  0.91749948543E+03  0.00000000000E+00 0. -1.
         25    2    1    2    0    0 -0.62718977972E+02 -0.28515952833E+02 -0.59269796402E+02  0.15454779384E+03  0.12500112820E+03 0.  0.
          2    1    1    2  501    0  0.16077361903E+02 -0.19047998659E+02 -0.80841892191E+03  0.80880310405E+03  0.00000000000E+00 0. -1.
          1    1    1    2  502    0  0.46641616069E+02  0.47563951492E+02  0.55843612373E+03  0.56239547840E+03  0.00000000000E+00 0. -1.
         22    1    3    3    0    0 -0.75847414194E+00 -0.38433251993E+02  0.27644745053E+02  0.47348939491E+02  0.00000000000E+00 0. -1.
         22    1    3    3    0    0 -0.61960503830E+02  0.99172991605E+01 -0.86914541456E+02  0.10719885435E+03  0.00000000000E+00 0. -1.
</event>
<event>
 7    1  0.6507405E-006  0.4232393E+02  0.7818608E-02  0.1583853E+00
          2   -1    0    0  502    0  0.00000000000E+00  0.00000000000E+00  0.76799525078E+03  0.76799525078E+03  0.00000000000E+00 0. -1.
          1   -1    0    0  501    0 -0.00000000000E+00 -0.00000000000E+00 -0.15751063326E+03  0.15751063326E+03  0.00000000000E+00 0. -1.
         25    2    1    2    0    0 -0.64436923960E+02 -0.34902868672E+01  0.19525809354E+03  0.24065442440E+03  0.12499811846E+03 0.  0.
          2    1    1    2  501    0  0.41940865700E+02 -0.21379829414E+01 -0.13129013051E+03  0.13784304682E+03  0.00000000000E+00 0. -1.
          1    1    1    2  502    0  0.22496058260E+02  0.56282698086E+01  0.54651665449E+03  0.54700841282E+03  0.00000000000E+00 0. -1.
         22    1    3    3    0    0 -0.33422011605E+01  0.46577521545E+02  0.25006551739E+02  0.52971345573E+02  0.00000000000E+00 0. -1.
         22    1    3    3    0    0 -0.61094722799E+02 -0.50067808413E+02  0.17025154180E+03  0.18768307883E+03  0.00000000000E+00 0. -1.
</event>
<event>
 7    1  0.6507405E-006  0.4084800E+02  0.7818608E-02  0.1526626E+00
          2   -1    0    0  502    0  0.00000000000E+00  0.00000000000E+00  0.19060659876E+03  0.19060659876E+03  0.00000000000E+00 0. -1.
          1   -1    0    0  501    0 -0.00000000000E+00 -0.00000000000E+00 -0.32737867210E+04  0.32737867210E+04  0.00000000000E+00 0. -1.
         25    2    1    2    0    0  0.63666590645E+01  0.63832876719E+02 -0.13852862484E+04  0.13923930571E+04  0.12500105925E+03 0.  0.
          2    1    1    2  501    0  0.15294095106E+02 -0.36830604485E+02 -0.18831325800E+04  0.18835548085E+04  0.00000000000E+00 0. -1.
          1    1    1    2  502    0 -0.21660754170E+02 -0.27002272234E+02  0.18523870613E+03  0.18844545424E+03  0.00000000000E+00 0. -1.
         22    1    3    3    0    0 -0.14029328981E+02 -0.35945463935E+02 -0.40097660020E+03  0.40282891202E+03  0.00000000000E+00 0. -1.
         22    1    3    3    0    0  0.20395988046E+02  0.99778340654E+02 -0.98430964820E+03  0.98956414503E+03  0.00000000000E+00 0. -1.
</event>
<event>
 7    1  0.6507405E-006  0.1616231E+03  0.7818608E-02  0.1287931E+00
          2   -1    0    0  502    0  0.00000000000E+00  0.00000000000E+00  0.38501808640E+03  0.38501808640E+03  0.00000000000E+00 0. -1.
          1   -1    0    0  501    0 -0.00000000000E+00 -0.00000000000E+00 -0.38428591858E+04  0.38428591858E+04  0.00000000000E+00 0. -1.
         25    2    1    2    0    0  0.12688177906E+03  0.17592066246E+03 -0.22808960865E+03  0.33866970655E+03  0.12500094088E+03 0.  0.
          2    1    1    2  501    0 -0.88181918494E+02 -0.13330663190E+03 -0.35551578249E+04  0.35587489191E+04  0.00000000000E+00 0. -1.
          1    1    1    2  502    0 -0.38699860564E+02 -0.42614030561E+02  0.32540633416E+03  0.33045864661E+03  0.00000000000E+00 0. -1.
         22    1    3    3    0    0  0.58068015169E+02  0.16413155873E+03 -0.12567299236E+03  0.21472019924E+03  0.00000000000E+00 0.  1.
         22    1    3    3    0    0  0.68813763889E+02  0.11789103737E+02 -0.10241661630E+03  0.12394950731E+03  0.00000000000E+00 0.  1.
</event>
<event>
 7    1  0.6507405E-006  0.8761085E+02  0.7818608E-02  0.1329184E+00
          2   -1    0    0  502    0  0.00000000000E+00  0.00000000000E+00  0.15152260120E+03  0.15152260120E+03  0.00000000000E+00 0. -1.
          1   -1    0    0  501    0 -0.00000000000E+00 -0.00000000000E+00 -0.22831693126E+04  0.22831693126E+04  0.00000000000E+00 0. -1.
         25    2    1    2    0    0  0.64079418541E+02 -0.38128358664E+02 -0.58787904730E+03  0.60562491423E+03  0.12497927375E+03 0.  0.
          2    1    1    2  501    0 -0.14740233301E+02  0.91882589008E+02 -0.16757108484E+04  0.16782927432E+04  0.00000000000E+00 0. -1.
          1    1    1    2  502    0 -0.49339185240E+02 -0.53754230344E+02  0.13194318431E+03  0.15077425631E+03  0.00000000000E+00 0. -1.
         22    1    3    3    0    0  0.84458350436E+02  0.65636584013E+01 -0.47539854121E+03  0.48288722033E+03  0.00000000000E+00 0. -1.
         22    1    3    3    0    0 -0.20378931895E+02 -0.44692017065E+02 -0.11248050609E+03  0.12273769390E+03  0.00000000000E+00 0. -1.
</event>
<event>
 7    1  0.8078723E-006  0.1120694E+03  0.7818608E-02  0.1317765E+00
          2   -1    0    0  502    0  0.00000000000E+00  0.00000000000E+00  0.13632368604E+04  0.13632368604E+04  0.00000000000E+00 0. -1.
          1   -1    0    0  501    0 -0.00000000000E+00 -0.00000000000E+00 -0.10832843597E+04  0.10832843597E+04  0.00000000000E+00 0. -1.
         25    2    1    2    0    0 -0.47893473761E+02  0.87726788767E+02 -0.23664050598E+03  0.28567737248E+03  0.12499223089E+03 0.  0.
          2    1    1    2  501    0 -0.51838265758E+02 -0.36035165512E+02 -0.81855132807E+03  0.82098234795E+03  0.00000000000E+00 0. -1.
          1    1    1    2  502    0  0.99731739519E+02 -0.51691623255E+02  0.13351443348E+04  0.13398614997E+04  0.00000000000E+00 0. -1.
         22    1    3    3    0    0 -0.52042090060E+02  0.17176189004E+02 -0.20894951892E+02  0.58651509964E+02  0.00000000000E+00 0. -1.
         22    1    3    3    0    0  0.41486162986E+01  0.70550599763E+02 -0.21574555409E+03  0.22702586252E+03  0.00000000000E+00 0. -1.
</event>
<event>
 7    1  0.6507405E-006  0.2499438E+03  0.7818608E-02  0.1255050E+00
          2   -1    0    0  502    0  0.00000000000E+00  0.00000000000E+00  0.27335785718E+03  0.27335785718E+03  0.00000000000E+00 0. -1.
          1   -1    0    0  501    0 -0.00000000000E+00 -0.00000000000E+00 -0.11407077128E+04  0.11407077128E+04  0.00000000000E+00 0. -1.
         25    2    1    2    0    0 -0.21405289813E+03  0.52692247041E+02 -0.26744673083E+03  0.36843815540E+03  0.12499521762E+03 0.  0.
          2    1    1    2  501    0 -0.42182044234E+02 -0.28877191073E+02 -0.74731235962E+03  0.74905872924E+03  0.00000000000E+00 0. -1.
          1    1    1    2  502    0  0.25623494237E+03 -0.23815055968E+02  0.14740923486E+03  0.29656868530E+03  0.00000000000E+00 0. -1.
         22    1    3    3    0    0 -0.20154556243E+03  0.65543250851E+02 -0.27647551111E+03  0.34836078957E+03  0.00000000000E+00 0.  1.
         22    1    3    3    0    0 -0.12507335702E+02 -0.12851003810E+02  0.90287802811E+01  0.20077365830E+02  0.00000000000E+00 0.  1.
</event>
<event>
 7    1  0.6507405E-006  0.1085350E+03  0.7818608E-02  0.1265800E+00
          2   -1    0    0  502    0  0.00000000000E+00  0.00000000000E+00  0.24717805408E+04  0.24717805408E+04  0.00000000000E+00 0. -1.
          1   -1    0    0  501    0 -0.00000000000E+00 -0.00000000000E+00 -0.27856104957E+02  0.27856104957E+02  0.00000000000E+00 0. -1.
         25    2    1    2    0    0 -0.28858760413E+01 -0.12907099726E+02  0.20755038626E+03  0.24264578573E+03  0.12499957197E+03 0.  0.
          2    1    1    2  501    0  0.79465849727E+02 -0.73925796241E+02  0.33602968505E+03  0.35312291608E+03  0.00000000000E+00 0. -1.
          1    1    1    2  502    0 -0.76579973686E+02  0.86832895967E+02  0.19003443646E+04  0.19038679440E+04  0.00000000000E+00 0. -1.
         22    1    3    3    0    0 -0.19880495285E+02 -0.56196041268E+02  0.48230879142E+02  0.76677551146E+02  0.00000000000E+00 0. -1.
         22    1    3    3    0    0  0.16994619244E+02  0.43288941541E+02  0.15931950712E+03  0.16596823459E+03  0.00000000000E+00 0. -1.
</event>
<event>
 7    1  0.6507405E-006  0.4548697E+02  0.7818608E-02  0.1536432E+00
          2   -1    0    0  502    0  0.00000000000E+00  0.00000000000E+00  0.21388327445E+04  0.21388327445E+04  0.00000000000E+00 0. -1.
          1   -1    0    0  501    0 -0.00000000000E+00 -0.00000000000E+00 -0.71589910207E+02  0.71589910207E+02  0.00000000000E+00 0. -1.
         25    2    1    2    0    0  0.73831551748E+02  0.56855660173E+01  0.15869123125E+03  0.21515368147E+03  0.12499910432E+03 0.  0.
          2    1    1    2  501    0 -0.29121745800E+02  0.11089285525E+01 -0.38169266894E+02  0.48022898040E+02  0.00000000000E+00 0. -1.
          1    1    1    2  502    0 -0.44709805948E+02 -0.67944945698E+01  0.19467208699E+04  0.19472460752E+04  0.00000000000E+00 0. -1.
         22    1    3    3    0    0  0.62752845553E+02 -0.17455950981E+02  0.11995029037E+02  0.66230737360E+02  0.00000000000E+00 0. -1.
         22    1    3    3    0    0  0.11078706195E+02  0.23141516998E+02  0.14669620221E+03  0.14892294411E+03  0.00000000000E+00 0. -1.
</event>
<event>
 7    1  0.6507405E-006  0.5031155E+02  0.7818608E-02  0.1498494E+00
          2   -1    0    0  502    0  0.00000000000E+00  0.00000000000E+00  0.42170711986E+03  0.42170711986E+03  0.00000000000E+00 0. -1.
          1   -1    0    0  501    0 -0.00000000000E+00 -0.00000000000E+00 -0.72821811828E+02  0.72821811828E+02  0.00000000000E+00 0. -1.
         25    2    1    2    0    0 -0.29462517877E+02 -0.37561346793E+01  0.87332159564E+02  0.15535243778E+03  0.12500130128E+03 0.  0.
          2    1    1    2  501    0  0.41006017027E+02  0.35723216156E+02 -0.18213398622E+02  0.57353025154E+02  0.00000000000E+00 0. -1.
          1    1    1    2  502    0 -0.11543499150E+02 -0.31967081477E+02  0.27976654708E+03  0.28182346875E+03  0.00000000000E+00 0. -1.
         22    1    3    3    0    0 -0.37604178623E+01  0.51969214442E+02  0.45478868438E+01  0.52303186011E+02  0.00000000000E+00 0.  1.
         22    1    3    3    0    0 -0.25702100015E+02 -0.55725349121E+02  0.82784272721E+02  0.10304925177E+03  0.00000000000E+00 0.  1.
</event>
<event>
 7    1  0.6507405E-006  0.7628261E+02  0.7818608E-02  0.1404850E+00
          2   -1    0    0  502    0  0.00000000000E+00  0.00000000000E+00  0.31757081510E+03  0.31757081510E+03  0.00000000000E+00 0. -1.
          1   -1    0    0  501    0 -0.00000000000E+00 -0.00000000000E+00 -0.79772761314E+03  0.79772761314E+03  0.00000000000E+00 0. -1.
         25    2    1    2    0    0  0.29669654032E+02 -0.70058228299E+02 -0.35669836767E+03  0.38554874209E+03  0.12500265322E+03 0.  0.
          2    1    1    2  501    0 -0.65720698275E+02  0.43720698170E+02 -0.42127441417E+03  0.42860569486E+03  0.00000000000E+00 0. -1.
          1    1    1    2  502    0  0.36051044243E+02  0.26337530128E+02  0.29781598379E+03  0.30114399128E+03  0.00000000000E+00 0. -1.
         22    1    3    3    0    0  0.78941712914E+02 -0.45398711231E+02 -0.23119610156E+03  0.24848435443E+03  0.00000000000E+00 0. -1.
         22    1    3    3    0    0 -0.49272058882E+02 -0.24659517068E+02 -0.12550226610E+03  0.13706438766E+03  0.00000000000E+00 0. -1.
</event>
<event>
 7    1  0.6507405E-006  0.4085093E+02  0.7818608E-02  0.1547569E+00
          2   -1    0    0  502    0  0.00000000000E+00  0.00000000000E+00  0.91679773788E+02  0.91679773788E+02  0.00000000000E+00 0. -1.
          1   -1    0    0  501    0 -0.00000000000E+00 -0.00000000000E+00 -0.35570292123E+03  0.35570292123E+03  0.00000000000E+00 0. -1.
         25    2    1    2    0    0  0.29789830499E+02 -0.50988208474E+02 -0.24614033571E+03  0.28230085084E+03  0.12498589567E+03 0.  0.
          2    1    1    2  501    0 -0.31521217846E+02  0.20850910869E+02 -0.84158558509E+02  0.92255138767E+02  0.00000000000E+00 0. -1.
          1    1    1    2  502    0  0.17313873474E+01  0.30137297605E+02  0.66275746781E+02  0.72826705407E+02  0.00000000000E+00 0. -1.
         22    1    3    3    0    0  0.17709689124E+02  0.40129917405E+02 -0.10588128852E+03  0.11460755045E+03  0.00000000000E+00 0.  1.
         22    1    3    3    0    0  0.12080141375E+02 -0.91118125879E+02 -0.14025904719E+03  0.16769330040E+03  0.00000000000E+00 0.  1.
</event>
<event>
 7    1  0.6507405E-006  0.9490118E+02  0.7818608E-02  0.1358395E+00
          2   -1    0    0  502    0  0.00000000000E+00  0.00000000000E+00  0.75835752254E+03  0.75835752254E+03  0.00000000000E+00 0. -1.
          1   -1    0    0  501    0 -0.00000000000E+00 -0.00000000000E+00 -0.10889473036E+03  0.10889473036E+03  0.00000000000E+00 0. -1.
         25    2    1    2    0    0 -0.32685763234E+02  0.93338415884E+02  0.21084196171E+03  0.26430946960E+03  0.12499897562E+03 0.  0.
          2    1    1    2  501    0 -0.41502244953E+02 -0.31949662545E+02 -0.68799024323E+02  0.86466889737E+02  0.00000000000E+00 0. -1.
          1    1    1    2  502    0  0.74188008187E+02 -0.61388753338E+02  0.50741985479E+03  0.51647589356E+03  0.00000000000E+00 0. -1.
         22    1    3    3    0    0 -0.11290011022E+02 -0.25566486422E+02  0.86656295455E+02  0.91051760657E+02  0.00000000000E+00 0. -1.
         22    1    3    3    0    0 -0.21395752212E+02  0.11890490231E+03  0.12418566625E+03  0.17325770894E+03  0.00000000000E+00 0. -1.
</event>
<event>
 7    1  0.6507405E-006  0.7897627E+02  0.7818608E-02  0.1338305E+00
          2   -1    0    0  502    0  0.00000000000E+00  0.00000000000E+00  0.13542267834E+04  0.13542267834E+04  0.00000000000E+00 0. -1.
          1   -1    0    0  501    0 -0.00000000000E+00 -0.00000000000E+00 -0.48009769773E+03  0.48009769773E+03  0.00000000000E+00 0. -1.
         25    2    1    2    0    0 -0.46272004306E+02 -0.64919754929E+01  0.72503833119E+02  0.15187004390E+03  0.12499784114E+03 0.  0.
          2    1    1    2  501    0  0.43599193016E+02 -0.68196499288E+02 -0.43555837322E+03  0.44301551737E+03  0.00000000000E+00 0. -1.
          1    1    1    2  502    0  0.26728112905E+01  0.74688474781E+02  0.12371836257E+04  0.12394389198E+04  0.00000000000E+00 0. -1.
         22    1    3    3    0    0 -0.21387345572E+01  0.55993082904E+02  0.39489918163E+02  0.68551098862E+02  0.00000000000E+00 0.  1.
         22    1    3    3    0    0 -0.44133269749E+02 -0.62485058397E+02  0.33013914956E+02  0.83318945039E+02  0.00000000000E+00 0.  1.
</event>
<event>
 7    1  0.6507405E-006  0.1896355E+03  0.7818608E-02  0.1250733E+00
          2   -1    0    0  502    0  0.00000000000E+00  0.00000000000E+00  0.13954517089E+04  0.13954517089E+04  0.00000000000E+00 0. -1.
          1   -1    0    0  501    0 -0.00000000000E+00 -0.00000000000E+00 -0.84952945280E+03  0.84952945280E+03  0.00000000000E+00 0. -1.
         25    2    1    2    0    0  0.61962877485E+02 -0.11809995544E+03  0.14167806261E+03  0.23126679788E+03  0.12499864286E+03 0.  0.
          2    1    1    2  501    0  0.53776326516E+02 -0.45327982897E+02 -0.79487870840E+03  0.79798413542E+03  0.00000000000E+00 0. -1.
          1    1    1    2  502    0 -0.11573920400E+03  0.16342793834E+03  0.11991229019E+04  0.12157302284E+04  0.00000000000E+00 0. -1.
         22    1    3    3    0    0  0.31165426475E+02 -0.48643005558E+02 -0.12749300075E+02  0.59160548083E+02  0.00000000000E+00 0. -1.
         22    1    3    3    0    0  0.30797451010E+02 -0.69456949886E+02  0.15442736268E+03  0.17210624980E+03  0.00000000000E+00 0. -1.
</event>
<event>
 7    1  0.6507405E-006  0.5886097E+02  0.7818608E-02  0.1415139E+00
          2   -1    0    0  502    0  0.00000000000E+00  0.00000000000E+00  0.13663208589E+04  0.13663208589E+04  0.00000000000E+00 0. -1.
          1   -1    0    0  501    0 -0.00000000000E+00 -0.00000000000E+00 -0.16674430619E+04  0.16674430619E+04  0.00000000000E+00 0. -1.
         25    2    1    2    0    0 -0.33230989897E+02 -0.80946797689E+02 -0.24703252671E+02  0.15456947999E+03  0.12499916282E+03 0.  0.
          2    1    1    2  501    0  0.47708781759E+02  0.23982576356E+02 -0.15766908699E+04  0.15775948120E+04  0.00000000000E+00 0. -1.
          1    1    1    2  502    0 -0.14477791862E+02  0.56964221332E+02  0.13002719195E+04  0.13015996287E+04  0.00000000000E+00 0. -1.
         22    1    3    3    0    0  0.44461799105E+02 -0.30730711537E+02  0.11449060031E+02  0.55247707525E+02  0.00000000000E+00 0. -1.
         22    1    3    3    0    0 -0.77692789002E+02 -0.50216086151E+02 -0.36152312702E+02  0.99321772461E+02  0.00000000000E+00 0. -1.
</event>
<event>
 7    1  0.6507405E-006  0.4458516E+02  0.7818608E-02  0.1564114E+00
          2   -1    0    0  502    0  0.00000000000E+00  0.00000000000E+00  0.14135641316E+03  0.14135641316E+03  0.00000000000E+00 0. -1.
          1   -1    0    0  501    0 -0.00000000000E+00 -0.00000000000E+00 -0.17357718874E+03  0.17357718874E+03  0.00000000000E+00 0. -1.
         25    2    1    2    0    0 -0.11221966658E+02  0.17973366451E+02 -0.58135716342E+02  0.13948030030E+03  0.12500407282E+03 0.  0.
          2    1    1    2  501    0 -0.87757262994E+01  0.23292240780E+02 -0.67198874996E+02  0.71660523674E+02  0.00000000000E+00 0. -1.
          1    1    1    2  502    0  0.19997692958E+02 -0.41265607230E+02  0.93113815760E+02  0.10379277792E+03  0.00000000000E+00 0. -1.
         22    1    3    3    0    0  0.26655979825E+02  0.32238135458E+02 -0.82314229223E+02  0.92333476978E+02  0.00000000000E+00 0.  1.
         22    1    3    3    0    0 -0.37877946483E+02 -0.14264769008E+02  0.24178512880E+02  0.47146823326E+02  0.00000000000E+00 0.  1.
</event>
<event>
 7    1  0.6507405E-006  0.9045225E+02  0.7818608E-02  0.1324813E+00
          2   -1    0    0  502    0  0.00000000000E+00  0.00000000000E+00  0.33430018263E+04  0.33430018263E+04  0.00000000000E+00 0. -1.
          1   -1    0    0  501    0 -0.00000000000E+00 -0.00000000000E+00 -0.65417801335E+03  0.65417801335E+03  0.00000000000E+00 0. -1.
         25    2    1    2    0    0  0.46509481588E+02  0.26411704091E+02 -0.16279839300E+03  0.21210640079E+03  0.12500039401E+03 0.  0.
          2    1    1    2  501    0 -0.28804169089E+02 -0.97702154913E+02 -0.46075602467E+03  0.47188081706E+03  0.00000000000E+00 0. -1.
          1    1    1    2  502    0 -0.17705312499E+02  0.71290450822E+02  0.33123782307E+04  0.33131926218E+04  0.00000000000E+00 0. -1.
         22    1    3    3    0    0  0.22087221305E+02 -0.36055624539E+02 -0.13142579314E+03  0.13806010470E+03  0.00000000000E+00 0.  1.
         22    1    3    3    0    0  0.24422260283E+02  0.62467328631E+02 -0.31372599856E+02  0.74046296094E+02  0.00000000000E+00 0.  1.
</event>
<event>
 7    1  0.6507405E-006  0.6943061E+02  0.7818608E-02  0.1433537E+00
          2   -1    0    0  502    0  0.00000000000E+00  0.00000000000E+00  0.32553939648E+03  0.32553939648E+03  0.00000000000E+00 0. -1.
          1   -1    0    0  501    0 -0.00000000000E+00 -0.00000000000E+00 -0.19348810068E+03  0.19348810068E+03  0.00000000000E+00 0. -1.
         25    2    1    2    0    0  0.27280574046E+01 -0.10314944823E+03  0.39654093621E+02  0.16686847437E+03  0.12500155851E+03 0.  0.
          2    1    1    2  501    0 -0.13046111473E+02  0.37103886487E+02 -0.12168492010E+03  0.12788322484E+03  0.00000000000E+00 0. -1.
          1    1    1    2  502    0  0.10318054068E+02  0.66045561744E+02  0.21408212227E+03  0.22427579794E+03  0.00000000000E+00 0. -1.
         22    1    3    3    0    0  0.85303823906E+01  0.24823174010E+02  0.27774211158E+02  0.38214711789E+02  0.00000000000E+00 0.  1.
         22    1    3    3    0    0 -0.58023249859E+01 -0.12797262224E+03  0.11879882463E+02  0.12865376258E+03  0.00000000000E+00 0.  1.
</event>
<event>
 7    1  0.6507405E-006  0.1283658E+03  0.7818608E-02  0.1282779E+00
          2   -1    0    0  502    0  0.00000000000E+00  0.00000000000E+00  0.20526644507E+04  0.20526644507E+04  0.00000000000E+00 0. -1.
          1   -1    0    0  501    0 -0.00000000000E+00 -0.00000000000E+00 -0.41555677165E+03  0.41555677165E+03  0.00000000000E+00 0. -1.
         25    2    1    2    0    0 -0.14252473299E+03  0.16731150679E+02  0.34747451641E+03  0.39617775120E+03  0.12500016029E+03 0.  0.
          2    1    1    2  501    0  0.10048366266E+03 -0.80149162838E+02 -0.37975752244E+03  0.40091973089E+03  0.00000000000E+00 0. -1.
          1    1    1    2  502    0  0.42041070330E+02  0.63418012158E+02  0.16693906850E+04  0.16711237402E+04  0.00000000000E+00 0. -1.
         22    1    3    3    0    0 -0.10920257068E+03 -0.19609331616E+02  0.12004113804E+03  0.16346131699E+03  0.00000000000E+00 0.  1.
         22    1    3    3    0    0 -0.33322162313E+02  0.36340482296E+02  0.22743337837E+03  0.23271643421E+03  0.00000000000E+00 0.  1.
</event>
<event>
 7    1  0.6507405E-006  0.7538559E+02  0.7818608E-02  0.1454289E+00
          2   -1    0    0  502    0  0.00000000000E+00  0.00000000000E+00  0.22040257733E+04  0.22040257733E+04  0.00000000000E+00 0. -1.
          1   -1    0    0  501    0 -0.00000000000E+00 -0.00000000000E+00 -0.11788693323E+03  0.11788693323E+03  0.00000000000E+00 0. -1.
         25    2    1    2    0    0 -0.34376784700E+02 -0.33339032983E+02  0.24204596800E+03  0.27659713038E+03  0.12500586971E+03 0.  0.
          2    1    1    2  501    0 -0.93011056005E+01 -0.29620661988E+02 -0.97442364067E+02  0.10226880510E+03  0.00000000000E+00 0. -1.
          1    1    1    2  502    0  0.43677890301E+02  0.62959694971E+02  0.19415352361E+04  0.19430467710E+04  0.00000000000E+00 0. -1.
         22    1    3    3    0    0 -0.77958441552E+01 -0.65069227784E+01 -0.14269536900E+02  0.17513849191E+02  0.00000000000E+00 0. -1.
         22    1    3    3    0    0 -0.26580940545E+02 -0.26832110205E+02  0.25631550490E+03  0.25908328119E+03  0.00000000000E+00 0. -1.
</event>
<event>
 7    1  0.6507405E-006  0.1352688E+03  0.7818608E-02  0.1311719E+00
          2   -1    0    0  502    0  0.00000000000E+00  0.00000000000E+00  0.91168850801E+03  0.91168850801E+03  0.00000000000E+00 0. -1.
          1   -1    0    0  501    0 -0.00000000000E+00 -0.00000000000E+00 -0.72765969541E+03  0.72765969541E+03  0.00000000000E+00 0. -1.
         25    2    1    2    0    0 -0.93492806408E+02 -0.14832172047E+03 -0.10113948816E+03  0.23790368946E+03  0.12501492623E+03 0.  0.
          2    1    1    2  501    0  0.44149638910E+02  0.12350511046E+03 -0.54950737456E+03  0.56494341099E+03  0.00000000000E+00 0. -1.
          1    1    1    2  502    0  0.49343167497E+02  0.24816610006E+02  0.83467567531E+03  0.83650110297E+03  0.00000000000E+00 0. -1.
         22    1    3    3    0    0 -0.11388893846E+02 -0.44473245606E+02  0.27333299630E+02  0.53429259273E+02  0.00000000000E+00 0.  1.
         22    1    3    3    0    0 -0.82103912562E+02 -0.10384847486E+03 -0.12847278780E+03  0.18447443019E+03  0.00000000000E+00 0.  1.
</event>
<event>
 7    1  0.6507405E-006  0.4407097E+02  0.7818608E-02  0.1532079E+00
          2   -1    0    0  502    0  0.00000000000E+00  0.00000000000E+00  0.16226109529E+04  0.16226109529E+04  0.00000000000E+00 0. -1.
          1   -1    0    0  501    0 -0.00000000000E+00 -0.00000000000E+00 -0.48048226243E+03  0.48048226243E+03  0.00000000000E+00 0. -1.
         25    2    1    2    0    0  0.12775209310E+02 -0.16597387011E+02 -0.80615556642E+02  0.15021283347E+03  0.12500539243E+03 0.  0.
          2    1    1    2  501    0  0.30230961768E+02  0.66344760090E+01 -0.36410456038E+03  0.36541764901E+03  0.00000000000E+00 0. -1.
          1    1    1    2  502    0 -0.43006171077E+02  0.99629110021E+01  0.15868488075E+04  0.15874627329E+04  0.00000000000E+00 0. -1.
         22    1    3    3    0    0 -0.25007294453E+02 -0.35761172828E+02  0.14585982425E+02  0.46010619874E+02  0.00000000000E+00 0.  1.
         22    1    3    3    0    0  0.37782503763E+02  0.19163785817E+02 -0.95201539067E+02  0.10420221359E+03  0.00000000000E+00 0.  1.
</event>
<event>
 7    1  0.6507405E-006  0.1372379E+03  0.7818608E-02  0.1233884E+00
          2   -1    0    0  502    0  0.00000000000E+00  0.00000000000E+00  0.47212409308E+02  0.47212409308E+02  0.00000000000E+00 0. -1.
          1   -1    0    0  501    0 -0.00000000000E+00 -0.00000000000E+00 -0.12256519209E+04  0.12256519209E+04  0.00000000000E+00 0. -1.
         25    2    1    2    0    0  0.61961808982E+02  0.48632091125E+02 -0.28985433802E+03  0.32533779475E+03  0.12499918945E+03 0.  0.
          2    1    1    2  501    0 -0.30073785949E+02  0.13390220117E+03 -0.47290765911E+03  0.49241840555E+03  0.00000000000E+00 0. -1.
          1    1    1    2  502    0 -0.31888023033E+02 -0.18253429229E+03 -0.41567751442E+03  0.45510812987E+03  0.00000000000E+00 0. -1.
         22    1    3    3    0    0  0.22235899355E+02 -0.21784331425E+01 -0.24675818112E+03  0.24776759421E+03  0.00000000000E+00 0.  1.
         22    1    3    3    0    0  0.39725909627E+02  0.50810524267E+02 -0.43096156898E+02  0.77570200537E+02  0.00000000000E+00 0.  1.
</event>
<event>
 7    1  0.8497983E-006  0.9764724E+02  0.7818608E-02  0.1341116E+00
          2   -1    0    0  502    0  0.00000000000E+00  0.00000000000E+00  0.12530294760E+04  0.12530294760E+04  0.00000000000E+00 0. -1.
          1   -1    0    0  501    0 -0.00000000000E+00 -0.00000000000E+00 -0.13825037738E+04  0.13825037738E+04  0.00000000000E+00 0. -1.
         25    2    1    2    0    0  0.60328786944E+02  0.10013582566E+03 -0.19203592584E+03  0.25725205539E+03  0.12503630302E+03 0.  0.
          2    1    1    2  501    0 -0.14026416321E+01 -0.97360940787E+02 -0.11550973330E+04  0.11591941032E+04  0.00000000000E+00 0. -1.
          1    1    1    2  502    0 -0.58926145312E+02 -0.27748848687E+01  0.12176589611E+04  0.12190870912E+04  0.00000000000E+00 0. -1.
         22    1    3    3    0    0  0.61076782751E+02  0.10392757021E+03 -0.20822869627E+03  0.24060445380E+03  0.00000000000E+00 0. -1.
         22    1    3    3    0    0 -0.74799580666E+00 -0.37917445532E+01  0.16192770425E+02  0.16647601584E+02  0.00000000000E+00 0. -1.
</event>
<event>
 7    1  0.6507405E-006  0.2326092E+03  0.7818608E-02  0.1217174E+00
          2   -1    0    0  502    0  0.00000000000E+00  0.00000000000E+00  0.58098035723E+03  0.58098035723E+03  0.00000000000E+00 0. -1.
          1   -1    0    0  501    0 -0.00000000000E+00 -0.00000000000E+00 -0.94132410496E+03  0.94132410496E+03  0.00000000000E+00 0. -1.
         25    2    1    2    0    0 -0.14298890817E+03 -0.91709354985E+02 -0.46517401325E+02  0.21597411354E+03  0.12499806175E+03 0.  0.
          2    1    1    2  501    0 -0.49730877172E+02 -0.63811890658E+02 -0.77695120180E+03  0.78115189785E+03  0.00000000000E+00 0. -1.
          1    1    1    2  502    0  0.19271978534E+03  0.15552124564E+03  0.46312485539E+03  0.52517845080E+03  0.00000000000E+00 0. -1.
         22    1    3    3    0    0 -0.12260394902E+03 -0.48597667048E+02 -0.83090235809E+02  0.15587638963E+03  0.00000000000E+00 0.  1.
         22    1    3    3    0    0 -0.20384959148E+02 -0.43111687937E+02  0.36572834484E+02  0.60097723904E+02  0.00000000000E+00 0.  1.
</event>
<event>
 7    1  0.6507405E-006  0.7625067E+02  0.7818608E-02  0.1427284E+00
          2   -1    0    0  502    0  0.00000000000E+00  0.00000000000E+00  0.36978149278E+03  0.36978149278E+03  0.00000000000E+00 0. -1.
          1   -1    0    0  501    0 -0.00000000000E+00 -0.00000000000E+00 -0.15956107930E+04  0.15956107930E+04  0.00000000000E+00 0. -1.
         25    2    1    2    0    0  0.10125663993E+03  0.50150837295E+02 -0.81724645611E+02  0.18727825112E+03  0.12500484804E+03 0.  0.
          2    1    1    2  501    0 -0.66569328366E+02 -0.35769983731E+02 -0.14590160088E+04  0.14609718276E+04  0.00000000000E+00 0. -1.
          1    1    1    2  502    0 -0.34687311559E+02 -0.14380853565E+02  0.31491135414E+03  0.31714220706E+03  0.00000000000E+00 0. -1.
         22    1    3    3    0    0  0.89847656978E+02  0.77695769346E+02 -0.97385879567E+02  0.15360092310E+03  0.00000000000E+00 0.  1.
         22    1    3    3    0    0  0.11408982947E+02 -0.27544932050E+02  0.15661233956E+02  0.33677328020E+02  0.00000000000E+00 0.  1.
</event>
<event>
 7    1  0.6507405E-006  0.5724087E+02  0.7818608E-02  0.1497071E+00
          2   -1    0    0  502    0  0.00000000000E+00  0.00000000000E+00  0.20277610991E+04  0.20277610991E+04  0.00000000000E+00 0. -1.
          1   -1    0    0  501    0 -0.00000000000E+00 -0.00000000000E+00 -0.32129086724E+03  0.32129086724E+03  0.00000000000E+00 0. -1.
         25    2    1    2    0    0  0.16251624111E+02  0.72980096972E+02  0.60460229111E+03  0.62189972244E+03  0.12500049806E+03 0.  0.
          2    1    1    2  501    0 -0.24768908357E+02 -0.17221229296E+02 -0.31135051106E+03  0.31280858412E+03  0.00000000000E+00 0. -1.
          1    1    1    2  502    0  0.85172842459E+01 -0.55758867676E+02  0.14132184518E+04  0.14143436597E+04  0.00000000000E+00 0. -1.
         22    1    3    3    0    0 -0.39320950165E+02  0.66977913766E+02  0.46638875525E+03  0.47281143078E+03  0.00000000000E+00 0. -1.
         22    1    3    3    0    0  0.55572574276E+02  0.60021832060E+01  0.13821353586E+03  0.14908829166E+03  0.00000000000E+00 0. -1.
</event>
<event>
 7    1  0.6507405E-006  0.7667950E+02  0.7818608E-02  0.1408501E+00
          2   -1    0    0  502    0  0.00000000000E+00  0.00000000000E+00  0.62757664608E+03  0.62757664608E+03  0.00000000000E+00 0. -1.
          1   -1    0    0  501    0 -0.00000000000E+00 -0.00000000000E+00 -0.91083480712E+02  0.91083480712E+02  0.00000000000E+00 0. -1.
         25    2    1    2    0    0 -0.45744848892E+02  0.10134470338E+02  0.13652552703E+03  0.19094259226E+03  0.12499822127E+03 0.  0.
          2    1    1    2  501    0 -0.19058285072E+02  0.38726911449E+02 -0.52536242765E+02  0.67993004818E+02  0.00000000000E+00 0. -1.
          1    1    1    2  502    0  0.64803133964E+02 -0.48861381788E+02  0.45250388110E+03  0.45972452971E+03  0.00000000000E+00 0. -1.
         22    1    3    3    0    0  0.35862225829E+02  0.32874024203E+02  0.45856171112E+02  0.66854985886E+02  0.00000000000E+00 0. -1.
         22    1    3    3    0    0 -0.81607074721E+02 -0.22739553865E+02  0.90669355916E+02  0.12408760638E+03  0.00000000000E+00 0. -1.
</event>
<event>
 7    1  0.6507405E-006  0.7703133E+02  0.7818608E-02  0.1436640E+00
          2   -1    0    0  502    0  0.00000000000E+00  0.00000000000E+00  0.16498458216E+04  0.16498458216E+04  0.00000000000E+00 0. -1.
          1   -1    0    0  501    0 -0.00000000000E+00 -0.00000000000E+00 -0.30595936941E+03  0.30595936941E+03  0.00000000000E+00 0. -1.
         25    2    1    2    0    0 -0.10037940246E+03 -0.28808621226E+02  0.30088479351E+02  0.16563821153E+03  0.12499895773E+03 0.  0.
          2    1    1    2  501    0  0.33511743405E+02 -0.87351424396E+01 -0.23597255840E+03  0.23850028927E+03  0.00000000000E+00 0. -1.
          1    1    1    2  502    0  0.66867659059E+02  0.37543763665E+02  0.15497705312E+04  0.15516666902E+04  0.00000000000E+00 0. -1.
         22    1    3    3    0    0 -0.82763234954E+02  0.16827491292E+02  0.64126599538E+02  0.10604309639E+03  0.00000000000E+00 0.  1.
         22    1    3    3    0    0 -0.17616167510E+02 -0.45636112518E+02 -0.34038120187E+02  0.59595115147E+02  0.00000000000E+00 0.  1.
</event>
<event>
 7    1  0.6507405E-006  0.5810189E+02  0.7818608E-02  0.1423349E+00
          2   -1    0    0  502    0  0.00000000000E+00  0.00000000000E+00  0.81915076988E+03  0.81915076988E+03  0.00000000000E+00 0. -1.
          1   -1    0    0  501    0 -0.00000000000E+00 -0.00000000000E+00 -0.55864030211E+03  0.55864030211E+03  0.00000000000E+00 0. -1.
         25    2    1    2    0    0 -0.84285998335E+02  0.24390963999E+02  0.98320211242E+01  0.15303509328E+03  0.12499608992E+03 0.  0.
          2    1    1    2  501    0  0.55154109005E+02  0.17203531406E+02 -0.48444635552E+03  0.48787929717E+03  0.00000000000E+00 0. -1.
          1    1    1    2  502    0  0.29131889330E+02 -0.41594495405E+02  0.73512480217E+03  0.73687668153E+03  0.00000000000E+00 0. -1.
         22    1    3    3    0    0  0.29211263900E+02 -0.11081025138E+02  0.13576760575E+02  0.34064871707E+02  0.00000000000E+00 0. -1.
         22    1    3    3    0    0 -0.11349726223E+03  0.35471989137E+02 -0.37447394509E+01  0.11897022158E+03  0.00000000000E+00 0. -1.
</event>
<event>
 7    1  0.6507405E-006  0.7806283E+02  0.7818608E-02  0.1440638E+00
          2   -1    0    0  502    0  0.00000000000E+00  0.00000000000E+00  0.14610863346E+04  0.14610863346E+04  0.00000000000E+00 0. -1.
          1   -1    0    0  501    0 -0.00000000000E+00 -0.00000000000E+00 -0.18698720898E+03  0.18698720898E+03  0.00000000000E+00 0. -1.
         25    2    1    2    0    0 -0.70080278037E+02 -0.85116490943E+02  0.39114663623E+03  0.42517827283E+03  0.12499924098E+03 0.  0.
          2    1    1    2  501    0  0.51912733711E+02  0.57368652751E+02 -0.16088978084E+03  0.17852623286E+03  0.00000000000E+00 0. -1.
          1    1    1    2  502    0  0.18167544326E+02  0.27747838192E+02  0.10438422702E+04  0.10443690379E+04  0.00000000000E+00 0. -1.
         22    1    3    3    0    0 -0.36009332271E+02  0.24843419847E+01  0.26717872578E+03  0.26960585208E+03  0.00000000000E+00 0.  1.
         22    1    3    3    0    0 -0.34070945766E+02 -0.87600832928E+02  0.12396791046E+03  0.15557242075E+03  0.00000000000E+00 0.  1.
</event>
<event>
 7    1  0.6507405E-006  0.1793576E+03  0.7818608E-02  0.1213264E+00
          2   -1    0    0  502    0  0.00000000000E+00  0.00000000000E+00  0.37494994967E+04  0.37494994967E+04  0.00000000000E+00 0. -1.
          1   -1    0    0  501    0 -0.00000000000E+00 -0.00000000000E+00 -0.22796006888E+04  0.22796006888E+04  0.00000000000E+00 0. -1.
         25    2    1    2    0    0  0.23635112445E+03  0.84732959617E+02 -0.75020754876E+03  0.80092323373E+03  0.12500052654E+03 0.  0.
          2    1    1    2  501    0 -0.16825285448E+03  0.82925296603E+00 -0.14985233861E+04  0.15079396703E+04  0.00000000000E+00 0. -1.
          1    1    1    2  502    0 -0.68098269975E+02 -0.85562212583E+02  0.37186297428E+04  0.37202372815E+04  0.00000000000E+00 0. -1.
         22    1    3    3    0    0  0.71526054855E+01  0.34665956377E+02 -0.19496674540E+03  0.19815377894E+03  0.00000000000E+00 0.  1.
         22    1    3    3    0    0  0.22919851897E+03  0.50067003240E+02 -0.55524080337E+03  0.60276945480E+03  0.00000000000E+00 0.  1.
</event>
<event>
 7    1  0.6507405E-006  0.1251708E+03  0.7818608E-02  0.1252043E+00
          2   -1    0    0  502    0  0.00000000000E+00  0.00000000000E+00  0.26577954640E+04  0.26577954640E+04  0.00000000000E+00 0. -1.
          1   -1    0    0  501    0 -0.00000000000E+00 -0.00000000000E+00 -0.99488315669E+03  0.99488315669E+03  0.00000000000E+00 0. -1.
         25    2    1    2    0    0 -0.91138905021E+02 -0.72432212984E+01 -0.10934002710E+03  0.18957579720E+03  0.12499990838E+03 0.  0.
          2    1    1    2  501    0  0.74695664816E+02  0.11112036869E+03 -0.83905886112E+03  0.84967461484E+03  0.00000000000E+00 0. -1.
          1    1    1    2  502    0  0.16443240205E+02 -0.10387714739E+03  0.26113111955E+04  0.26134282086E+04  0.00000000000E+00 0. -1.
         22    1    3    3    0    0 -0.10390877867E+03 -0.18700294388E+02 -0.12686584736E+03  0.16505053323E+03  0.00000000000E+00 0.  1.
         22    1    3    3    0    0  0.12769873645E+02  0.11457073090E+02  0.17525820263E+02  0.24525263966E+02  0.00000000000E+00 0.  1.
</event>
<event>
 7    1  0.6507405E-006  0.6792526E+02  0.7818608E-02  0.1473957E+00
          2   -1    0    0  502    0  0.00000000000E+00  0.00000000000E+00  0.36924700164E+03  0.36924700164E+03  0.00000000000E+00 0. -1.
          1   -1    0    0  501    0 -0.00000000000E+00 -0.00000000000E+00 -0.25240131611E+03  0.25240131611E+03  0.00000000000E+00 0. -1.
         25    2    1    2    0    0  0.35557506014E+02  0.56817669340E+02 -0.84279717631E+02  0.16498792331E+03  0.12500144099E+03 0.  0.
          2    1    1    2  501    0  0.21954859907E+02 -0.20288832539E+02 -0.12242103404E+03  0.12601810257E+03  0.00000000000E+00 0. -1.
          1    1    1    2  502    0 -0.57512365921E+02 -0.36528836800E+02  0.32354643720E+03  0.33064229188E+03  0.00000000000E+00 0. -1.
         22    1    3    3    0    0  0.54701933769E+02  0.29293540478E+02  0.11855453613E+02  0.63174083707E+02  0.00000000000E+00 0. -1.
         22    1    3    3    0    0 -0.19144427755E+02  0.27524128861E+02 -0.96135171244E+02  0.10181383960E+03  0.00000000000E+00 0. -1.
</event>
<event>
 7    1  0.6507405E-006  0.6482699E+02  0.7818608E-02  0.1501667E+00
          2   -1    0    0  502    0  0.00000000000E+00  0.00000000000E+00  0.27587156506E+03  0.27587156506E+03  0.00000000000E+00 0. -1.
          1   -1    0    0  501    0 -0.00000000000E+00 -0.00000000000E+00 -0.42162740181E+03  0.42162740181E+03  0.00000000000E+00 0. -1.
         25    2    1    2    0    0 -0.44871681263E+02  0.17974308156E+01  0.23727403240E+02  0.13492715977E+03  0.12500260094E+03 0.  0.
          2    1    1    2  501    0 -0.20749766399E+02 -0.15346779735E+02 -0.35984102432E+03  0.36076535204E+03  0.00000000000E+00 0. -1.
          1    1    1    2  502    0  0.65621447662E+02  0.13549348919E+02  0.19035778433E+03  0.20180645506E+03  0.00000000000E+00 0. -1.
         22    1    3    3    0    0  0.28241143672E+02 -0.39539886232E+02  0.47592444676E+01  0.48822281870E+02  0.00000000000E+00 0. -1.
         22    1    3    3    0    0 -0.73112824935E+02  0.41337317047E+02  0.18968158772E+02  0.86104877898E+02  0.00000000000E+00 0. -1.
</event>
<event>
 7    1  0.6507405E-006  0.9329449E+02  0.7818608E-02  0.1413726E+00
          2   -1    0    0  502    0  0.00000000000E+00  0.00000000000E+00  0.30628938353E+03  0.30628938353E+03  0.00000000000E+00 0. -1.
          1   -1    0    0  501    0 -0.00000000000E+00 -0.00000000000E+00 -0.22400677714E+04  0.22400677714E+04  0.00000000000E+00 0. -1.
         25    2    1    2    0    0  0.26839011374E+02  0.10069372789E+03 -0.13080211435E+04  0.13181058674E+04  0.12499682580E+03 0.  0.
          2    1    1    2  501    0 -0.33191347022E+02 -0.76453733781E+01 -0.91946275898E+03  0.92009340960E+03  0.00000000000E+00 0. -1.
          1    1    1    2  502    0  0.63523356485E+01 -0.93048354512E+02  0.29370551458E+03  0.30815787795E+03  0.00000000000E+00 0. -1.
         22    1    3    3    0    0 -0.25173745320E+02 -0.14625869486E+02 -0.43417222221E+03  0.43514727627E+03  0.00000000000E+00 0.  1.
         22    1    3    3    0    0  0.52012756694E+02  0.11531959738E+03 -0.87384892125E+03  0.88295859108E+03  0.00000000000E+00 0.  1.
</event>
<event>
 7    1  0.7216686E-006  0.1349554E+03  0.7818608E-02  0.1304667E+00
          2   -1    0    0  502    0  0.00000000000E+00  0.00000000000E+00  0.13525283439E+04  0.13525283439E+04  0.00000000000E+00 0. -1.
          1   -1    0    0  501    0 -0.00000000000E+00 -0.00000000000E+00 -0.23469033924E+04  0.23469033924E+04  0.00000000000E+00 0. -1.
         25    2    1    2    0    0  0.14113114828E+03  0.25488185646E+02 -0.92900997867E+03  0.94828906325E+03  0.12499983356E+03 0.  0.
          2    1    1    2  501    0 -0.10171498261E+02 -0.58146643655E+02 -0.14042408434E+04  0.14054809987E+04  0.00000000000E+00 0. -1.
          1    1    1    2  502    0 -0.13095965002E+03  0.32658458009E+02  0.13388757736E+04  0.13456616744E+04  0.00000000000E+00 0. -1.
         22    1    3    3    0    0  0.57072925977E+02  0.72384214792E+02 -0.51988858565E+03  0.52799709746E+03  0.00000000000E+00 0. -1.
         22    1    3    3    0    0  0.84058222304E+02 -0.46896029146E+02 -0.40912139301E+03  0.42029196579E+03  0.00000000000E+00 0. -1.
</event>
<event>
 7    1  0.6507405E-006  0.9520937E+02  0.7818608E-02  0.1392401E+00
          2   -1    0    0  502    0  0.00000000000E+00  0.00000000000E+00  0.28933609962E+04  0.28933609962E+04  0.00000000000E+00 0. -1.
          1   -1    0    0  501    0 -0.00000000000E+00 -0.00000000000E+00 -0.10567848152E+03  0.10567848152E+03  0.00000000000E+00 0. -1.
         25    2    1    2    0    0  0.95225844574E+01  0.56876409471E+02  0.46852909530E+03  0.48833576090E+03  0.12500678647E+03 0.  0.
          2    1    1    2  501    0 -0.17017120727E+02 -0.95643719352E+02 -0.70936061089E+02  0.12028810503E+03  0.00000000000E+00 0. -1.
          1    1    1    2  502    0  0.74945362697E+01  0.38767309881E+02  0.23900894805E+04  0.23904156118E+04  0.00000000000E+00 0. -1.
         22    1    3    3    0    0  0.60500636002E+02  0.48672644859E+02  0.35823509246E+03  0.36655386341E+03  0.00000000000E+00 0. -1.
         22    1    3    3    0    0 -0.50978051545E+02  0.82037646119E+01  0.11029400284E+03  0.12178189749E+03  0.00000000000E+00 0. -1.
</event>
<event>
 7    1  0.6507405E-006  0.4316662E+02  0.7818608E-02  0.1565752E+00
          2   -1    0    0  502    0  0.00000000000E+00  0.00000000000E+00  0.71045826056E+03  0.71045826056E+03  0.00000000000E+00 0. -1.
          1   -1    0    0  501    0 -0.00000000000E+00 -0.00000000000E+00 -0.14859675447E+03  0.14859675447E+03  0.00000000000E+00 0. -1.
         25    2    1    2    0    0 -0.31227625311E+01 -0.21512256582E+02  0.71591145249E+02  0.14568598403E+03  0.12500633998E+03 0.  0.
          2    1    1    2  501    0  0.22638487247E+02  0.37839175936E+02 -0.10691031385E+03  0.11564652848E+03  0.00000000000E+00 0. -1.
          1    1    1    2  502    0 -0.19515724716E+02 -0.16326919355E+02  0.59718067469E+03  0.59772250253E+03  0.00000000000E+00 0. -1.
         22    1    3    3    0    0 -0.38342289920E+01  0.32265154394E+02  0.84366707520E+02  0.90407316285E+02  0.00000000000E+00 0.  1.
         22    1    3    3    0    0  0.71146646090E+00 -0.53777410976E+02 -0.12775562271E+02  0.55278667740E+02  0.00000000000E+00 0.  1.
</event>
<event>
 7    1  0.6507405E-006  0.1053055E+03  0.7818608E-02  0.1456817E+00
          2   -1    0    0  502    0  0.00000000000E+00  0.00000000000E+00  0.33063294063E+04  0.33063294063E+04  0.00000000000E+00 0. -1.
          1   -1    0    0  501    0 -0.00000000000E+00 -0.00000000000E+00 -0.28771120160E+03  0.28771120160E+03  0.00000000000E+00 0. -1.
         25    2    1    2    0    0 -0.89831124050E+02  0.78750668057E+01  0.21661052005E+03  0.26585183360E+03  0.12500173000E+03 0.  0.
          2    1    1    2  501    0 -0.15834938949E+02 -0.15010224062E+02 -0.26172163107E+03  0.26262951907E+03  0.00000000000E+00 0. -1.
          1    1    1    2  502    0  0.10566606300E+03  0.71351572568E+01  0.30637293158E+04  0.30655592553E+04  0.00000000000E+00 0. -1.
         22    1    3    3    0    0 -0.21558815170E+02 -0.19535058358E+02 -0.74421983430E+01  0.30029774105E+02  0.00000000000E+00 0. -1.
         22    1    3    3    0    0 -0.68272308880E+02  0.27410125164E+02  0.22405271840E+03  0.23582205949E+03  0.00000000000E+00 0. -1.
</event>
<event>
 7    1  0.6507405E-006  0.1069636E+03  0.7818608E-02  0.1330649E+00
          2   -1    0    0  502    0  0.00000000000E+00  0.00000000000E+00  0.57648722441E+03  0.57648722441E+03  0.00000000000E+00 0. -1.
          1   -1    0    0  501    0 -0.00000000000E+00 -0.00000000000E+00 -0.59108007968E+03  0.59108007968E+03  0.00000000000E+00 0. -1.
         25    2    1    2    0    0 -0.59836017231E+02 -0.26085888892E+02  0.91465088612E+02  0.16807332648E+03  0.12498783174E+03 0.  0.
          2    1    1    2  501    0 -0.24020005292E+02 -0.53887045635E+02 -0.54363848892E+03  0.54683048651E+03  0.00000000000E+00 0. -1.
          1    1    1    2  502    0  0.83856022524E+02  0.79972934527E+02  0.43758054504E+03  0.45266349109E+03  0.00000000000E+00 0. -1.
         22    1    3    3    0    0  0.28759708323E+02 -0.17296798000E+02 -0.80837675526E+01  0.34520245389E+02  0.00000000000E+00 0.  1.
         22    1    3    3    0    0 -0.88595725554E+02 -0.87890908920E+01  0.99548856165E+02  0.13355308109E+03  0.00000000000E+00 0.  1.
</event>
<event>
 7    1  0.6507405E-006  0.5669077E+02  0.7818608E-02  0.1445728E+00
          2   -1    0    0  502    0  0.00000000000E+00  0.00000000000E+00  0.51659144947E+03  0.51659144947E+03  0.00000000000E+00 0. -1.
          1   -1    0    0  501    0 -0.00000000000E+00 -0.00000000000E+00 -0.76865657207E+03  0.76865657207E+03  0.00000000000E+00 0. -1.
         25    2    1    2    0    0  0.97928955677E+02  0.13046751067E+02 -0.64500421104E+01  0.15945574826E+03  0.12499693810E+03 0.  0.
          2    1    1    2  501    0 -0.56071387661E+02  0.42735414696E+00 -0.68345420561E+03  0.68575056275E+03  0.00000000000E+00 0. -1.
          1    1    1    2  502    0 -0.41857568016E+02 -0.13474105214E+02  0.43783912512E+03  0.44004171052E+03  0.00000000000E+00 0. -1.
         22    1    3    3    0    0  0.78061431538E+02  0.56453398805E+02  0.28303831360E+02  0.10040757043E+03  0.00000000000E+00 0. -1.
         22    1    3    3    0    0  0.19867524139E+02 -0.43406647738E+02 -0.34753873470E+02  0.59048177825E+02  0.00000000000E+00 0. -1.
</event>
<event>
 7    1  0.6507405E-006  0.7150600E+02  0.7818608E-02  0.1496088E+00
          2   -1    0    0  502    0  0.00000000000E+00  0.00000000000E+00  0.24502000675E+03  0.24502000675E+03  0.00000000000E+00 0. -1.
          1   -1    0    0  501    0 -0.00000000000E+00 -0.00000000000E+00 -0.30648294017E+04  0.30648294017E+04  0.00000000000E+00 0. -1.
         25    2    1    2    0    0 -0.81960425747E+02 -0.17926594834E+02 -0.12173606617E+04  0.12266342461E+04  0.12500287501E+03 0.  0.
          2    1    1    2  501    0  0.70000771356E+02 -0.32421258174E+01 -0.18415490397E+04  0.18428818424E+04  0.00000000000E+00 0. -1.
          1    1    1    2  502    0  0.11959654392E+02  0.21168720651E+02  0.23910030655E+03  0.24033331991E+03  0.00000000000E+00 0. -1.
         22    1    3    3    0    0 -0.49655505701E+01  0.14744084597E+02 -0.15827758069E+02  0.22193752467E+02  0.00000000000E+00 0.  1.
         22    1    3    3    0    0 -0.76994875177E+02 -0.32670679431E+02 -0.12015329037E+04  0.12044404936E+04  0.00000000000E+00 0.  1.
</event>
<event>
 7    1  0.6507405E-006  0.7475604E+02  0.7818608E-02  0.1408272E+00
          2   -1    0    0  502    0  0.00000000000E+00  0.00000000000E+00  0.16394246912E+04  0.16394246912E+04  0.00000000000E+00 0. -1.
          1   -1    0    0  501    0 -0.00000000000E+00 -0.00000000000E+00 -0.48883812367E+03  0.48883812367E+03  0.00000000000E+00 0. -1.
         25    2    1    2    0    0 -0.30637256500E+02 -0.91765096244E+01  0.17563718692E+03  0.21793696008E+03  0.12500098929E+03 0.  0.
          2    1    1    2  501    0  0.67140760142E+02  0.34367833799E+02 -0.46430336870E+03  0.47038988920E+03  0.00000000000E+00 0. -1.
          1    1    1    2  502    0 -0.36503503642E+02 -0.25191324175E+02  0.14392527493E+04  0.14399359655E+04  0.00000000000E+00 0. -1.
         22    1    3    3    0    0  0.34616305200E+00  0.58189228469E+01 -0.19208844016E+02  0.20073848171E+02  0.00000000000E+00 0.  1.
         22    1    3    3    0    0 -0.30983419552E+02 -0.14995432471E+02  0.19484603094E+03  0.19786311191E+03  0.00000000000E+00 0.  1.
</event>
<event>
 7    1  0.6507405E-006  0.9274878E+02  0.7818608E-02  0.1302412E+00
          2   -1    0    0  502    0  0.00000000000E+00  0.00000000000E+00  0.16586480106E+04  0.16586480106E+04  0.00000000000E+00 0. -1.
          1   -1    0    0  501    0 -0.00000000000E+00 -0.00000000000E+00 -0.73313995862E+02  0.73313995862E+02  0.00000000000E+00 0. -1.
         25    2    1    2    0    0 -0.12102910767E+03  0.51632399365E+02  0.33422086997E+03  0.38031550077E+03  0.12498936208E+03 0.  0.
          2    1    1    2  501    0  0.81749570473E+02  0.31714113770E+02 -0.90208767979E+01  0.88148474195E+02  0.00000000000E+00 0. -1.
          1    1    1    2  502    0  0.39279537201E+02 -0.83346513136E+02  0.12601340216E+04  0.12634980315E+04  0.00000000000E+00 0. -1.
         22    1    3    3    0    0 -0.90206171483E+02  0.14707320186E+02  0.31588249932E+03  0.32883918868E+03  0.00000000000E+00 0. -1.
         22    1    3    3    0    0 -0.30822936191E+02  0.36925079179E+02  0.18338370660E+02  0.51476312089E+02  0.00000000000E+00 0. -1.
</event>
<event>
 7    1  0.6507405E-006  0.4661928E+02  0.7818608E-02  0.1476908E+00
          2   -1    0    0  502    0  0.00000000000E+00  0.00000000000E+00  0.16080323908E+04  0.16080323908E+04  0.00000000000E+00 0. -1.
          1   -1    0    0  501    0 -0.00000000000E+00 -0.00000000000E+00 -0.67748210565E+02  0.67748210565E+02  0.00000000000E+00 0. -1.
         25    2    1    2    0    0  0.48990023135E+01  0.16813168154E+02  0.27929938410E+03  0.30649728605E+03  0.12500303017E+03 0.  0.
          2    1    1    2  501    0  0.34314090342E+02 -0.33591477575E+02 -0.43085833686E+02  0.64515372014E+02  0.00000000000E+00 0. -1.
          1    1    1    2  502    0 -0.39213092656E+02  0.16778309421E+02  0.13040706298E+04  0.13047679433E+04  0.00000000000E+00 0. -1.
         22    1    3    3    0    0  0.19483338569E+02  0.60725392059E+02  0.23087126002E+03  0.23951766621E+03  0.00000000000E+00 0. -1.
         22    1    3    3    0    0 -0.14584336256E+02 -0.43912223906E+02  0.48428124079E+02  0.66979619842E+02  0.00000000000E+00 0. -1.
</event>
<event>
 7    1  0.6507405E-006  0.1748278E+03  0.7818608E-02  0.1385555E+00
          2   -1    0    0  502    0  0.00000000000E+00  0.00000000000E+00  0.40841123299E+03  0.40841123299E+03  0.00000000000E+00 0. -1.
          1   -1    0    0  501    0 -0.00000000000E+00 -0.00000000000E+00 -0.31485965965E+03  0.31485965965E+03  0.00000000000E+00 0. -1.
         25    2    1    2    0    0 -0.36015811200E+02  0.15037326270E+03 -0.16910095472E+03  0.26101584572E+03  0.12499952816E+03 0.  0.
          2    1    1    2  501    0 -0.99841328327E+01  0.20409749774E+02 -0.76473385767E+02  0.79777312094E+02  0.00000000000E+00 0. -1.
          1    1    1    2  502    0  0.45999944033E+02 -0.17078301248E+03  0.33912591383E+03  0.38247773482E+03  0.00000000000E+00 0. -1.
         22    1    3    3    0    0  0.26260604224E+02  0.70986714912E+02 -0.13452753351E+03  0.15435799396E+03  0.00000000000E+00 0. -1.
         22    1    3    3    0    0 -0.62276415424E+02  0.79386547789E+02 -0.34573421210E+02  0.10665785176E+03  0.00000000000E+00 0. -1.
</event>
<event>
 7    1  0.6507405E-006  0.8322964E+02  0.7818608E-02  0.1365507E+00
          2   -1    0    0  502    0  0.00000000000E+00  0.00000000000E+00  0.50225669396E+03  0.50225669396E+03  0.00000000000E+00 0. -1.
          1   -1    0    0  501    0 -0.00000000000E+00 -0.00000000000E+00 -0.18128803012E+04  0.18128803012E+04  0.00000000000E+00 0. -1.
         25    2    1    2    0    0  0.11869275070E+02  0.12777408900E+03 -0.38065482172E+03  0.42070241017E+03  0.12500130845E+03 0.  0.
          2    1    1    2  501    0 -0.30849560415E+02 -0.74806504631E+02 -0.14093960152E+04  0.14117169816E+04  0.00000000000E+00 0. -1.
          1    1    1    2  502    0  0.18980285345E+02 -0.52967584372E+02  0.47942722959E+03  0.48271760347E+03  0.00000000000E+00 0. -1.
         22    1    3    3    0    0  0.40189879263E+02  0.81393345569E+02 -0.10092286967E+03  0.13574066716E+03  0.00000000000E+00 0. -1.
         22    1    3    3    0    0 -0.28320604193E+02  0.46380743433E+02 -0.27973195205E+03  0.28496174301E+03  0.00000000000E+00 0. -1.
</event>
<event>
 7    1  0.6507405E-006  0.9411760E+02  0.7818608E-02  0.1466198E+00
          2   -1    0    0  502    0  0.00000000000E+00  0.00000000000E+00  0.91684060617E+03  0.91684060617E+03  0.00000000000E+00 0. -1.
          1   -1    0    0  501    0 -0.00000000000E+00 -0.00000000000E+00 -0.15029114014E+03  0.15029114014E+03  0.00000000000E+00 0. -1.
         25    2    1    2    0    0 -0.10106597561E+03 -0.52287592681E+02  0.15751767964E+03  0.23105349171E+03  0.12500229141E+03 0.  0.
          2    1    1    2  501    0  0.84800813218E+02  0.36299351940E+02 -0.94569845671E+02  0.13210706485E+03  0.00000000000E+00 0. -1.
          1    1    1    2  502    0  0.16265162397E+02  0.15988240741E+02  0.70360163207E+03  0.70397118975E+03  0.00000000000E+00 0. -1.
         22    1    3    3    0    0 -0.87241932057E+02  0.72102683326E+01  0.35236804125E+02  0.94365115606E+02  0.00000000000E+00 0.  1.
         22    1    3    3    0    0 -0.13824043558E+02 -0.59497861014E+02  0.12228087551E+03  0.13668837610E+03  0.00000000000E+00 0.  1.
</event>
<event>
 7    1  0.6507405E-006  0.3199279E+02  0.7818608E-02  0.1599561E+00
          2   -1    0    0  502    0  0.00000000000E+00  0.00000000000E+00  0.24009745395E+03  0.24009745395E+03  0.00000000000E+00 0. -1.
          1   -1    0    0  501    0 -0.00000000000E+00 -0.00000000000E+00 -0.15012339546E+04  0.15012339546E+04  0.00000000000E+00 0. -1.
         25    2    1    2    0    0  0.37690268609E+02 -0.40262142597E+02 -0.19043833331E+03  0.23437670068E+03  0.12499633017E+03 0.  0.
          2    1    1    2  501    0 -0.89760074959E+01  0.26398674094E+02 -0.12875094267E+04  0.12878113148E+04  0.00000000000E+00 0. -1.
          1    1    1    2  502    0 -0.28714261113E+02  0.13863468503E+02  0.21681125934E+03  0.21914339308E+03  0.00000000000E+00 0. -1.
         22    1    3    3    0    0  0.57365925988E+02  0.11223599348E+02 -0.32031080638E+02  0.66654398007E+02  0.00000000000E+00 0.  1.
         22    1    3    3    0    0 -0.19675657379E+02 -0.51485741945E+02 -0.15840725267E+03  0.16772230268E+03  0.00000000000E+00 0.  1.
</event>
<event>
 7    1  0.6507405E-006  0.5107073E+02  0.7818608E-02  0.1506827E+00
          2   -1    0    0  502    0  0.00000000000E+00  0.00000000000E+00  0.48368932993E+03  0.48368932993E+03  0.00000000000E+00 0. -1.
          1   -1    0    0  501    0 -0.00000000000E+00 -0.00000000000E+00 -0.18419421742E+03  0.18419421742E+03  0.00000000000E+00 0. -1.
         25    2    1    2    0    0 -0.20702552508E+02 -0.63535365437E+02 -0.43573294109E+02  0.14828522724E+03  0.12499815325E+03 0.  0.
          2    1    1    2  501    0 -0.74868650813E+01  0.49199061175E+02 -0.80613780251E+02  0.94737438933E+02  0.00000000000E+00 0. -1.
          1    1    1    2  502    0  0.28189417589E+02  0.14336304261E+02  0.42368218687E+03  0.42486088118E+03  0.00000000000E+00 0. -1.
         22    1    3    3    0    0 -0.38108410109E+02 -0.36055667850E+02  0.35121203297E+02  0.63132883873E+02  0.00000000000E+00 0.  1.
         22    1    3    3    0    0  0.17405857601E+02 -0.27479697587E+02 -0.78694497406E+02  0.85152343363E+02  0.00000000000E+00 0.  1.
</event>
<event>
 7    1  0.6507405E-006  0.2637388E+03  0.7818608E-02  0.1292725E+00
          2   -1    0    0  502    0  0.00000000000E+00  0.00000000000E+00  0.14176467794E+04  0.14176467794E+04  0.00000000000E+00 0. -1.
          1   -1    0    0  501    0 -0.00000000000E+00 -0.00000000000E+00 -0.38476148433E+03  0.38476148433E+03  0.00000000000E+00 0. -1.
         25    2    1    2    0    0 -0.78846698615E+02  0.24642535538E+03  0.40583505151E+01  0.28737351707E+03  0.12499924177E+03 0.  0.
          2    1    1    2  501    0  0.49129486128E+02 -0.26237784550E+03 -0.16951788446E+03  0.31621535916E+03  0.00000000000E+00 0. -1.
          1    1    1    2  502    0  0.29717212487E+02  0.15952490112E+02  0.11983448290E+04  0.11988193875E+04  0.00000000000E+00 0. -1.
         22    1    3    3    0    0 -0.67261178570E+02  0.42640541890E+02 -0.19253378810E+02  0.81932744070E+02  0.00000000000E+00 0.  1.
         22    1    3    3    0    0 -0.11585520045E+02  0.20378481349E+03  0.23311729325E+02  0.20544077300E+03  0.00000000000E+00 0.  1.
</event>
<event>
 7    1  0.6507405E-006  0.8182533E+02  0.7818608E-02  0.1437891E+00
          2   -1    0    0  502    0  0.00000000000E+00  0.00000000000E+00  0.78351660333E+03  0.78351660333E+03  0.00000000000E+00 0. -1.
          1   -1    0    0  501    0 -0.00000000000E+00 -0.00000000000E+00 -0.37311640543E+03  0.37311640543E+03  0.00000000000E+00 0. -1.
         25    2    1    2    0    0 -0.11600601920E+02 -0.64474530218E+02  0.32010870944E+03  0.34983712930E+03  0.12499956868E+03 0.  0.
          2    1    1    2  501    0  0.43478813733E+02  0.69665487339E+02 -0.35295090703E+03  0.36237829701E+03  0.00000000000E+00 0. -1.
          1    1    1    2  502    0 -0.31878211813E+02 -0.51909571217E+01  0.44324239549E+03  0.44441758245E+03  0.00000000000E+00 0. -1.
         22    1    3    3    0    0 -0.61853600354E+02 -0.24859194424E+02  0.96744872379E+02  0.11748794728E+03  0.00000000000E+00 0.  1.
         22    1    3    3    0    0  0.50252998433E+02 -0.39615335794E+02  0.22336383706E+03  0.23234918202E+03  0.00000000000E+00 0.  1.
</event>
<event>
 7    1  0.6507405E-006  0.8537512E+02  0.7818608E-02  0.1427164E+00
          2   -1    0    0  502    0  0.00000000000E+00  0.00000000000E+00  0.41968667407E+03  0.41968667407E+03  0.00000000000E+00 0. -1.
          1   -1    0    0  501    0 -0.00000000000E+00 -0.00000000000E+00 -0.38272962738E+03  0.38272962738E+03  0.00000000000E+00 0. -1.
         25    2    1    2    0    0 -0.57650701754E+02 -0.96648050733E+01 -0.12735768617E+03  0.18777182740E+03  0.12498506739E+03 0.  0.
          2    1    1    2  501    0 -0.28176325715E+02  0.18245169609E+02 -0.21909533174E+03  0.22165188006E+03  0.00000000000E+00 0. -1.
          1    1    1    2  502    0  0.85827027469E+02 -0.85803645355E+01  0.38341006459E+03  0.39299259399E+03  0.00000000000E+00 0. -1.
         22    1    3    3    0    0 -0.13352626212E+02  0.31112923073E+02  0.12034221877E+02  0.35932284996E+02  0.00000000000E+00 0.  1.
         22    1    3    3    0    0 -0.44298075542E+02 -0.40777728146E+02 -0.13939190804E+03  0.15183954241E+03  0.00000000000E+00 0.  1.
</event>
<event>
 7    1  0.6507405E-006  0.4126046E+02  0.7818608E-02  0.1612271E+00
          2   -1    0    0  502    0  0.00000000000E+00  0.00000000000E+00  0.29123950062E+04  0.29123950062E+04  0.00000000000E+00 0. -1.
          1   -1    0    0  501    0 -0.00000000000E+00 -0.00000000000E+00 -0.16230926579E+03  0.16230926579E+03  0.00000000000E+00 0. -1.
         25    2    1    2    0    0 -0.13304888149E+02 -0.25689770220E+02  0.86060012442E+03  0.87011165001E+03  0.12499889999E+03 0.  0.
          2    1    1    2  501    0  0.11767561094E+02 -0.16221159090E+02 -0.15670051055E+03  0.15797674355E+03  0.00000000000E+00 0. -1.
          1    1    1    2  502    0  0.15373270554E+01  0.41910929310E+02  0.20461861265E+04  0.20466158784E+04  0.00000000000E+00 0. -1.
         22    1    3    3    0    0 -0.32278590678E+02 -0.62169215080E+02  0.30275429762E+03  0.31075244721E+03  0.00000000000E+00 0. -1.
         22    1    3    3    0    0  0.18973702528E+02  0.36479444860E+02  0.55784582680E+03  0.55935920281E+03  0.00000000000E+00 0. -1.
</event>
<event>
 7    1  0.6507405E-006  0.6675202E+02  0.7818608E-02  0.1378590E+00
          2   -1    0    0  502    0  0.00000000000E+00  0.00000000000E+00  0.22757319617E+04  0.22757319617E+04  0.00000000000E+00 0. -1.
          1   -1    0    0  501    0 -0.00000000000E+00 -0.00000000000E+00 -0.27418474417E+04  0.27418474417E+04  0.00000000000E+00 0. -1.
         25    2    1    2    0    0 -0.12032180742E+03  0.47959822466E+02 -0.10832975412E+03  0.21008867852E+03  0.12499774120E+03 0.  0.
          2    1    1    2  501    0  0.58649596756E+02 -0.22935755409E+02 -0.25817564245E+04  0.25825243580E+04  0.00000000000E+00 0. -1.
          1    1    1    2  502    0  0.61672210659E+02 -0.25024067057E+02  0.22239706986E+04  0.22249663669E+04  0.00000000000E+00 0. -1.
         22    1    3    3    0    0 -0.82432144491E+02 -0.29440248060E+02 -0.27017813694E+02  0.91606489443E+02  0.00000000000E+00 0. -1.
         22    1    3    3    0    0 -0.37889662924E+02  0.77400070526E+02 -0.81311940422E+02  0.11848218908E+03  0.00000000000E+00 0. -1.
</event>
<event>
 7    1  0.6507405E-006  0.5608086E+02  0.7818608E-02  0.1512993E+00
          2   -1    0    0  502    0  0.00000000000E+00  0.00000000000E+00  0.47282798472E+03  0.47282798472E+03  0.00000000000E+00 0. -1.
          1   -1    0    0  501    0 -0.00000000000E+00 -0.00000000000E+00 -0.11362162113E+03  0.11362162113E+03  0.00000000000E+00 0. -1.
         25    2    1    2    0    0 -0.30771167050E+02  0.65748504617E+02  0.30325267783E+03  0.33594367788E+03  0.12500494997E+03 0.  0.
          2    1    1    2  501    0  0.51082545087E+01 -0.55533483228E+02 -0.87859539484E+02  0.10406421432E+03  0.00000000000E+00 0. -1.
          1    1    1    2  502    0  0.25662912542E+02 -0.10215021389E+02  0.14381322524E+03  0.14644171365E+03  0.00000000000E+00 0. -1.
         22    1    3    3    0    0 -0.39880217756E+02  0.57649365851E+02  0.59670655226E+02  0.92056875063E+02  0.00000000000E+00 0.  1.
         22    1    3    3    0    0  0.91090507055E+01  0.80991387657E+01  0.24358202261E+03  0.24388680282E+03  0.00000000000E+00 0.  1.
</event>
<event>
 7    1  0.6507405E-006  0.1356049E+03  0.7818608E-02  0.1330597E+00
          2   -1    0    0  502    0  0.00000000000E+00  0.00000000000E+00  0.76115247793E+03  0.76115247793E+03  0.00000000000E+00 0. -1.
          1   -1    0    0  501    0 -0.00000000000E+00 -0.00000000000E+00 -0.23964165469E+03  0.23964165469E+03  0.00000000000E+00 0. -1.
         25    2    1    2    0    0  0.10485483355E+03  0.91545994305E+01 -0.33144434267E+02  0.16673974109E+03  0.12500097970E+03 0.  0.
          2    1    1    2  501    0  0.30653660924E+02 -0.35043208028E+02 -0.12872586099E+03  0.13688688996E+03  0.00000000000E+00 0. -1.
          1    1    1    2  502    0 -0.13550849448E+03  0.25888608598E+02  0.68338111849E+03  0.69716750157E+03  0.00000000000E+00 0. -1.
         22    1    3    3    0    0  0.74350050822E+02  0.89518092143E+01 -0.80793670597E+02  0.11016207221E+03  0.00000000000E+00 0. -1.
         22    1    3    3    0    0  0.30504782733E+02  0.20279021626E+00  0.47649236329E+02  0.56577668883E+02  0.00000000000E+00 0. -1.
</event>
<event>
 7    1  0.6507405E-006  0.5436350E+02  0.7818608E-02  0.1532469E+00
          2   -1    0    0  502    0  0.00000000000E+00  0.00000000000E+00  0.13534129608E+04  0.13534129608E+04  0.00000000000E+00 0. -1.
          1   -1    0    0  501    0 -0.00000000000E+00 -0.00000000000E+00 -0.16737244975E+04  0.16737244975E+04  0.00000000000E+00 0. -1.
         25    2    1    2    0    0  0.30440989759E+02 -0.41467965051E+01  0.40162177242E+03  0.42174704122E+03  0.12500667549E+03 0.  0.
          2    1    1    2  501    0 -0.51371160958E+02  0.17867327394E+02 -0.16630509330E+04  0.16639400961E+04  0.00000000000E+00 0. -1.
          1    1    1    2  502    0  0.20930171199E+02 -0.13720530889E+02  0.94111762391E+03  0.94145032108E+03  0.00000000000E+00 0. -1.
         22    1    3    3    0    0  0.31614601349E+02  0.35881748609E+02  0.55267631289E+02  0.73085525037E+02  0.00000000000E+00 0. -1.
         22    1    3    3    0    0 -0.11736115901E+01 -0.40028545114E+02  0.34635414113E+03  0.34866151618E+03  0.00000000000E+00 0. -1.
</event>
<event>
 7    1  0.6507405E-006  0.8260590E+02  0.7818608E-02  0.1377462E+00
          2   -1    0    0  502    0  0.00000000000E+00  0.00000000000E+00  0.30294557542E+04  0.30294557542E+04  0.00000000000E+00 0. -1.
          1   -1    0    0  501    0 -0.00000000000E+00 -0.00000000000E+00 -0.48937418555E+02  0.48937418555E+02  0.00000000000E+00 0. -1.
         25    2    1    2    0    0 -0.19919874871E+02 -0.12718151725E+03  0.43003609791E+03  0.46597014796E+03  0.12500077417E+03 0.  0.
          2    1    1    2  501    0  0.22464637631E+02  0.46186435183E+02 -0.85854731513E+01  0.52072613609E+02  0.00000000000E+00 0. -1.
          1    1    1    2  502    0 -0.25447627595E+01  0.80995082064E+02  0.25590677109E+04  0.25603504112E+04  0.00000000000E+00 0. -1.
         22    1    3    3    0    0 -0.40402769551E+02 -0.16055381694E+02  0.24749636401E+03  0.25128591140E+03  0.00000000000E+00 0.  1.
         22    1    3    3    0    0  0.20482894680E+02 -0.11112613555E+03  0.18253973389E+03  0.21468423656E+03  0.00000000000E+00 0.  1.
</event>
<event>
 7    1  0.6507405E-006  0.7111880E+02  0.7818608E-02  0.1401405E+00
          2   -1    0    0  502    0  0.00000000000E+00  0.00000000000E+00  0.10071665700E+03  0.10071665700E+03  0.00000000000E+00 0. -1.
          1   -1    0    0  501    0 -0.00000000000E+00 -0.00000000000E+00 -0.81517273700E+03  0.81517273700E+03  0.00000000000E+00 0. -1.
         25    2    1    2    0    0 -0.88159900699E+02 -0.55738535379E+01 -0.28399782619E+02  0.15567450104E+03  0.12499906674E+03 0.  0.
          2    1    1    2  501    0  0.28697572279E+02  0.39971613685E+02 -0.68967186172E+03  0.69142501936E+03  0.00000000000E+00 0. -1.
          1    1    1    2  502    0  0.59462328420E+02 -0.34397760147E+02  0.36155643348E+01  0.68789873599E+02  0.00000000000E+00 0. -1.
         22    1    3    3    0    0 -0.77964623785E+02  0.32266106998E+02  0.26303259524E+02  0.88382383336E+02  0.00000000000E+00 0.  1.
         22    1    3    3    0    0 -0.10195276914E+02 -0.37839960535E+02 -0.54703042143E+02  0.67292117699E+02  0.00000000000E+00 0.  1.
</event>
<event>
 7    1  0.6507405E-006  0.4107560E+02  0.7818608E-02  0.1511691E+00
          2   -1    0    0  502    0  0.00000000000E+00  0.00000000000E+00  0.67988755475E+02  0.67988755475E+02  0.00000000000E+00 0. -1.
          1   -1    0    0  501    0 -0.00000000000E+00 -0.00000000000E+00 -0.13969282118E+04  0.13969282118E+04  0.00000000000E+00 0. -1.
         25    2    1    2    0    0  0.39944118813E+02 -0.48238188617E+02 -0.34681963209E+03  0.37394135112E+03  0.12500328557E+03 0.  0.
          2    1    1    2  501    0 -0.26563409873E+01  0.40687304273E+02 -0.10294462555E+04  0.10302534182E+04  0.00000000000E+00 0. -1.
          1    1    1    2  502    0 -0.37287777825E+02  0.75508843446E+01  0.47326431226E+02  0.60722197936E+02  0.00000000000E+00 0. -1.
         22    1    3    3    0    0 -0.11463776653E+02 -0.74811972030E+02 -0.13964748733E+03  0.15883850306E+03  0.00000000000E+00 0.  1.
         22    1    3    3    0    0  0.51407895465E+02  0.26573783413E+02 -0.20717214476E+03  0.21510284807E+03  0.00000000000E+00 0.  1.
</event>
<event>
 7    1  0.6507405E-006  0.8322261E+02  0.7818608E-02  0.1444250E+00
          2   -1    0    0  502    0  0.00000000000E+00  0.00000000000E+00  0.56332664899E+03  0.56332664899E+03  0.00000000000E+00 0. -1.
          1   -1    0    0  501    0 -0.00000000000E+00 -0.00000000000E+00 -0.68562744827E+03  0.68562744827E+03  0.00000000000E+00 0. -1.
         25    2    1    2    0    0 -0.62262699301E+02  0.38093877500E+02 -0.11798582844E+03  0.18674789569E+03  0.12500533431E+03 0.  0.
          2    1    1    2  501    0  0.83092549755E+02 -0.16110915686E+02 -0.52946303992E+03  0.53618564329E+03  0.00000000000E+00 0. -1.
          1    1    1    2  502    0 -0.20829850454E+02 -0.21982961814E+02  0.52514806908E+03  0.52602055828E+03  0.00000000000E+00 0. -1.
         22    1    3    3    0    0  0.24828932419E+02  0.36346066352E+02 -0.80845138647E+02  0.92051338215E+02  0.00000000000E+00 0.  1.
         22    1    3    3    0    0 -0.87091631720E+02  0.17478111482E+01 -0.37140689791E+02  0.94696557475E+02  0.00000000000E+00 0.  1.
</event>
<event>
 7    1  0.6507405E-006  0.6230956E+02  0.7818608E-02  0.1486660E+00
          2   -1    0    0  502    0  0.00000000000E+00  0.00000000000E+00  0.47442643249E+03  0.47442643249E+03  0.00000000000E+00 0. -1.
          1   -1    0    0  501    0 -0.00000000000E+00 -0.00000000000E+00 -0.24285243807E+04  0.24285243807E+04  0.00000000000E+00 0. -1.
         25    2    1    2    0    0  0.55341921129E+02 -0.66934356125E+02  0.30682187898E+03  0.34250315029E+03  0.12500322505E+03 0.  0.
          2    1    1    2  501    0 -0.49571113396E+02  0.37706059870E+02 -0.24087955699E+04  0.24096006184E+04  0.00000000000E+00 0. -1.
          1    1    1    2  502    0 -0.57708077331E+01  0.29228296255E+02  0.14787574280E+03  0.15084704449E+03  0.00000000000E+00 0. -1.
         22    1    3    3    0    0  0.19231667180E+02 -0.62711052015E+02  0.29794342128E+03  0.30507837575E+03  0.00000000000E+00 0. -1.
         22    1    3    3    0    0  0.36110253948E+02 -0.42233041102E+01  0.88784576938E+01  0.37424774533E+02  0.00000000000E+00 0. -1.
</event>
<event>
 7    1  0.6507405E-006  0.2782837E+02  0.7818608E-02  0.1642550E+00
          2   -1    0    0  502    0  0.00000000000E+00  0.00000000000E+00  0.41873959471E+03  0.41873959471E+03  0.00000000000E+00 0. -1.
          1   -1    0    0  501    0 -0.00000000000E+00 -0.00000000000E+00 -0.19026959656E+04  0.19026959656E+04  0.00000000000E+00 0. -1.
         25    2    1    2    0    0 -0.27953160731E+02  0.17115018791E+02 -0.14708418739E+04  0.14765075036E+04  0.12499714883E+03 0.  0.
          2    1    1    2  501    0  0.27430703176E+02  0.77992081321E+01 -0.42817325108E+03  0.42912189884E+03  0.00000000000E+00 0. -1.
          1    1    1    2  502    0  0.52245755529E+00 -0.24914226923E+02  0.41505875402E+03  0.41580615790E+03  0.00000000000E+00 0. -1.
         22    1    3    3    0    0  0.30004096394E+01 -0.46235018718E+02 -0.30123186773E+03  0.30477420749E+03  0.00000000000E+00 0.  1.
         22    1    3    3    0    0 -0.30953570371E+02  0.63350037509E+02 -0.11696100061E+04  0.11717332961E+04  0.00000000000E+00 0.  1.
</event>
<event>
 7    1  0.1049863E-005  0.4328049E+02  0.7818608E-02  0.1501223E+00
          2   -1    0    0  502    0  0.00000000000E+00  0.00000000000E+00  0.18530093875E+04  0.18530093875E+04  0.00000000000E+00 0. -1.
          1   -1    0    0  501    0 -0.00000000000E+00 -0.00000000000E+00 -0.85888454257E+03  0.85888454257E+03  0.00000000000E+00 0. -1.
         25    2    1    2    0    0 -0.32814875569E+02  0.43194722372E+02 -0.13740523354E+03  0.19352234494E+03  0.12501239814E+03 0.  0.
          2    1    1    2  501    0 -0.59592308727E+01 -0.42980618964E+02 -0.69253568834E+03  0.69389374234E+03  0.00000000000E+00 0. -1.
          1    1    1    2  502    0  0.38774106441E+02 -0.21410340873E+00  0.18240657668E+04  0.18244778428E+04  0.00000000000E+00 0. -1.
         22    1    3    3    0    0 -0.61095473784E+02  0.66730241623E+02 -0.12577470585E+03  0.15493501443E+03  0.00000000000E+00 0. -1.
         22    1    3    3    0    0  0.28280598216E+02 -0.23535519251E+02 -0.11630527691E+02  0.38587330514E+02  0.00000000000E+00 0. -1.
</event>
<event>
 7    1  0.6507405E-006  0.6121116E+02  0.7818608E-02  0.1395402E+00
          2   -1    0    0  502    0  0.00000000000E+00  0.00000000000E+00  0.71662922184E+03  0.71662922184E+03  0.00000000000E+00 0. -1.
          1   -1    0    0  501    0 -0.00000000000E+00 -0.00000000000E+00 -0.75264176485E+02  0.75264176485E+02  0.00000000000E+00 0. -1.
         25    2    1    2    0    0  0.35890593574E+02  0.41885579217E+02  0.39034916827E+03  0.41356905853E+03  0.12499742618E+03 0.  0.
          2    1    1    2  501    0 -0.61315709043E+02  0.12417937657E+02 -0.44508882893E+02  0.76778004712E+02  0.00000000000E+00 0. -1.
          1    1    1    2  502    0  0.25425115470E+02 -0.54303516874E+02  0.29552475998E+03  0.30154633508E+03  0.00000000000E+00 0. -1.
         22    1    3    3    0    0  0.28966799872E+02  0.34502400929E+02  0.32434147991E+02  0.55510945953E+02  0.00000000000E+00 0.  1.
         22    1    3    3    0    0  0.69237937013E+01  0.73831782883E+01  0.35791502028E+03  0.35805811258E+03  0.00000000000E+00 0.  1.
</event>
<event>
 7    1  0.6507405E-006  0.6398417E+02  0.7818608E-02  0.1531702E+00
          2   -1    0    0  502    0  0.00000000000E+00  0.00000000000E+00  0.21439472547E+02  0.21439472547E+02  0.00000000000E+00 0. -1.
          1   -1    0    0  501    0 -0.00000000000E+00 -0.00000000000E+00 -0.21186600408E+04  0.21186600408E+04  0.00000000000E+00 0. -1.
         25    2    1    2    0    0  0.84016125874E+02 -0.40129867793E+01 -0.48823904981E+03  0.51095736439E+03  0.12500097997E+03 0.  0.
          2    1    1    2  501    0 -0.62679260514E+02  0.52210516247E+01 -0.16063828440E+04  0.16076136944E+04  0.00000000000E+00 0. -1.
          1    1    1    2  502    0 -0.21336865361E+02 -0.12080648454E+01 -0.25986744258E+01  0.21528454493E+02  0.00000000000E+00 0. -1.
         22    1    3    3    0    0  0.10356698162E+03 -0.38143772983E+02 -0.33303588661E+03  0.35084750087E+03  0.00000000000E+00 0. -1.
         22    1    3    3    0    0 -0.19550855746E+02  0.34130786204E+02 -0.15520316320E+03  0.16010986352E+03  0.00000000000E+00 0. -1.
</event>
<event>
 7    1  0.6507405E-006  0.3476581E+02  0.7818608E-02  0.1575249E+00
          2   -1    0    0  502    0  0.00000000000E+00  0.00000000000E+00  0.13972492261E+04  0.13972492261E+04  0.00000000000E+00 0. -1.
          1   -1    0    0  501    0 -0.00000000000E+00 -0.00000000000E+00 -0.22621416601E+02  0.22621416601E+02  0.00000000000E+00 0. -1.
         25    2    1    2    0    0  0.33756184340E+01  0.23238616207E+02  0.98235036275E+03  0.99055033839E+03  0.12500523828E+03 0.  0.
          2    1    1    2  501    0  0.26396315649E+02 -0.23206488470E+02 -0.76170524833E+00  0.35155181436E+02  0.00000000000E+00 0. -1.
          1    1    1    2  502    0 -0.29771934083E+02 -0.32127737483E-01  0.39303915198E+03  0.39416512287E+03  0.00000000000E+00 0. -1.
         22    1    3    3    0    0  0.22598318097E+02  0.70544616473E+02  0.66578609883E+03  0.66989428740E+03  0.00000000000E+00 0. -1.
         22    1    3    3    0    0 -0.19222699663E+02 -0.47306000266E+02  0.31656426392E+03  0.32065605099E+03  0.00000000000E+00 0. -1.
</event>
<event>
 7    1  0.6507405E-006  0.9258193E+02  0.7818608E-02  0.1384649E+00
          2   -1    0    0  502    0  0.00000000000E+00  0.00000000000E+00  0.26448180220E+03  0.26448180220E+03  0.00000000000E+00 0. -1.
          1   -1    0    0  501    0 -0.00000000000E+00 -0.00000000000E+00 -0.29215666647E+04  0.29215666647E+04  0.00000000000E+00 0. -1.
         25    2    1    2    0    0  0.83394556948E+02  0.92791710664E+02 -0.20983540899E+03  0.27426639055E+03  0.12500480161E+03 0.  0.
          2    1    1    2  501    0 -0.67985003349E+01 -0.42683187780E+02 -0.26703166171E+04  0.26706663793E+04  0.00000000000E+00 0. -1.
          1    1    1    2  502    0 -0.76596056614E+02 -0.50108522884E+02  0.22306716350E+03  0.24111569710E+03  0.00000000000E+00 0. -1.
         22    1    3    3    0    0  0.34254451480E+02 -0.24647567238E+02 -0.22655759175E+02  0.47897321854E+02  0.00000000000E+00 0. -1.
         22    1    3    3    0    0  0.49140105468E+02  0.11743927790E+03 -0.18717964981E+03  0.22636906870E+03  0.00000000000E+00 0. -1.
</event>
<event>
 7    1  0.6507405E-006  0.6655805E+02  0.7818608E-02  0.1372710E+00
          2   -1    0    0  502    0  0.00000000000E+00  0.00000000000E+00  0.40470680487E+03  0.40470680487E+03  0.00000000000E+00 0. -1.
          1   -1    0    0  501    0 -0.00000000000E+00 -0.00000000000E+00 -0.12830604589E+03  0.12830604589E+03  0.00000000000E+00 0. -1.
         25    2    1    2    0    0 -0.61552739024E+02 -0.58163439855E+02  0.23706155413E+03  0.28106035436E+03  0.12500006772E+03 0.  0.
          2    1    1    2  501    0  0.66572607059E+02 -0.79273326875E+01 -0.86670315515E+02  0.10957416760E+03  0.00000000000E+00 0. -1.
          1    1    1    2  502    0 -0.50198680356E+01  0.66090772542E+02  0.12600952036E+03  0.14237832880E+03  0.00000000000E+00 0. -1.
         22    1    3    3    0    0 -0.36007932585E+01 -0.34403357097E+02  0.21000125095E+03  0.21283111166E+03  0.00000000000E+00 0.  1.
         22    1    3    3    0    0 -0.57951945765E+02 -0.23760082758E+02  0.27060303176E+02  0.68229242694E+02  0.00000000000E+00 0.  1.
</event>
<event>
 7    1  0.6507405E-006  0.1910475E+03  0.7818608E-02  0.1282725E+00
          2   -1    0    0  502    0  0.00000000000E+00  0.00000000000E+00  0.61891909336E+03  0.61891909336E+03  0.00000000000E+00 0. -1.
          1   -1    0    0  501    0 -0.00000000000E+00 -0.00000000000E+00 -0.51350903738E+03  0.51350903738E+03  0.00000000000E+00 0. -1.
         25    2    1    2    0    0 -0.20768283230E+02  0.18103810477E+03  0.52654710373E+03  0.57103631459E+03  0.12499801265E+03 0.  0.
          2    1    1    2  501    0 -0.29716176644E+02 -0.18926050102E+03 -0.45924774566E+03  0.49760534593E+03  0.00000000000E+00 0. -1.
          1    1    1    2  502    0  0.50484459874E+02  0.82223962498E+01  0.38110697906E+02  0.63786470225E+02  0.00000000000E+00 0. -1.
         22    1    3    3    0    0 -0.51450987252E+02  0.68366882478E+02  0.34284297496E+03  0.35335893959E+03  0.00000000000E+00 0.  1.
         22    1    3    3    0    0  0.30682704022E+02  0.11267122229E+03  0.18370412877E+03  0.21767737500E+03  0.00000000000E+00 0.  1.
</event>
<event>
 7    1  0.6507405E-006  0.4474814E+02  0.7818608E-02  0.1508068E+00
          2   -1    0    0  502    0  0.00000000000E+00  0.00000000000E+00  0.22045041011E+04  0.22045041011E+04  0.00000000000E+00 0. -1.
          1   -1    0    0  501    0 -0.00000000000E+00 -0.00000000000E+00 -0.66648359990E+03  0.66648359990E+03  0.00000000000E+00 0. -1.
         25    2    1    2    0    0 -0.18812393932E+02  0.33268469872E+01 -0.38099376773E+03  0.40143324318E+03  0.12500969403E+03 0.  0.
          2    1    1    2  501    0  0.48449666861E+02  0.16737957042E+02 -0.27273640558E+03  0.27751157878E+03  0.00000000000E+00 0. -1.
          1    1    1    2  502    0 -0.29637272929E+02 -0.20064804029E+02  0.21917506745E+04  0.21920428791E+04  0.00000000000E+00 0. -1.
         22    1    3    3    0    0 -0.34097282215E+02  0.46793005302E+02 -0.91386273721E+02  0.10818346003E+03  0.00000000000E+00 0.  1.
         22    1    3    3    0    0  0.15284888283E+02 -0.43466158315E+02 -0.28960749401E+03  0.29324978315E+03  0.00000000000E+00 0.  1.
</event>
<event>
 7    1  0.6507405E-006  0.9519869E+02  0.7818608E-02  0.1356807E+00
          2   -1    0    0  502    0  0.00000000000E+00  0.00000000000E+00  0.22238308579E+03  0.22238308579E+03  0.00000000000E+00 0. -1.
          1   -1    0    0  501    0 -0.00000000000E+00 -0.00000000000E+00 -0.61358702836E+03  0.61358702836E+03  0.00000000000E+00 0. -1.
         25    2    1    2    0    0 -0.41428357233E+02 -0.66639437142E+02  0.13131610983E+03  0.19755091255E+03  0.12500127593E+03 0.  0.
          2    1    1    2  501    0  0.87171190319E+02  0.40037195161E+02 -0.56342741181E+03  0.57153498738E+03  0.00000000000E+00 0. -1.
          1    1    1    2  502    0 -0.45742833087E+02  0.26602241981E+02  0.40907359414E+02  0.66884214217E+02  0.00000000000E+00 0. -1.
         22    1    3    3    0    0 -0.62910155268E+02 -0.47846374099E+02  0.14557351808E+03  0.16564604528E+03  0.00000000000E+00 0.  1.
         22    1    3    3    0    0  0.21481798035E+02 -0.18793063043E+02 -0.14257408258E+02  0.31904867271E+02  0.00000000000E+00 0.  1.
</event>
<event>
 7    1  0.6507405E-006  0.1095107E+03  0.7818608E-02  0.1428867E+00
          2   -1    0    0  502    0  0.00000000000E+00  0.00000000000E+00  0.18450953613E+04  0.18450953613E+04  0.00000000000E+00 0. -1.
          1   -1    0    0  501    0 -0.00000000000E+00 -0.00000000000E+00 -0.11135755748E+03  0.11135755748E+03  0.00000000000E+00 0. -1.
         25    2    1    2    0    0  0.89268467904E+02 -0.44998513366E+02  0.49536753730E+03  0.52058322310E+03  0.12499667833E+03 0.  0.
          2    1    1    2  501    0 -0.10706025881E+03  0.26269022123E+02 -0.67817614351E+02  0.12942638586E+03  0.00000000000E+00 0. -1.
          1    1    1    2  502    0  0.17791790905E+02  0.18729491243E+02  0.13061878809E+04  0.13064433098E+04  0.00000000000E+00 0. -1.
         22    1    3    3    0    0  0.76183180056E+02 -0.45992355672E+02  0.49907485544E+03  0.50694662938E+03  0.00000000000E+00 0.  1.
         22    1    3    3    0    0  0.13085287848E+02  0.99384230595E+00 -0.37073181389E+01  0.13636593723E+02  0.00000000000E+00 0.  1.
</event>
<event>
 7    1  0.6507405E-006  0.4747075E+02  0.7818608E-02  0.1489223E+00
          2   -1    0    0  502    0  0.00000000000E+00  0.00000000000E+00  0.52689048946E+03  0.52689048946E+03  0.00000000000E+00 0. -1.
          1   -1    0    0  501    0 -0.00000000000E+00 -0.00000000000E+00 -0.52033106103E+03  0.52033106103E+03  0.00000000000E+00 0. -1.
         25    2    1    2    0    0  0.17922958983E+02  0.14310097305E+02  0.17544209716E+03  0.21663660724E+03  0.12500191518E+03 0.  0.
          2    1    1    2  501    0  0.32006339404E+02 -0.21237645329E+02 -0.49706853681E+03  0.49855047250E+03  0.00000000000E+00 0. -1.
          1    1    1    2  502    0 -0.49929298387E+02  0.69275480243E+01  0.32818586809E+03  0.33203447076E+03  0.00000000000E+00 0. -1.
         22    1    3    3    0    0  0.39801023512E+02  0.61462371685E+02  0.12048669345E+03  0.14099215547E+03  0.00000000000E+00 0.  1.
         22    1    3    3    0    0 -0.21878064529E+02 -0.47152274380E+02  0.54955403704E+02  0.75644451766E+02  0.00000000000E+00 0.  1.
</event>
<event>
 7    1  0.6507405E-006  0.5005553E+02  0.7818608E-02  0.1515658E+00
          2   -1    0    0  502    0  0.00000000000E+00  0.00000000000E+00  0.12726072496E+02  0.12726072496E+02  0.00000000000E+00 0. -1.
          1   -1    0    0  501    0 -0.00000000000E+00 -0.00000000000E+00 -0.13180997589E+04  0.13180997589E+04  0.00000000000E+00 0. -1.
         25    2    1    2    0    0 -0.20701611350E+02  0.46917950407E+02 -0.59166048675E+03  0.60689061261E+03  0.12499693316E+03 0.  0.
          2    1    1    2  501    0  0.43387588482E+02 -0.26688934312E+02 -0.66195521376E+03  0.66391225857E+03  0.00000000000E+00 0. -1.
          1    1    1    2  502    0 -0.22685977131E+02 -0.20229016095E+02 -0.51757985878E+02  0.60022960213E+02  0.00000000000E+00 0. -1.
         22    1    3    3    0    0  0.70181400519E+01  0.19947048274E+01 -0.50745390293E+03  0.50750635143E+03  0.00000000000E+00 0.  1.
         22    1    3    3    0    0 -0.27719751402E+02  0.44923245580E+02 -0.84206583822E+02  0.99384261180E+02  0.00000000000E+00 0.  1.
</event>
<event>
 7    1  0.6507405E-006  0.1021296E+03  0.7818608E-02  0.1300332E+00
          2   -1    0    0  502    0  0.00000000000E+00  0.00000000000E+00  0.20003824302E+04  0.20003824302E+04  0.00000000000E+00 0. -1.
          1   -1    0    0  501    0 -0.00000000000E+00 -0.00000000000E+00 -0.10836339670E+03  0.10836339670E+03  0.00000000000E+00 0. -1.
         25    2    1    2    0    0  0.16389464733E+03  0.62685066953E+02  0.22153129234E+03  0.30901832905E+03  0.12500136464E+03 0.  0.
          2    1    1    2  501    0 -0.65085139949E+02 -0.48502321958E+02 -0.37084379216E+02  0.89240135922E+02  0.00000000000E+00 0. -1.
          1    1    1    2  502    0 -0.98809507376E+02 -0.14182744995E+02  0.17075721203E+04  0.17104873619E+04  0.00000000000E+00 0. -1.
         22    1    3    3    0    0 -0.18809683899E+02  0.70825016831E+01  0.58416959783E+01  0.20930634256E+02  0.00000000000E+00 0. -1.
         22    1    3    3    0    0  0.18270433122E+03  0.55602565270E+02  0.21568959636E+03  0.28808769479E+03  0.00000000000E+00 0. -1.
</event>
<event>
 7    1  0.6507405E-006  0.7135259E+02  0.7818608E-02  0.1475474E+00
          2   -1    0    0  502    0  0.00000000000E+00  0.00000000000E+00  0.19557275442E+04  0.19557275442E+04  0.00000000000E+00 0. -1.
          1   -1    0    0  501    0 -0.00000000000E+00 -0.00000000000E+00 -0.33254309084E+03  0.33254309084E+03  0.00000000000E+00 0. -1.
         25    2    1    2    0    0 -0.73516585885E+01  0.77395362144E+02  0.16130096688E+04  0.16197128007E+04  0.12500110460E+03 0.  0.
          2    1    1    2  501    0  0.25241029562E+02 -0.12468231112E+02 -0.32523624130E+03  0.32645241462E+03  0.00000000000E+00 0. -1.
          1    1    1    2  502    0 -0.17889370974E+02 -0.64927131032E+02  0.33541102581E+03  0.34210541968E+03  0.00000000000E+00 0. -1.
         22    1    3    3    0    0 -0.65568393580E+02  0.50320223569E+02  0.96258835896E+03  0.96613026448E+03  0.00000000000E+00 0.  1.
         22    1    3    3    0    0  0.58216734992E+02  0.27075138575E+02  0.65042130984E+03  0.65358253622E+03  0.00000000000E+00 0.  1.
</event>
<event>
 7    1  0.6507405E-006  0.8992207E+02  0.7818608E-02  0.1339860E+00
          2   -1    0    0  502    0  0.00000000000E+00  0.00000000000E+00  0.65036008813E+03  0.65036008813E+03  0.00000000000E+00 0. -1.
          1   -1    0    0  501    0 -0.00000000000E+00 -0.00000000000E+00 -0.55078614829E+02  0.55078614829E+02  0.00000000000E+00 0. -1.
         25    2    1    2    0    0 -0.11748752696E+03  0.52808550634E+02  0.25648306432E+03  0.31305475773E+03  0.12501062773E+03 0.  0.
          2    1    1    2  501    0  0.33311327638E+02 -0.55534830933E+02  0.28311834974E+02  0.70677591890E+02  0.00000000000E+00 0. -1.
          1    1    1    2  502    0  0.84176199325E+02  0.27262802992E+01  0.31048657401E+03  0.32170635334E+03  0.00000000000E+00 0. -1.
         22    1    3    3    0    0 -0.49686460606E+02 -0.85949183794E+00  0.20813500675E+03  0.21398519605E+03  0.00000000000E+00 0.  1.
         22    1    3    3    0    0 -0.67801066357E+02  0.53668042472E+02  0.48348057572E+02  0.99069561687E+02  0.00000000000E+00 0.  1.
</event>
<event>
 7    1  0.6507405E-006  0.5735945E+02  0.7818608E-02  0.1414202E+00
          2   -1    0    0  502    0  0.00000000000E+00  0.00000000000E+00  0.10260372481E+03  0.10260372481E+03  0.00000000000E+00 0. -1.
          1   -1    0    0  501    0 -0.00000000000E+00 -0.00000000000E+00 -0.74100083517E+03  0.74100083517E+03  0.00000000000E+00 0. -1.
         25    2    1    2    0    0  0.66517205176E+02 -0.23414231051E+02 -0.10826008310E+02  0.14388215397E+03  0.12494841725E+03 0.  0.
          2    1    1    2  501    0 -0.20455438973E+02  0.53824079161E+02 -0.64045979363E+03  0.64304292526E+03  0.00000000000E+00 0. -1.
          1    1    1    2  502    0 -0.46061766203E+02 -0.30409848110E+02  0.12888691569E+02  0.56679480751E+02  0.00000000000E+00 0. -1.
         22    1    3    3    0    0  0.79577047700E+02  0.21175701314E+02 -0.37306378436E+02  0.90402891097E+02  0.00000000000E+00 0. -1.
         22    1    3    3    0    0 -0.13059842524E+02 -0.44589932364E+02  0.26480370126E+02  0.53479262869E+02  0.00000000000E+00 0. -1.
</event>
<event>
 7    1  0.6507405E-006  0.2137125E+03  0.7818608E-02  0.1333854E+00
          2   -1    0    0  502    0  0.00000000000E+00  0.00000000000E+00  0.64338529149E+03  0.64338529149E+03  0.00000000000E+00 0. -1.
          1   -1    0    0  501    0 -0.00000000000E+00 -0.00000000000E+00 -0.14688211419E+04  0.14688211419E+04  0.00000000000E+00 0. -1.
         25    2    1    2    0    0  0.13967402598E+03  0.14350071379E+03 -0.56124350051E+03  0.60886826820E+03  0.12500005106E+03 0.  0.
          2    1    1    2  501    0  0.27189743807E+02 -0.92206474213E+01 -0.86500937413E+03  0.86548571325E+03  0.00000000000E+00 0. -1.
          1    1    1    2  502    0 -0.16686376979E+03 -0.13428006637E+03  0.60081702420E+03  0.63785245196E+03  0.00000000000E+00 0. -1.
         22    1    3    3    0    0  0.84242020260E+02  0.13665141038E+03 -0.28561301797E+03  0.32763565430E+03  0.00000000000E+00 0.  1.
         22    1    3    3    0    0  0.55432005722E+02  0.68493034144E+01 -0.27563048254E+03  0.28123261390E+03  0.00000000000E+00 0.  1.
</event>
<event>
 7    1  0.6507405E-006  0.1225349E+03  0.7818608E-02  0.1251281E+00
          2   -1    0    0  502    0  0.00000000000E+00  0.00000000000E+00  0.17095479123E+04  0.17095479123E+04  0.00000000000E+00 0. -1.
          1   -1    0    0  501    0 -0.00000000000E+00 -0.00000000000E+00 -0.27546212513E+02  0.27546212513E+02  0.00000000000E+00 0. -1.
         25    2    1    2    0    0  0.74337391784E+02 -0.23408748441E+01  0.52995089420E+03  0.54954946730E+03  0.12500055692E+03 0.  0.
          2    1    1    2  501    0 -0.11018552304E+03 -0.11483300267E+03  0.52328962333E+03  0.54695474938E+03  0.00000000000E+00 0. -1.
          1    1    1    2  502    0  0.35848131254E+02  0.11717387751E+03  0.62876118223E+03  0.64058990810E+03  0.00000000000E+00 0. -1.
         22    1    3    3    0    0 -0.29184994033E+02  0.21925148056E+02  0.18562624454E+03  0.18918133802E+03  0.00000000000E+00 0.  1.
         22    1    3    3    0    0  0.10352238582E+03 -0.24266022901E+02  0.34432464966E+03  0.36036812928E+03  0.00000000000E+00 0.  1.
</event>
<event>
 7    1  0.6507405E-006  0.7650357E+02  0.7818608E-02  0.1429085E+00
          2   -1    0    0  502    0  0.00000000000E+00  0.00000000000E+00  0.77939490480E+03  0.77939490480E+03  0.00000000000E+00 0. -1.
          1   -1    0    0  501    0 -0.00000000000E+00 -0.00000000000E+00 -0.13957916499E+03  0.13957916499E+03  0.00000000000E+00 0. -1.
         25    2    1    2    0    0  0.72304874887E+02  0.35254371042E+02  0.23055474813E+03  0.27431938235E+03  0.12499906414E+03 0.  0.
          2    1    1    2  501    0  0.46824401374E+01 -0.36618958835E+02 -0.11190195540E+03  0.11783429473E+03  0.00000000000E+00 0. -1.
          1    1    1    2  502    0 -0.76987315024E+02  0.13645877928E+01  0.52116294708E+03  0.52682039272E+03  0.00000000000E+00 0. -1.
         22    1    3    3    0    0 -0.18635401983E+02  0.17065829496E+02  0.14804844156E+03  0.15018941971E+03  0.00000000000E+00 0. -1.
         22    1    3    3    0    0  0.90940276870E+02  0.18188541546E+02  0.82506306566E+02  0.12412996264E+03  0.00000000000E+00 0. -1.
</event>
<event>
 7    1  0.6507405E-006  0.7096464E+02  0.7818608E-02  0.1360304E+00
          2   -1    0    0  502    0  0.00000000000E+00  0.00000000000E+00  0.34450722401E+04  0.34450722401E+04  0.00000000000E+00 0. -1.
          1   -1    0    0  501    0 -0.00000000000E+00 -0.00000000000E+00 -0.52771294715E+03  0.52771294715E+03  0.00000000000E+00 0. -1.
         25    2    1    2    0    0  0.12257059328E+03  0.21102167119E+02  0.10402791881E+03  0.20473138644E+03  0.12499712360E+03 0.  0.
          2    1    1    2  501    0 -0.65701496874E+02  0.20835653458E+02 -0.47449156920E+03  0.47947164711E+03  0.00000000000E+00 0. -1.
          1    1    1    2  502    0 -0.56869096402E+02 -0.41937820577E+02  0.32878229433E+04  0.32885821537E+04  0.00000000000E+00 0. -1.
         22    1    3    3    0    0  0.11150148991E+03 -0.12171374987E+02  0.20339225365E+02  0.11399302044E+03  0.00000000000E+00 0. -1.
         22    1    3    3    0    0  0.11069103368E+02  0.33273542107E+02  0.83688693446E+02  0.90738366000E+02  0.00000000000E+00 0. -1.
</event>
<event>
 7    1  0.1033892E-005  0.9533930E+02  0.7818608E-02  0.1357942E+00
          2   -1    0    0  502    0  0.00000000000E+00  0.00000000000E+00  0.83058542635E+03  0.83058542635E+03  0.00000000000E+00 0. -1.
          1   -1    0    0  501    0 -0.00000000000E+00 -0.00000000000E+00 -0.24387899177E+04  0.24387899177E+04  0.00000000000E+00 0. -1.
         25    2    1    2    0    0 -0.83878327607E+02 -0.11825282142E+03 -0.48125942247E+03  0.51793338329E+03  0.12500021678E+03 0.  0.
          2    1    1    2  501    0  0.18995612510E+02  0.48765179883E+02 -0.19360568246E+04  0.19367640290E+04  0.00000000000E+00 0. -1.
          1    1    1    2  502    0  0.64882715097E+02  0.69487641535E+02  0.80911175577E+03  0.81467793168E+03  0.00000000000E+00 0. -1.
         22    1    3    3    0    0  0.11920514454E+02 -0.52785558548E+02 -0.28373868385E+03  0.28885299820E+03  0.00000000000E+00 0.  1.
         22    1    3    3    0    0 -0.95798842061E+02 -0.65467262870E+02 -0.19752073861E+03  0.22908038508E+03  0.00000000000E+00 0.  1.
</event>
<event>
 7    1  0.6507405E-006  0.8601247E+02  0.7818608E-02  0.1323150E+00
          2   -1    0    0  502    0  0.00000000000E+00  0.00000000000E+00  0.87264660784E+03  0.87264660784E+03  0.00000000000E+00 0. -1.
          1   -1    0    0  501    0 -0.00000000000E+00 -0.00000000000E+00 -0.11387231453E+03  0.11387231453E+03  0.00000000000E+00 0. -1.
         25    2    1    2    0    0 -0.23037897058E+02  0.15127145345E+03  0.92564171976E+02  0.21820127164E+03  0.12501948522E+03 0.  0.
          2    1    1    2  501    0 -0.15164648309E+02 -0.76916637676E+02 -0.16828070439E+02  0.80183038508E+02  0.00000000000E+00 0. -1.
          1    1    1    2  502    0  0.38202545367E+02 -0.74354815774E+02  0.68303819178E+03  0.68813461222E+03  0.00000000000E+00 0. -1.
         22    1    3    3    0    0  0.26535431156E+02 -0.95832746433E+01  0.56781776796E+01  0.28778637238E+02  0.00000000000E+00 0.  1.
         22    1    3    3    0    0 -0.49573328214E+02  0.16085472809E+03  0.86885994297E+02  0.18942263440E+03  0.00000000000E+00 0.  1.
</event>
<event>
 7    1  0.6507405E-006  0.5473073E+02  0.7818608E-02  0.1442286E+00
          2   -1    0    0  502    0  0.00000000000E+00  0.00000000000E+00  0.28145893912E+03  0.28145893912E+03  0.00000000000E+00 0. -1.
          1   -1    0    0  501    0 -0.00000000000E+00 -0.00000000000E+00 -0.95911346707E+03  0.95911346707E+03  0.00000000000E+00 0. -1.
         25    2    1    2    0    0  0.52217806815E+02  0.14808087593E+02  0.24216359243E+03  0.27786971155E+03  0.12498956872E+03 0.  0.
          2    1    1    2  501    0  0.10027504963E+02 -0.45638836287E+02 -0.88271724943E+03  0.88395316430E+03  0.00000000000E+00 0. -1.
          1    1    1    2  502    0 -0.62245311778E+02  0.30830748695E+02 -0.37100870953E+02  0.78749530341E+02  0.00000000000E+00 0. -1.
         22    1    3    3    0    0  0.64214514141E+02 -0.37375080027E+02  0.90858683759E+02  0.11736993162E+03  0.00000000000E+00 0. -1.
         22    1    3    3    0    0 -0.11996707326E+02  0.52183167620E+02  0.15130490867E+03  0.16049977993E+03  0.00000000000E+00 0. -1.
</event>
<event>
 7    1  0.6507405E-006  0.7752033E+02  0.7818608E-02  0.1374864E+00
          2   -1    0    0  502    0  0.00000000000E+00  0.00000000000E+00  0.35242778204E+04  0.35242778204E+04  0.00000000000E+00 0. -1.
          1   -1    0    0  501    0 -0.00000000000E+00 -0.00000000000E+00 -0.57421235187E+03  0.57421235187E+03  0.00000000000E+00 0. -1.
         25    2    1    2    0    0  0.62475752341E+02  0.17879168820E+02  0.32234800228E+03  0.35179046252E+03  0.12500164255E+03 0.  0.
          2    1    1    2  501    0 -0.67993195561E+02  0.37756232932E+02 -0.55654182184E+03  0.56194964830E+03  0.00000000000E+00 0. -1.
          1    1    1    2  502    0  0.55174432205E+01 -0.55635401752E+02  0.31842592880E+04  0.31847500614E+04  0.00000000000E+00 0. -1.
         22    1    3    3    0    0  0.76146461880E+02 -0.33959619169E+02  0.15412638180E+03  0.17523264809E+03  0.00000000000E+00 0. -1.
         22    1    3    3    0    0 -0.13670709539E+02  0.51838787989E+02  0.16822162048E+03  0.17655781443E+03  0.00000000000E+00 0. -1.
</event>
<event>
 7    1  0.6507405E-006  0.9668391E+02  0.7818608E-02  0.1356387E+00
          2   -1    0    0  502    0  0.00000000000E+00  0.00000000000E+00  0.54583262494E+03  0.54583262494E+03  0.00000000000E+00 0. -1.
          1   -1    0    0  501    0 -0.00000000000E+00 -0.00000000000E+00 -0.59674931756E+03  0.59674931756E+03  0.00000000000E+00 0. -1.
         25    2    1    2    0    0 -0.62695854011E+02 -0.12923280488E+03  0.53163439733E+02  0.19769448180E+03  0.12499947536E+03 0.  0.
          2    1    1    2  501    0  0.32692245263E+02  0.40807908217E+02 -0.51796623525E+03  0.52059877942E+03  0.00000000000E+00 0. -1.
          1    1    1    2  502    0  0.30003608748E+02  0.88424896668E+02  0.41388610290E+03  0.42428868128E+03  0.00000000000E+00 0. -1.
         22    1    3    3    0    0 -0.87990071079E+02 -0.51652988327E+02  0.33369359728E+01  0.10208535132E+03  0.00000000000E+00 0. -1.
         22    1    3    3    0    0  0.25294217068E+02 -0.77579816557E+02  0.49826503760E+02  0.95609130480E+02  0.00000000000E+00 0. -1.
</event>
<event>
 7    1  0.6507405E-006  0.4720156E+02  0.7818608E-02  0.1587053E+00
          2   -1    0    0  502    0  0.00000000000E+00  0.00000000000E+00  0.44665045505E+03  0.44665045505E+03  0.00000000000E+00 0. -1.
          1   -1    0    0  501    0 -0.00000000000E+00 -0.00000000000E+00 -0.52763951463E+03  0.52763951463E+03  0.00000000000E+00 0. -1.
         25    2    1    2    0    0 -0.64033504383E+02 -0.41661030920E+01  0.85227241846E+02  0.16434461304E+03  0.12501129143E+03 0.  0.
          2    1    1    2  501    0  0.18980890814E+02 -0.74460841794E+01 -0.48618475786E+03  0.48661210133E+03  0.00000000000E+00 0. -1.
          1    1    1    2  502    0  0.45052613569E+02  0.11612187271E+02  0.31996845643E+03  0.32333325531E+03  0.00000000000E+00 0. -1.
         22    1    3    3    0    0  0.13212404576E+02  0.41618616641E+02  0.50370303751E+01  0.43955074346E+02  0.00000000000E+00 0.  1.
         22    1    3    3    0    0 -0.77245908959E+02 -0.45784719733E+02  0.80190211471E+02  0.12038953870E+03  0.00000000000E+00 0.  1.
</event>
<event>
 7    1  0.6507405E-006  0.3094066E+02  0.7818608E-02  0.1610833E+00
          2   -1    0    0  502    0  0.00000000000E+00  0.00000000000E+00  0.16008713894E+03  0.16008713894E+03  0.00000000000E+00 0. -1.
          1   -1    0    0  501    0 -0.00000000000E+00 -0.00000000000E+00 -0.10759486782E+03  0.10759486782E+03  0.00000000000E+00 0. -1.
         25    2    1    2    0    0 -0.75154938922E+01 -0.26030083073E+02  0.23788511181E+02  0.13009529613E+03  0.12499937975E+03 0.  0.
          2    1    1    2  501    0 -0.19425842664E+02  0.25244827557E+02 -0.47254548807E+02  0.56988218647E+02  0.00000000000E+00 0. -1.
          1    1    1    2  502    0  0.26941336556E+02  0.78525551558E+00  0.75958308751E+02  0.80598491983E+02  0.00000000000E+00 0. -1.
         22    1    3    3    0    0  0.54175757063E+02  0.57293110120E+01  0.26656086499E+02  0.60649687595E+02  0.00000000000E+00 0. -1.
         22    1    3    3    0    0 -0.61691250955E+02 -0.31759394085E+02 -0.28675753176E+01  0.69445608538E+02  0.00000000000E+00 0. -1.
</event>
<event>
 7    1  0.6507405E-006  0.1040190E+03  0.7818608E-02  0.1359877E+00
          2   -1    0    0  502    0  0.00000000000E+00  0.00000000000E+00  0.20585259773E+04  0.20585259773E+04  0.00000000000E+00 0. -1.
          1   -1    0    0  501    0 -0.00000000000E+00 -0.00000000000E+00 -0.24117707403E+03  0.24117707403E+03  0.00000000000E+00 0. -1.
         25    2    1    2    0    0  0.20285459316E+02 -0.11992159788E+03  0.33955827947E+03  0.38173016108E+03  0.12500160488E+03 0.  0.
          2    1    1    2  501    0  0.34437960981E+02  0.32266649517E+02 -0.21596852270E+03  0.22106449879E+03  0.00000000000E+00 0. -1.
          1    1    1    2  502    0 -0.54723420297E+02  0.87654948367E+02  0.16937591465E+04  0.16969083915E+04  0.00000000000E+00 0. -1.
         22    1    3    3    0    0  0.44506723106E+02 -0.10652198511E+03  0.14563965843E+03  0.18584588190E+03  0.00000000000E+00 0. -1.
         22    1    3    3    0    0 -0.24221263791E+02 -0.13399612776E+02  0.19391862104E+03  0.19588427918E+03  0.00000000000E+00 0. -1.
</event>
<event>
 7    1  0.6507405E-006  0.1033368E+03  0.7818608E-02  0.1383589E+00
          2   -1    0    0  502    0  0.00000000000E+00  0.00000000000E+00  0.71240056703E+03  0.71240056703E+03  0.00000000000E+00 0. -1.
          1   -1    0    0  501    0 -0.00000000000E+00 -0.00000000000E+00 -0.43823873543E+02  0.43823873543E+02  0.00000000000E+00 0. -1.
         25    2    1    2    0    0 -0.64394271100E+02 -0.56760451504E+02  0.25321144739E+03  0.29514300532E+03  0.12499994197E+03 0.  0.
          2    1    1    2  501    0  0.10282366621E+03  0.49786278800E+02  0.13003713210E+03  0.17309256371E+03  0.00000000000E+00 0. -1.
          1    1    1    2  502    0 -0.38429395106E+02  0.69741727045E+01  0.28532811400E+03  0.28798887154E+03  0.00000000000E+00 0. -1.
         22    1    3    3    0    0 -0.96953317413E+02 -0.15742717483E+02  0.14815610745E+03  0.17775829400E+03  0.00000000000E+00 0.  1.
         22    1    3    3    0    0  0.32559046313E+02 -0.41017734021E+02  0.10505533994E+03  0.11738471132E+03  0.00000000000E+00 0.  1.
</event>
<event>
 7    1  0.6507405E-006  0.1098990E+03  0.7818608E-02  0.1430788E+00
          2   -1    0    0  502    0  0.00000000000E+00  0.00000000000E+00  0.34604139502E+03  0.34604139502E+03  0.00000000000E+00 0. -1.
          1   -1    0    0  501    0 -0.00000000000E+00 -0.00000000000E+00 -0.23045145575E+04  0.23045145575E+04  0.00000000000E+00 0. -1.
         25    2    1    2    0    0  0.84404487443E+02  0.89048770360E+01  0.84261557298E+02  0.17300013207E+03  0.12500248526E+03 0.  0.
          2    1    1    2  501    0 -0.10977151933E+03 -0.92482901289E+01 -0.22580578330E+04  0.22607433500E+04  0.00000000000E+00 0. -1.
          1    1    1    2  502    0  0.25367031885E+02  0.34341309284E+00  0.21532311325E+03  0.21681247044E+03  0.00000000000E+00 0. -1.
         22    1    3    3    0    0  0.42940867825E+02  0.67034265350E+02  0.41568491798E+02  0.89807852502E+02  0.00000000000E+00 0. -1.
         22    1    3    3    0    0  0.41463619618E+02 -0.58129388314E+02  0.42693065501E+02  0.83192279566E+02  0.00000000000E+00 0. -1.
</event>
<event>
 7    1  0.6507405E-006  0.5592513E+02  0.7818608E-02  0.1444440E+00
          2   -1    0    0  502    0  0.00000000000E+00  0.00000000000E+00  0.53835680767E+02  0.53835680767E+02  0.00000000000E+00 0. -1.
          1   -1    0    0  501    0 -0.00000000000E+00 -0.00000000000E+00 -0.33101996916E+04  0.33101996916E+04  0.00000000000E+00 0. -1.
         25    2    1    2    0    0  0.30491636580E+02  0.28274698278E+02 -0.12455028538E+03  0.18129434450E+03  0.12500266914E+03 0.  0.
          2    1    1    2  501    0 -0.29429374908E+02  0.34046353561E+02 -0.31187272921E+04  0.31190519657E+04  0.00000000000E+00 0. -1.
          1    1    1    2  502    0 -0.10622616721E+01 -0.62321051839E+02 -0.13086433358E+02  0.63689062171E+02  0.00000000000E+00 0. -1.
         22    1    3    3    0    0 -0.46468127154E+02  0.46048872451E+01 -0.69599524139E+02  0.83812800861E+02  0.00000000000E+00 0. -1.
         22    1    3    3    0    0  0.76959763734E+02  0.23669811033E+02 -0.54950761246E+02  0.97481543637E+02  0.00000000000E+00 0. -1.
</event>
<event>
 7    1  0.6507405E-006  0.1306766E+03  0.7818608E-02  0.1290856E+00
          2   -1    0    0  502    0  0.00000000000E+00  0.00000000000E+00  0.22904761557E+04  0.22904761557E+04  0.00000000000E+00 0. -1.
          1   -1    0    0  501    0 -0.00000000000E+00 -0.00000000000E+00 -0.73493612727E+03  0.73493612727E+03  0.00000000000E+00 0. -1.
         25    2    1    2    0    0 -0.10098170180E+03 -0.94362520978E+02  0.69858526025E+01  0.18648203307E+03  0.12500062822E+03 0.  0.
          2    1    1    2  501    0 -0.26361149841E+02  0.64058554977E+02 -0.64136876007E+03  0.64509867081E+03  0.00000000000E+00 0. -1.
          1    1    1    2  502    0  0.12734285164E+03  0.30303966001E+02  0.21899229359E+04  0.21938315791E+04  0.00000000000E+00 0. -1.
         22    1    3    3    0    0 -0.59844907812E+02  0.17526631660E+02  0.22439039632E+02  0.66272968154E+02  0.00000000000E+00 0. -1.
         22    1    3    3    0    0 -0.41136793986E+02 -0.11188915264E+03 -0.15453187029E+02  0.12020906491E+03  0.00000000000E+00 0. -1.
</event>
<event>
 7    1  0.6507405E-006  0.9512926E+02  0.7818608E-02  0.1294198E+00
          2   -1    0    0  502    0  0.00000000000E+00  0.00000000000E+00  0.22581844427E+04  0.22581844427E+04  0.00000000000E+00 0. -1.
          1   -1    0    0  501    0 -0.00000000000E+00 -0.00000000000E+00 -0.17346340645E+04  0.17346340645E+04  0.00000000000E+00 0. -1.
         25    2    1    2    0    0 -0.75489243936E+02 -0.94369140859E+02  0.15521348536E+04  0.15618426524E+04  0.12500282541E+03 0.  0.
          2    1    1    2  501    0 -0.16743238206E+02  0.93657462912E+02 -0.17254307625E+04  0.17280519010E+04  0.00000000000E+00 0. -1.
          1    1    1    2  502    0  0.92232482142E+02  0.71167794763E+00  0.69684628694E+03  0.70292395383E+03  0.00000000000E+00 0. -1.
         22    1    3    3    0    0  0.19130187764E+02 -0.70634996814E+02  0.52303384952E+03  0.52812846411E+03  0.00000000000E+00 0.  1.
         22    1    3    3    0    0 -0.94619431700E+02 -0.23734144046E+02  0.10291010041E+04  0.10337141883E+04  0.00000000000E+00 0.  1.
</event>
<event>
 7    1  0.6507405E-006  0.1173687E+03  0.7818608E-02  0.1342439E+00
          2   -1    0    0  502    0  0.00000000000E+00  0.00000000000E+00  0.29056131999E+02  0.29056131999E+02  0.00000000000E+00 0. -1.
          1   -1    0    0  501    0 -0.00000000000E+00 -0.00000000000E+00 -0.17117949962E+04  0.17117949962E+04  0.00000000000E+00 0. -1.
         25    2    1    2    0    0  0.74606856538E+02 -0.18564754545E+02 -0.10537275387E+04  0.10638974625E+04  0.12500100709E+03 0.  0.
          2    1    1    2  501    0  0.48387562424E+02  0.35986816699E+01 -0.48311215604E+03  0.48554264697E+03  0.00000000000E+00 0. -1.
          1    1    1    2  502    0 -0.12299441896E+03  0.14966072875E+02 -0.14589916940E+03  0.19141101866E+03  0.00000000000E+00 0. -1.
         22    1    3    3    0    0  0.93191326109E+02 -0.43380261331E+02 -0.57125166413E+03  0.58042651051E+03  0.00000000000E+00 0.  1.
         22    1    3    3    0    0 -0.18584469571E+02  0.24815506786E+02 -0.48247587458E+03  0.48347095201E+03  0.00000000000E+00 0.  1.
</event>
<event>
 7    1  0.6507405E-006  0.1261852E+03  0.7818608E-02  0.1269250E+00
          2   -1    0    0  502    0  0.00000000000E+00  0.00000000000E+00  0.69993459872E+03  0.69993459872E+03  0.00000000000E+00 0. -1.
          1   -1    0    0  501    0 -0.00000000000E+00 -0.00000000000E+00 -0.24484268678E+03  0.24484268678E+03  0.00000000000E+00 0. -1.
         25    2    1    2    0    0  0.20422860465E+01 -0.62393714927E+02  0.50675223382E+02  0.14862596121E+03  0.12499820594E+03 0.  0.
          2    1    1    2  501    0 -0.52865829840E+02  0.13436772921E+03 -0.16540153191E+03  0.21956126566E+03  0.00000000000E+00 0. -1.
          1    1    1    2  502    0  0.50823543793E+02 -0.71974014280E+02  0.56981822047E+03  0.57659005864E+03  0.00000000000E+00 0. -1.
         22    1    3    3    0    0 -0.57056085039E+02 -0.55055121753E+02  0.20647313315E+02  0.81931525180E+02  0.00000000000E+00 0. -1.
         22    1    3    3    0    0  0.59098371086E+02 -0.73385931743E+01  0.30027910067E+02  0.66694436033E+02  0.00000000000E+00 0. -1.
</event>
<event>
 7    1  0.6507405E-006  0.5997647E+02  0.7818608E-02  0.1406091E+00
          2   -1    0    0  502    0  0.00000000000E+00  0.00000000000E+00  0.77264931544E+03  0.77264931544E+03  0.00000000000E+00 0. -1.
          1   -1    0    0  501    0 -0.00000000000E+00 -0.00000000000E+00 -0.67029090879E+02  0.67029090879E+02  0.00000000000E+00 0. -1.
         25    2    1    2    0    0  0.74079971386E+02 -0.40411456825E+02  0.26468040766E+03  0.30462965274E+03  0.12499031614E+03 0.  0.
          2    1    1    2  501    0 -0.58102047509E+02 -0.13505308677E+02 -0.25758322659E+02  0.64974860319E+02  0.00000000000E+00 0. -1.
          1    1    1    2  502    0 -0.15977923877E+02  0.53916765502E+02  0.46669813957E+03  0.47007389326E+03  0.00000000000E+00 0. -1.
         22    1    3    3    0    0  0.10424807702E+03 -0.93651038769E+01  0.15825336137E+03  0.18973532385E+03  0.00000000000E+00 0. -1.
         22    1    3    3    0    0 -0.30168105633E+02 -0.31046352948E+02  0.10642704629E+03  0.11489432889E+03  0.00000000000E+00 0. -1.
</event>
<event>
 7    1  0.6507405E-006  0.7141512E+02  0.7818608E-02  0.1390700E+00
          2   -1    0    0  502    0  0.00000000000E+00  0.00000000000E+00  0.15895705861E+03  0.15895705861E+03  0.00000000000E+00 0. -1.
          1   -1    0    0  501    0 -0.00000000000E+00 -0.00000000000E+00 -0.12863540322E+04  0.12863540322E+04  0.00000000000E+00 0. -1.
         25    2    1    2    0    0  0.45275096489E+02 -0.10234860686E+03  0.51257542398E+02  0.17542623176E+03  0.12498782120E+03 0.  0.
          2    1    1    2  501    0 -0.17431681173E+02  0.50435874382E+02 -0.12044105086E+04  0.12055921011E+04  0.00000000000E+00 0. -1.
          1    1    1    2  502    0 -0.27843415316E+02  0.51912732479E+02  0.25755992635E+02  0.64292757963E+02  0.00000000000E+00 0. -1.
         22    1    3    3    0    0 -0.16692882976E+02 -0.73089931808E+02 -0.18937884926E+02  0.77326799747E+02  0.00000000000E+00 0.  1.
         22    1    3    3    0    0  0.61967979464E+02 -0.29258675054E+02  0.70195427323E+02  0.98099432016E+02  0.00000000000E+00 0.  1.
</event>
<event>
 7    1  0.6507405E-006  0.6361453E+02  0.7818608E-02  0.1495801E+00
          2   -1    0    0  502    0  0.00000000000E+00  0.00000000000E+00  0.13579267411E+04  0.13579267411E+04  0.00000000000E+00 0. -1.
          1   -1    0    0  501    0 -0.00000000000E+00 -0.00000000000E+00 -0.26908125666E+02  0.26908125666E+02  0.00000000000E+00 0. -1.
         25    2    1    2    0    0 -0.14302839792E+02 -0.55776652243E+02  0.45720068572E+03  0.47746524712E+03  0.12499995610E+03 0.  0.
          2    1    1    2  501    0 -0.26814221603E+02  0.55567837187E+01 -0.35421323737E+01  0.27612081182E+02  0.00000000000E+00 0. -1.
          1    1    1    2  502    0  0.41117061395E+02  0.50219868525E+02  0.87736006210E+03  0.87975753848E+03  0.00000000000E+00 0. -1.
         22    1    3    3    0    0 -0.17713171562E+02  0.31664015910E+02  0.24889502069E+03  0.25152554080E+03  0.00000000000E+00 0.  1.
         22    1    3    3    0    0  0.34103317695E+01 -0.87440668153E+02  0.20830566503E+03  0.22593970632E+03  0.00000000000E+00 0.  1.
</event>
<event>
 7    1  0.6507405E-006  0.1095867E+03  0.7818608E-02  0.1298737E+00
          2   -1    0    0  502    0  0.00000000000E+00  0.00000000000E+00  0.86266741489E+03  0.86266741489E+03  0.00000000000E+00 0. -1.
          1   -1    0    0  501    0 -0.00000000000E+00 -0.00000000000E+00 -0.62709191686E+03  0.62709191686E+03  0.00000000000E+00 0. -1.
         25    2    1    2    0    0  0.83265721505E+02  0.73955275860E+01 -0.15591695883E+03  0.21661611447E+03  0.12499827516E+03 0.  0.
          2    1    1    2  501    0 -0.10060156451E+03  0.67389576771E+02 -0.43068831751E+03  0.44738624999E+03  0.00000000000E+00 0. -1.
          1    1    1    2  502    0  0.17335843002E+02 -0.74785104357E+02  0.82218077437E+03  0.82575696729E+03  0.00000000000E+00 0. -1.
         22    1    3    3    0    0  0.17610441076E+02  0.53601300459E+02 -0.22162998420E+02  0.60617040053E+02  0.00000000000E+00 0. -1.
         22    1    3    3    0    0  0.65655280429E+02 -0.46205772873E+02 -0.13375396041E+03  0.15599907442E+03  0.00000000000E+00 0. -1.
</event>
<event>
 7    1  0.6507405E-006  0.5617922E+02  0.7818608E-02  0.1527877E+00
          2   -1    0    0  502    0  0.00000000000E+00  0.00000000000E+00  0.21040582555E+04  0.21040582555E+04  0.00000000000E+00 0. -1.
          1   -1    0    0  501    0 -0.00000000000E+00 -0.00000000000E+00 -0.34445136521E+02  0.34445136521E+02  0.00000000000E+00 0. -1.
         25    2    1    2    0    0  0.33404130612E+02  0.70897911419E+01  0.35987738412E+03  0.38249590281E+03  0.12500113192E+03 0.  0.
          2    1    1    2  501    0 -0.58230736809E+02 -0.44907200338E+01  0.13961084475E+02  0.60049122853E+02  0.00000000000E+00 0. -1.
          1    1    1    2  502    0  0.24826606197E+02 -0.25990711081E+01  0.16957746503E+04  0.16959583663E+04  0.00000000000E+00 0. -1.
         22    1    3    3    0    0  0.55974527226E+02 -0.20435787378E+02  0.33193900145E+03  0.33724511826E+03  0.00000000000E+00 0.  1.
         22    1    3    3    0    0 -0.22570396614E+02  0.27525578520E+02  0.27938382667E+02  0.45250784548E+02  0.00000000000E+00 0.  1.
</event>
<event>
 7    1  0.6507405E-006  0.1000712E+03  0.7818608E-02  0.1471293E+00
          2   -1    0    0  502    0  0.00000000000E+00  0.00000000000E+00  0.17196078301E+04  0.17196078301E+04  0.00000000000E+00 0. -1.
          1   -1    0    0  501    0 -0.00000000000E+00 -0.00000000000E+00 -0.87766747143E+02  0.87766747143E+02  0.00000000000E+00 0. -1.
         25    2    1    2    0    0  0.21315588855E+02 -0.78419348785E+02  0.38016054718E+03  0.40835121480E+03  0.12499889760E+03 0.  0.
          2    1    1    2  501    0 -0.23634079447E+02  0.98969459928E+02 -0.38414844971E+02  0.10876223620E+03  0.00000000000E+00 0. -1.
          1    1    1    2  502    0  0.23184905924E+01 -0.20550111143E+02  0.12900953807E+04  0.12902611262E+04  0.00000000000E+00 0. -1.
         22    1    3    3    0    0  0.36899700567E+02 -0.61144492566E+02  0.79796366568E+02  0.10708733347E+03  0.00000000000E+00 0. -1.
         22    1    3    3    0    0 -0.15584111711E+02 -0.17274856219E+02  0.30036418061E+03  0.30126388132E+03  0.00000000000E+00 0. -1.
</event>
<event>
 7    1  0.6507405E-006  0.1318018E+03  0.7818608E-02  0.1267612E+00
          2   -1    0    0  502    0  0.00000000000E+00  0.00000000000E+00  0.92608337051E+03  0.92608337051E+03  0.00000000000E+00 0. -1.
          1   -1    0    0  501    0 -0.00000000000E+00 -0.00000000000E+00 -0.76013988432E+03  0.76013988432E+03  0.00000000000E+00 0. -1.
         25    2    1    2    0    0 -0.10714012127E+03  0.83698386194E+01  0.30535808537E+03  0.34702078484E+03  0.12502321794E+03 0.  0.
          2    1    1    2  501    0 -0.89637699894E+01  0.85234923941E+02 -0.72748485223E+03  0.73251590540E+03  0.00000000000E+00 0. -1.
          1    1    1    2  502    0  0.11610389126E+03 -0.93604762560E+02  0.58807025305E+03  0.60668656459E+03  0.00000000000E+00 0. -1.
         22    1    3    3    0    0 -0.66998070986E+02  0.17348837030E+02  0.43045001609E+02  0.81502121602E+02  0.00000000000E+00 0. -1.
         22    1    3    3    0    0 -0.40142050280E+02 -0.89789984110E+01  0.26231308377E+03  0.26551866324E+03  0.00000000000E+00 0. -1.
</event>
<event>
 7    1  0.6507405E-006  0.5499502E+02  0.7818608E-02  0.1526765E+00
          2   -1    0    0  502    0  0.00000000000E+00  0.00000000000E+00  0.33949121008E+04  0.33949121008E+04  0.00000000000E+00 0. -1.
          1   -1    0    0  501    0 -0.00000000000E+00 -0.00000000000E+00 -0.93190797236E+02  0.93190797236E+02  0.00000000000E+00 0. -1.
         25    2    1    2    0    0  0.32845324715E+02  0.59443123306E+02  0.22093895063E+02  0.14396321652E+03  0.12499986899E+03 0.  0.
          2    1    1    2  501    0 -0.25193938368E+02 -0.50149969884E+01 -0.26876857521E+02  0.37178625519E+02  0.00000000000E+00 0. -1.
          1    1    1    2  502    0 -0.76513863466E+01 -0.54428126317E+02  0.33065042660E+04  0.33069610560E+04  0.00000000000E+00 0. -1.
         22    1    3    3    0    0 -0.39242437134E+02 -0.63681688542E+01 -0.10387497319E+02  0.41090419167E+02  0.00000000000E+00 0. -1.
         22    1    3    3    0    0  0.72087761849E+02  0.65811292160E+02  0.32481392382E+02  0.10287279735E+03  0.00000000000E+00 0. -1.
</event>
<event>
 7    1  0.6507405E-006  0.4784866E+03  0.7818608E-02  0.1274643E+00
          2   -1    0    0  502    0  0.00000000000E+00  0.00000000000E+00  0.51430011135E+03  0.51430011135E+03  0.00000000000E+00 0. -1.
          1   -1    0    0  501    0 -0.00000000000E+00 -0.00000000000E+00 -0.95148340520E+03  0.95148340520E+03  0.00000000000E+00 0. -1.
         25    2    1    2    0    0  0.46481996670E+02 -0.48456099238E+03 -0.48105297556E+03  0.69569917157E+03  0.12500176272E+03 0.  0.
          2    1    1    2  501    0 -0.20275494371E+02  0.86892893038E+01 -0.22284665395E+03  0.22393577338E+03  0.00000000000E+00 0. -1.
          1    1    1    2  502    0 -0.26206502299E+02  0.47587170308E+03  0.26671633567E+03  0.54614857160E+03  0.00000000000E+00 0. -1.
         22    1    3    3    0    0 -0.27414526322E+01  0.60381389095E+01 -0.18423012359E+02  0.19580144750E+02  0.00000000000E+00 0.  1.
         22    1    3    3    0    0  0.49223449302E+02 -0.49059913129E+03 -0.46262996320E+03  0.67611902682E+03  0.00000000000E+00 0.  1.
</event>
<event>
 7    1  0.6507405E-006  0.5590087E+02  0.7818608E-02  0.1483664E+00
          2   -1    0    0  502    0  0.00000000000E+00  0.00000000000E+00  0.10843519528E+03  0.10843519528E+03  0.00000000000E+00 0. -1.
          1   -1    0    0  501    0 -0.00000000000E+00 -0.00000000000E+00 -0.12632954086E+04  0.12632954086E+04  0.00000000000E+00 0. -1.
         25    2    1    2    0    0  0.57541675608E+02  0.13774573454E+02 -0.38973949961E+01  0.13835541899E+03  0.12500499578E+03 0.  0.
          2    1    1    2  501    0 -0.52370369185E+02  0.19742139597E+02 -0.11844166859E+04  0.11857382904E+04  0.00000000000E+00 0. -1.
          1    1    1    2  502    0 -0.51713064231E+01 -0.33516713051E+02  0.33453867517E+02  0.47636894481E+02  0.00000000000E+00 0. -1.
         22    1    3    3    0    0  0.89481750883E+02  0.36154609372E+02  0.98311455768E+01  0.97009231227E+02  0.00000000000E+00 0.  1.
         22    1    3    3    0    0 -0.31940075275E+02 -0.22380035918E+02 -0.13728540573E+02  0.41346187763E+02  0.00000000000E+00 0.  1.
</event>
<event>
 7    1  0.8540460E-006  0.4568734E+02  0.7818608E-02  0.1488812E+00
          2   -1    0    0  502    0  0.00000000000E+00  0.00000000000E+00  0.94463549165E+03  0.94463549165E+03  0.00000000000E+00 0. -1.
          1   -1    0    0  501    0 -0.00000000000E+00 -0.00000000000E+00 -0.94892080431E+03  0.94892080431E+03  0.00000000000E+00 0. -1.
         25    2    1    2    0    0  0.10939235157E+02  0.69763058147E+00 -0.11533971537E+03  0.17043718825E+03  0.12500172655E+03 0.  0.
          2    1    1    2  501    0  0.14975992321E+02  0.37118058525E+02 -0.80496189227E+03  0.80595637514E+03  0.00000000000E+00 0. -1.
          1    1    1    2  502    0 -0.25915227478E+02 -0.37815689107E+02  0.91601629498E+03  0.91716273258E+03  0.00000000000E+00 0. -1.
         22    1    3    3    0    0 -0.27558690688E+02  0.48345234987E+02 -0.24335267219E+02  0.60736713848E+02  0.00000000000E+00 0. -1.
         22    1    3    3    0    0  0.38497925845E+02 -0.47647604405E+02 -0.91004448154E+02  0.10970047440E+03  0.00000000000E+00 0. -1.
</event>
<event>
 7    1  0.6507405E-006  0.3701381E+02  0.7818608E-02  0.1593968E+00
          2   -1    0    0  502    0  0.00000000000E+00  0.00000000000E+00  0.77374288926E+02  0.77374288926E+02  0.00000000000E+00 0. -1.
          1   -1    0    0  501    0 -0.00000000000E+00 -0.00000000000E+00 -0.21146522982E+03  0.21146522982E+03  0.00000000000E+00 0. -1.
         25    2    1    2    0    0 -0.24860763573E+02  0.35757163534E+02 -0.59672920958E+02  0.14519668139E+03  0.12499834592E+03 0.  0.
          2    1    1    2  501    0  0.34757524910E+02 -0.12877083974E+02 -0.10076823543E+03  0.10736918600E+03  0.00000000000E+00 0. -1.
          1    1    1    2  502    0 -0.98967613377E+01 -0.22880079560E+02  0.26350215500E+02  0.36273651354E+02  0.00000000000E+00 0. -1.
         22    1    3    3    0    0 -0.68793008907E+02 -0.70213640281E+01 -0.19347350297E+02  0.71805971832E+02  0.00000000000E+00 0.  1.
         22    1    3    3    0    0  0.43932245334E+02  0.42778527562E+02 -0.40325570661E+02  0.73390709559E+02  0.00000000000E+00 0.  1.
</event>
<event>
 7    1  0.6507405E-006  0.1527929E+03  0.7818608E-02  0.1264324E+00
          2   -1    0    0  502    0  0.00000000000E+00  0.00000000000E+00  0.24587331589E+03  0.24587331589E+03  0.00000000000E+00 0. -1.
          1   -1    0    0  501    0 -0.00000000000E+00 -0.00000000000E+00 -0.78252298973E+03  0.78252298973E+03  0.00000000000E+00 0. -1.
         25    2    1    2    0    0 -0.96597193274E+02  0.83988288950E+02 -0.10884656120E+03  0.20941868891E+03  0.12499425167E+03 0.  0.
          2    1    1    2  501    0  0.57942483304E+02 -0.14981259485E+03 -0.60504119383E+03  0.62599999295E+03  0.00000000000E+00 0. -1.
          1    1    1    2  502    0  0.38654709970E+02  0.65824305896E+02  0.17723808119E+03  0.19297762376E+03  0.00000000000E+00 0. -1.
         22    1    3    3    0    0  0.25109690502E+02  0.44151394614E+02 -0.28549409880E+02  0.58265864861E+02  0.00000000000E+00 0.  1.
         22    1    3    3    0    0 -0.12170688378E+03  0.39836894336E+02 -0.80297151318E+02  0.15115282405E+03  0.00000000000E+00 0.  1.
</event>
<event>
 7    1  0.6507405E-006  0.8969298E+02  0.7818608E-02  0.1408114E+00
          2   -1    0    0  502    0  0.00000000000E+00  0.00000000000E+00  0.14940411541E+04  0.14940411541E+04  0.00000000000E+00 0. -1.
          1   -1    0    0  501    0 -0.00000000000E+00 -0.00000000000E+00 -0.78977048791E+02  0.78977048791E+02  0.00000000000E+00 0. -1.
         25    2    1    2    0    0 -0.91106466027E+02  0.47991598550E+00  0.90648197247E+02  0.17928204431E+03  0.12499734907E+03 0.  0.
          2    1    1    2  501    0  0.89125842450E+01  0.35922526999E+02 -0.22835295489E+02  0.43489226528E+02  0.00000000000E+00 0. -1.
          1    1    1    2  502    0  0.82193881782E+02 -0.36402442985E+02  0.13472512036E+04  0.13502469321E+04  0.00000000000E+00 0. -1.
         22    1    3    3    0    0 -0.86073852882E+02 -0.42985442053E+02  0.23339206535E+02  0.99000883532E+02  0.00000000000E+00 0.  1.
         22    1    3    3    0    0 -0.50326131456E+01  0.43465358039E+02  0.67308990712E+02  0.80281160774E+02  0.00000000000E+00 0.  1.
</event>
<event>
 7    1  0.6507405E-006  0.2902061E+03  0.7818608E-02  0.1199935E+00
          2   -1    0    0  502    0  0.00000000000E+00  0.00000000000E+00  0.27663712205E+04  0.27663712205E+04  0.00000000000E+00 0. -1.
          1   -1    0    0  501    0 -0.00000000000E+00 -0.00000000000E+00 -0.85098782811E+03  0.85098782811E+03  0.00000000000E+00 0. -1.
         25    2    1    2    0    0  0.21028518526E+03  0.56768762140E+02 -0.22302181863E+03  0.33586670039E+03  0.12500062941E+03 0.  0.
          2    1    1    2  501    0  0.77688011740E+02 -0.68069388051E+01 -0.56095758976E+03  0.56635252193E+03  0.00000000000E+00 0. -1.
          1    1    1    2  502    0 -0.28797319700E+03 -0.49961823334E+02  0.26993628008E+04  0.27151398263E+04  0.00000000000E+00 0. -1.
         22    1    3    3    0    0  0.52058084967E+02  0.29299430718E+02 -0.14601965715E+03  0.15776641317E+03  0.00000000000E+00 0.  1.
         22    1    3    3    0    0  0.15822710029E+03  0.27469331422E+02 -0.77002161476E+02  0.17810028722E+03  0.00000000000E+00 0.  1.
</event>
<event>
 7    1  0.6507405E-006  0.9925925E+02  0.7818608E-02  0.1366254E+00
          2   -1    0    0  502    0  0.00000000000E+00  0.00000000000E+00  0.47132226467E+02  0.47132226467E+02  0.00000000000E+00 0. -1.
          1   -1    0    0  501    0 -0.00000000000E+00 -0.00000000000E+00 -0.18542091191E+04  0.18542091191E+04  0.00000000000E+00 0. -1.
         25    2    1    2    0    0 -0.64742634976E+02 -0.56502090413E+02 -0.55140779883E+03  0.57188976007E+03  0.12499296803E+03 0.  0.
          2    1    1    2  501    0  0.39274546064E+02  0.95868556731E+02 -0.12746612683E+04  0.12788645820E+04  0.00000000000E+00 0. -1.
          1    1    1    2  502    0  0.25468088912E+02 -0.39366466318E+02  0.18992174566E+02  0.50587003449E+02  0.00000000000E+00 0. -1.
         22    1    3    3    0    0 -0.65587224519E+02 -0.40039041640E+02 -0.13640991317E+03  0.15656459781E+03  0.00000000000E+00 0. -1.
         22    1    3    3    0    0  0.84458954292E+00 -0.16463048773E+02 -0.41499788566E+03  0.41532516226E+03  0.00000000000E+00 0. -1.
</event>
<event>
 7    1  0.6507405E-006  0.1368860E+03  0.7818608E-02  0.1335833E+00
          2   -1    0    0  502    0  0.00000000000E+00  0.00000000000E+00  0.73422895406E+03  0.73422895406E+03  0.00000000000E+00 0. -1.
          1   -1    0    0  501    0 -0.00000000000E+00 -0.00000000000E+00 -0.26058542773E+03  0.26058542773E+03  0.00000000000E+00 0. -1.
         25    2    1    2    0    0  0.85993175457E+02  0.38406900325E+02  0.60452380854E+03  0.62445453625E+03  0.12499806616E+03 0.  0.
          2    1    1    2  501    0 -0.12618273005E+03 -0.56456522836E+02 -0.22634487207E+03  0.26521957214E+03  0.00000000000E+00 0. -1.
          1    1    1    2  502    0  0.40189554596E+02  0.18049622510E+02  0.95464589867E+02  0.10514027340E+03  0.00000000000E+00 0. -1.
         22    1    3    3    0    0  0.10037478377E+03  0.66756902440E+02  0.41013917984E+03  0.42748769348E+03  0.00000000000E+00 0. -1.
         22    1    3    3    0    0 -0.14381608311E+02 -0.28350002114E+02  0.19438462870E+03  0.19696684277E+03  0.00000000000E+00 0. -1.
</event>
<event>
 7    1  0.1248093E-005  0.9330437E+02  0.7818608E-02  0.1315472E+00
          2   -1    0    0  502    0  0.00000000000E+00  0.00000000000E+00  0.90914604475E+03  0.90914604475E+03  0.00000000000E+00 0. -1.
          1   -1    0    0  501    0 -0.00000000000E+00 -0.00000000000E+00 -0.10093496831E+04  0.10093496831E+04  0.00000000000E+00 0. -1.
         25    2    1    2    0    0 -0.64000056742E+01 -0.16353778816E+02 -0.33830357827E+03  0.36108419651E+03  0.12499631891E+03 0.  0.
          2    1    1    2  501    0 -0.53938619993E+02 -0.55519927657E+02 -0.65491785123E+03  0.65947648097E+03  0.00000000000E+00 0. -1.
          1    1    1    2  502    0  0.60338625667E+02  0.71873706473E+02  0.89301779113E+03  0.89793505038E+03  0.00000000000E+00 0. -1.
         22    1    3    3    0    0  0.27286326964E+02  0.28603565235E+02 -0.26891657186E+03  0.27180660442E+03  0.00000000000E+00 0.  1.
         22    1    3    3    0    0 -0.33686332639E+02 -0.44957344051E+02 -0.69387006414E+02  0.89277592092E+02  0.00000000000E+00 0.  1.
</event>
<event>
 7    1  0.6507405E-006  0.1004180E+03  0.7818608E-02  0.1295244E+00
          2   -1    0    0  502    0  0.00000000000E+00  0.00000000000E+00  0.17513557657E+04  0.17513557657E+04  0.00000000000E+00 0. -1.
          1   -1    0    0  501    0 -0.00000000000E+00 -0.00000000000E+00 -0.76738600297E+03  0.76738600297E+03  0.00000000000E+00 0. -1.
         25    2    1    2    0    0 -0.15005284066E+03 -0.48182769709E+02  0.10937001115E+03  0.22895997543E+03  0.12499374673E+03 0.  0.
          2    1    1    2  501    0  0.67303191915E+02  0.73484350595E+02 -0.70289111442E+03  0.70991942370E+03  0.00000000000E+00 0. -1.
          1    1    1    2  502    0  0.82749648743E+02 -0.25301580886E+02  0.15774908660E+04  0.15798623695E+04  0.00000000000E+00 0. -1.
         22    1    3    3    0    0 -0.16163307569E+03 -0.28720224710E+02  0.12058023850E+03  0.20369019707E+03  0.00000000000E+00 0.  1.
         22    1    3    3    0    0  0.11580235029E+02 -0.19462544998E+02 -0.11210227353E+02  0.25269778361E+02  0.00000000000E+00 0.  1.
</event>
<event>
 7    1  0.6507405E-006  0.3483625E+02  0.7818608E-02  0.1555437E+00
          2   -1    0    0  502    0  0.00000000000E+00  0.00000000000E+00  0.10395963451E+04  0.10395963451E+04  0.00000000000E+00 0. -1.
          1   -1    0    0  501    0 -0.00000000000E+00 -0.00000000000E+00 -0.53240241902E+02  0.53240241902E+02  0.00000000000E+00 0. -1.
         25    2    1    2    0    0 -0.11831380618E+02  0.15732485174E+02  0.52284865419E+03  0.53794290531E+03  0.12499744607E+03 0.  0.
          2    1    1    2  501    0  0.31848840957E+02  0.14114385021E+02 -0.38316053729E+02  0.51784983424E+02  0.00000000000E+00 0. -1.
          1    1    1    2  502    0 -0.20017460339E+02 -0.29846870194E+02  0.50182350276E+03  0.50310869829E+03  0.00000000000E+00 0. -1.
         22    1    3    3    0    0 -0.24456419808E+02  0.61765649837E+02  0.18154599735E+03  0.19331854832E+03  0.00000000000E+00 0. -1.
         22    1    3    3    0    0  0.12625039190E+02 -0.46033164664E+02  0.34130265684E+03  0.34462435699E+03  0.00000000000E+00 0. -1.
</event>
<event>
 7    1  0.6507405E-006  0.1241335E+03  0.7818608E-02  0.1348168E+00
          2   -1    0    0  502    0  0.00000000000E+00  0.00000000000E+00  0.45084247721E+03  0.45084247721E+03  0.00000000000E+00 0. -1.
          1   -1    0    0  501    0 -0.00000000000E+00 -0.00000000000E+00 -0.16448440137E+04  0.16448440137E+04  0.00000000000E+00 0. -1.
         25    2    1    2    0    0 -0.92818800779E+02 -0.43715133552E+02 -0.37437765568E+02  0.16599378042E+03  0.12500402461E+03 0.  0.
          2    1    1    2  501    0  0.12445695501E+03  0.13608778968E+02 -0.15393450547E+04  0.15444280268E+04  0.00000000000E+00 0. -1.
          1    1    1    2  502    0 -0.31638154235E+02  0.30106354584E+02  0.38278128372E+03  0.38526468376E+03  0.00000000000E+00 0. -1.
         22    1    3    3    0    0 -0.92260559916E+02  0.17077067436E+02 -0.46175273804E+02  0.10457434226E+03  0.00000000000E+00 0.  1.
         22    1    3    3    0    0 -0.55824086281E+00 -0.60792200987E+02  0.87375082365E+01  0.61419438160E+02  0.00000000000E+00 0.  1.
</event>
<event>
 7    1  0.6507405E-006  0.4543685E+02  0.7818608E-02  0.1576838E+00
          2   -1    0    0  502    0  0.00000000000E+00  0.00000000000E+00  0.14572056807E+04  0.14572056807E+04  0.00000000000E+00 0. -1.
          1   -1    0    0  501    0 -0.00000000000E+00 -0.00000000000E+00 -0.32679529520E+02  0.32679529520E+02  0.00000000000E+00 0. -1.
         25    2    1    2    0    0  0.13500514966E+02 -0.34198957011E+02  0.10485195193E+04  0.10565850653E+04  0.12500794066E+03 0.  0.
          2    1    1    2  501    0 -0.35411208971E+02  0.28840416989E+02 -0.99036565103E+01  0.46731207829E+02  0.00000000000E+00 0. -1.
          1    1    1    2  502    0  0.21910694004E+02  0.53585400219E+01  0.38591028839E+03  0.38656893713E+03  0.00000000000E+00 0. -1.
         22    1    3    3    0    0  0.29808733369E+02  0.37748506235E+02  0.61092992698E+03  0.61282043536E+03  0.00000000000E+00 0.  1.
         22    1    3    3    0    0 -0.16308218403E+02 -0.71947463246E+02  0.43758959231E+03  0.44376462991E+03  0.00000000000E+00 0.  1.
</event>
<event>
 7    1  0.6507405E-006  0.8924517E+02  0.7818608E-02  0.1488260E+00
          2   -1    0    0  502    0  0.00000000000E+00  0.00000000000E+00  0.13533639898E+04  0.13533639898E+04  0.00000000000E+00 0. -1.
          1   -1    0    0  501    0 -0.00000000000E+00 -0.00000000000E+00 -0.49070944540E+02  0.49070944540E+02  0.00000000000E+00 0. -1.
         25    2    1    2    0    0  0.69653682523E+01  0.85346961258E+02  0.43997906248E+03  0.46533725338E+03  0.12499825523E+03 0.  0.
          2    1    1    2  501    0 -0.27532915951E+02 -0.85620700918E+02  0.19493675276E+02  0.92027002897E+02  0.00000000000E+00 0. -1.
          1    1    1    2  502    0  0.20567547699E+02  0.27373965998E+00  0.84482030752E+03  0.84507067808E+03  0.00000000000E+00 0. -1.
         22    1    3    3    0    0 -0.47959840590E+02  0.40165616444E+02  0.31837351493E+03  0.32446127359E+03  0.00000000000E+00 0.  1.
         22    1    3    3    0    0  0.54925208842E+02  0.45181344815E+02  0.12160554756E+03  0.14087597979E+03  0.00000000000E+00 0.  1.
</event>
<event>
 7    1  0.6507405E-006  0.9451627E+02  0.7818608E-02  0.1410915E+00
          2   -1    0    0  502    0  0.00000000000E+00  0.00000000000E+00  0.29610046431E+03  0.29610046431E+03  0.00000000000E+00 0. -1.
          1   -1    0    0  501    0 -0.00000000000E+00 -0.00000000000E+00 -0.82322098472E+03  0.82322098472E+03  0.00000000000E+00 0. -1.
         25    2    1    2    0    0 -0.15077354787E+02  0.10105497476E+03 -0.29783471486E+03  0.33877736098E+03  0.12500059354E+03 0.  0.
          2    1    1    2  501    0  0.44220851789E+02 -0.82848346856E+02 -0.49945046694E+03  0.50820281506E+03  0.00000000000E+00 0. -1.
          1    1    1    2  502    0 -0.29143497002E+02 -0.18206627907E+02  0.27016466138E+03  0.27234127299E+03  0.00000000000E+00 0. -1.
         22    1    3    3    0    0  0.42100564127E+01  0.84600137428E+01  0.11743302153E+02  0.15073206460E+02  0.00000000000E+00 0. -1.
         22    1    3    3    0    0 -0.19287411199E+02  0.92594961020E+02 -0.30957801701E+03  0.32370415452E+03  0.00000000000E+00 0. -1.
</event>
<event>
 7    1  0.6507405E-006  0.1122618E+03  0.7818608E-02  0.1350243E+00
          2   -1    0    0  502    0  0.00000000000E+00  0.00000000000E+00  0.21569192503E+04  0.21569192503E+04  0.00000000000E+00 0. -1.
          1   -1    0    0  501    0 -0.00000000000E+00 -0.00000000000E+00 -0.37649283604E+04  0.37649283604E+04  0.00000000000E+00 0. -1.
         25    2    1    2    0    0  0.75950883714E+02 -0.12570082314E+03  0.26989836327E+03  0.33171634326E+03  0.12498548802E+03 0.  0.
          2    1    1    2  501    0 -0.80187021750E+02  0.78446979959E+02 -0.37328734780E+04  0.37345586473E+04  0.00000000000E+00 0. -1.
          1    1    1    2  502    0  0.42361380365E+01  0.47253843176E+02  0.18549660046E+04  0.18555726202E+04  0.00000000000E+00 0. -1.
         22    1    3    3    0    0  0.38840196815E+01 -0.69696969996E+02  0.21304120365E+03  0.22418587754E+03  0.00000000000E+00 0.  1.
         22    1    3    3    0    0  0.72066864032E+02 -0.56003853140E+02  0.56857159616E+02  0.10753046572E+03  0.00000000000E+00 0.  1.
</event>
<event>
 7    1  0.6507405E-006  0.8302361E+02  0.7818608E-02  0.1420014E+00
          2   -1    0    0  502    0  0.00000000000E+00  0.00000000000E+00  0.23463776939E+04  0.23463776939E+04  0.00000000000E+00 0. -1.
          1   -1    0    0  501    0 -0.00000000000E+00 -0.00000000000E+00 -0.14300807115E+04  0.14300807115E+04  0.00000000000E+00 0. -1.
         25    2    1    2    0    0 -0.76537979990E+02  0.87169678092E+02  0.15642431873E+03  0.23140972560E+03  0.12500111380E+03 0.  0.
          2    1    1    2  501    0  0.13894666193E+02 -0.33707825917E+02 -0.13915614066E+04  0.13920389462E+04  0.00000000000E+00 0. -1.
          1    1    1    2  502    0  0.62643313797E+02 -0.53461852175E+02  0.21514340702E+04  0.21530097336E+04  0.00000000000E+00 0. -1.
         22    1    3    3    0    0 -0.56326503235E+02 -0.19211360710E+02  0.75989224982E+02  0.96520016889E+02  0.00000000000E+00 0. -1.
         22    1    3    3    0    0 -0.20211476756E+02  0.10638103880E+03  0.80435093750E+02  0.13488970871E+03  0.00000000000E+00 0. -1.
</event>
<event>
 7    1  0.6507405E-006  0.2537916E+03  0.7818608E-02  0.1312430E+00
          2   -1    0    0  502    0  0.00000000000E+00  0.00000000000E+00  0.21679665864E+03  0.21679665864E+03  0.00000000000E+00 0. -1.
          1   -1    0    0  501    0 -0.00000000000E+00 -0.00000000000E+00 -0.12831852749E+04  0.12831852749E+04  0.00000000000E+00 0. -1.
         25    2    1    2    0    0  0.27265845008E+03  0.37599455055E+02 -0.32798340881E+03  0.44604481258E+03  0.12500603569E+03 0.  0.
          2    1    1    2  501    0 -0.24636406753E+03 -0.24787412296E+02 -0.87751799227E+03  0.91178259269E+03  0.00000000000E+00 0. -1.
          1    1    1    2  502    0 -0.26294382544E+02 -0.12812042759E+02  0.13911278485E+03  0.14215452825E+03  0.00000000000E+00 0. -1.
         22    1    3    3    0    0  0.22347944899E+03  0.74096000285E+02 -0.29169505958E+03  0.37485902572E+03  0.00000000000E+00 0. -1.
         22    1    3    3    0    0  0.49179001088E+02 -0.36496545230E+02 -0.36288349224E+02  0.71185786862E+02  0.00000000000E+00 0. -1.
</event>
<event>
 7    1  0.6507405E-006  0.7763350E+02  0.7818608E-02  0.1462654E+00
          2   -1    0    0  502    0  0.00000000000E+00  0.00000000000E+00  0.17366804325E+03  0.17366804325E+03  0.00000000000E+00 0. -1.
          1   -1    0    0  501    0 -0.00000000000E+00 -0.00000000000E+00 -0.20124875812E+03  0.20124875812E+03  0.00000000000E+00 0. -1.
         25    2    1    2    0    0 -0.82557275067E+02 -0.18087007766E+02 -0.86002868948E+02  0.17370491438E+03  0.12503623593E+03 0.  0.
          2    1    1    2  501    0  0.57553717802E+01  0.27776849567E+02 -0.56168017718E+02  0.62924747838E+02  0.00000000000E+00 0. -1.
          1    1    1    2  502    0  0.76801903286E+02 -0.96898418006E+01  0.11459017179E+03  0.13828713915E+03  0.00000000000E+00 0. -1.
         22    1    3    3    0    0 -0.10477744829E+03 -0.28971000222E+02 -0.97860281776E+02  0.14626779302E+03  0.00000000000E+00 0. -1.
         22    1    3    3    0    0  0.22220173225E+02  0.10883992456E+02  0.11857412828E+02  0.27437121366E+02  0.00000000000E+00 0. -1.
</event>
<event>
 7    1  0.6507405E-006  0.6045565E+02  0.7818608E-02  0.1409084E+00
          2   -1    0    0  502    0  0.00000000000E+00  0.00000000000E+00  0.21841144929E+04  0.21841144929E+04  0.00000000000E+00 0. -1.
          1   -1    0    0  501    0 -0.00000000000E+00 -0.00000000000E+00 -0.11136521376E+02  0.11136521376E+02  0.00000000000E+00 0. -1.
         25    2    1    2    0    0 -0.16265483110E+02 -0.45170938835E+01  0.63990003805E+03  0.65221284756E+03  0.12499827895E+03 0.  0.
          2    1    1    2  501    0  0.72668859700E+02 -0.17243982554E+02  0.32594770499E+03  0.33439501266E+03  0.00000000000E+00 0. -1.
          1    1    1    2  502    0 -0.56403376589E+02  0.21761076437E+02  0.12071302285E+04  0.12086431541E+04  0.00000000000E+00 0. -1.
         22    1    3    3    0    0 -0.61512282754E+02  0.22060523946E+02  0.46625028415E+03  0.47080755635E+03  0.00000000000E+00 0. -1.
         22    1    3    3    0    0  0.45246799644E+02 -0.26577617830E+02  0.17364975390E+03  0.18140529121E+03  0.00000000000E+00 0. -1.
</event>
<event>
 7    1  0.6507405E-006  0.1424889E+03  0.7818608E-02  0.1339381E+00
          2   -1    0    0  502    0  0.00000000000E+00  0.00000000000E+00  0.16396736295E+04  0.16396736295E+04  0.00000000000E+00 0. -1.
          1   -1    0    0  501    0 -0.00000000000E+00 -0.00000000000E+00 -0.50078107717E+02  0.50078107717E+02  0.00000000000E+00 0. -1.
         25    2    1    2    0    0 -0.36402323879E+02 -0.11639183060E+03  0.32901112971E+03  0.37248548531E+03  0.12499970350E+03 0.  0.
          2    1    1    2  501    0  0.27511248710E+02 -0.30451421428E+02 -0.66045250033E+01  0.41566544517E+02  0.00000000000E+00 0. -1.
          1    1    1    2  502    0  0.88910751688E+01  0.14684325203E+03  0.12671889171E+04  0.12756997074E+04  0.00000000000E+00 0. -1.
         22    1    3    3    0    0  0.29298920401E+02 -0.61066814082E+01  0.15486969867E+02  0.33698138378E+02  0.00000000000E+00 0. -1.
         22    1    3    3    0    0 -0.65701244281E+02 -0.11028514919E+03  0.31352415985E+03  0.33878734693E+03  0.00000000000E+00 0. -1.
</event>
<event>
 7    1  0.6507405E-006  0.7492985E+02  0.7818608E-02  0.1433592E+00
          2   -1    0    0  502    0  0.00000000000E+00  0.00000000000E+00  0.10320275416E+03  0.10320275416E+03  0.00000000000E+00 0. -1.
          1   -1    0    0  501    0 -0.00000000000E+00 -0.00000000000E+00 -0.61186542571E+03  0.61186542571E+03  0.00000000000E+00 0. -1.
         25    2    1    2    0    0 -0.11202320161E+02 -0.56040904949E+02 -0.33939891025E+02  0.14157495184E+03  0.12500190312E+03 0.  0.
          2    1    1    2  501    0  0.25382392280E+02 -0.26130515135E+02 -0.48773896802E+03  0.48909750621E+03  0.00000000000E+00 0. -1.
          1    1    1    2  502    0 -0.14180072119E+02  0.82171420084E+02  0.13016187493E+02  0.84395721815E+02  0.00000000000E+00 0. -1.
         22    1    3    3    0    0 -0.81044430197E+01 -0.96163077936E+02 -0.17366616122E+02  0.98054163146E+02  0.00000000000E+00 0.  1.
         22    1    3    3    0    0 -0.30978771414E+01  0.40122172986E+02 -0.16573274904E+02  0.43520788699E+02  0.00000000000E+00 0.  1.
</event>
<event>
 7    1  0.6507405E-006  0.1293425E+03  0.7818608E-02  0.1433111E+00
          2   -1    0    0  502    0  0.00000000000E+00  0.00000000000E+00  0.69167489987E+03  0.69167489987E+03  0.00000000000E+00 0. -1.
          1   -1    0    0  501    0 -0.00000000000E+00 -0.00000000000E+00 -0.83433762954E+03  0.83433762954E+03  0.00000000000E+00 0. -1.
         25    2    1    2    0    0  0.11612365409E+03 -0.21461271345E+00 -0.18943613189E+03  0.25492005390E+03  0.12495373831E+03 0.  0.
          2    1    1    2  501    0 -0.13159001853E+03 -0.14256130722E+02 -0.60483079385E+03  0.61914413461E+03  0.00000000000E+00 0. -1.
          1    1    1    2  502    0  0.15466364442E+02  0.14470743436E+02  0.65160419607E+03  0.65194834089E+03  0.00000000000E+00 0. -1.
         22    1    3    3    0    0  0.58154589369E+02 -0.32248015036E+02 -0.17489712610E+03  0.18711198640E+03  0.00000000000E+00 0.  1.
         22    1    3    3    0    0  0.57969064720E+02  0.32033402323E+02 -0.14539005796E+02  0.67808067503E+02  0.00000000000E+00 0.  1.
</event>
<event>
 7    1  0.6507405E-006  0.4906906E+02  0.7818608E-02  0.1454648E+00
          2   -1    0    0  502    0  0.00000000000E+00  0.00000000000E+00  0.13066716632E+04  0.13066716632E+04  0.00000000000E+00 0. -1.
          1   -1    0    0  501    0 -0.00000000000E+00 -0.00000000000E+00 -0.48659268912E+03  0.48659268912E+03  0.00000000000E+00 0. -1.
         25    2    1    2    0    0  0.60025413492E+02 -0.10929595467E+02 -0.31988630987E+03  0.34881956836E+03  0.12500133481E+03 0.  0.
          2    1    1    2  501    0 -0.25352968886E+02  0.43502086810E+02 -0.14762526023E+03  0.15597570980E+03  0.00000000000E+00 0. -1.
          1    1    1    2  502    0 -0.34672444606E+02 -0.32572491343E+02  0.12875905442E+04  0.12884690742E+04  0.00000000000E+00 0. -1.
         22    1    3    3    0    0  0.12308007755E+02 -0.42552684154E+02 -0.26775503989E+03  0.27139450873E+03  0.00000000000E+00 0. -1.
         22    1    3    3    0    0  0.47717405737E+02  0.31623088687E+02 -0.52131269982E+02  0.77425059627E+02  0.00000000000E+00 0. -1.
</event>
<event>
 7    1  0.6507405E-006  0.1959839E+03  0.7818608E-02  0.1282914E+00
          2   -1    0    0  502    0  0.00000000000E+00  0.00000000000E+00  0.31082824774E+04  0.31082824774E+04  0.00000000000E+00 0. -1.
          1   -1    0    0  501    0 -0.00000000000E+00 -0.00000000000E+00 -0.99826333273E+03  0.99826333273E+03  0.00000000000E+00 0. -1.
         25    2    1    2    0    0 -0.58197553914E+01  0.15054319535E+03  0.13485240016E+04  0.13626559854E+04  0.12496890930E+03 0.  0.
          2    1    1    2  501    0 -0.15025148294E+02 -0.19574039094E+03 -0.98111794683E+03  0.10005660804E+04  0.00000000000E+00 0. -1.
          1    1    1    2  502    0  0.20844903685E+02  0.45197195581E+02  0.17426130899E+04  0.17433237444E+04  0.00000000000E+00 0. -1.
         22    1    3    3    0    0 -0.64804297654E+02  0.67300066937E+02  0.68170482755E+03  0.68807729791E+03  0.00000000000E+00 0. -1.
         22    1    3    3    0    0  0.58984542262E+02  0.83243128417E+02  0.66681917408E+03  0.67457868746E+03  0.00000000000E+00 0. -1.
</event>
<event>
 7    1  0.6507405E-006  0.8990828E+02  0.7818608E-02  0.1346551E+00
          2   -1    0    0  502    0  0.00000000000E+00  0.00000000000E+00  0.22723409170E+03  0.22723409170E+03  0.00000000000E+00 0. -1.
          1   -1    0    0  501    0 -0.00000000000E+00 -0.00000000000E+00 -0.86476509316E+03  0.86476509316E+03  0.00000000000E+00 0. -1.
         25    2    1    2    0    0 -0.12039980842E+03 -0.17939402675E+02 -0.17324263376E+03  0.24587828025E+03  0.12500073004E+03 0.  0.
          2    1    1    2  501    0  0.70515363225E+02  0.53288424389E+02 -0.64722799387E+03  0.65323514041E+03  0.00000000000E+00 0. -1.
          1    1    1    2  502    0  0.49884445194E+02 -0.35349021714E+02  0.18293962617E+03  0.19288576420E+03  0.00000000000E+00 0. -1.
         22    1    3    3    0    0 -0.23615009543E+01  0.16247943894E+02 -0.10306075258E+03  0.10436039042E+03  0.00000000000E+00 0. -1.
         22    1    3    3    0    0 -0.11803830746E+03 -0.34187346569E+02 -0.70181881178E+02  0.14151788982E+03  0.00000000000E+00 0. -1.
</event>
<event>
 7    1  0.6507405E-006  0.7377623E+02  0.7818608E-02  0.1375055E+00
          2   -1    0    0  502    0  0.00000000000E+00  0.00000000000E+00  0.50080807828E+03  0.50080807828E+03  0.00000000000E+00 0. -1.
          1   -1    0    0  501    0 -0.00000000000E+00 -0.00000000000E+00 -0.30725892098E+03  0.30725892098E+03  0.00000000000E+00 0. -1.
         25    2    1    2    0    0  0.79589057104E+02 -0.96346919345E+02  0.14663684020E+03  0.22966704523E+03  0.12500976715E+03 0.  0.
          2    1    1    2  501    0 -0.46724939491E+02  0.35453974247E+02 -0.25859047987E+03  0.26515889678E+03  0.00000000000E+00 0. -1.
          1    1    1    2  502    0 -0.32864117613E+02  0.60892945098E+02  0.30550279697E+03  0.31324105725E+03  0.00000000000E+00 0. -1.
         22    1    3    3    0    0  0.10992315832E+03 -0.95868355326E+02  0.11411762322E+03  0.18519361279E+03  0.00000000000E+00 0. -1.
         22    1    3    3    0    0 -0.30334101216E+02 -0.47856401831E+00  0.32519216983E+02  0.44473432443E+02  0.00000000000E+00 0. -1.
</event>
<event>
 7    1  0.6507405E-006  0.3501283E+03  0.7818608E-02  0.1199505E+00
          2   -1    0    0  502    0  0.00000000000E+00  0.00000000000E+00  0.24341148033E+04  0.24341148033E+04  0.00000000000E+00 0. -1.
          1   -1    0    0  501    0 -0.00000000000E+00 -0.00000000000E+00 -0.14624957347E+04  0.14624957347E+04  0.00000000000E+00 0. -1.
         25    2    1    2    0    0 -0.33799255982E+02  0.31579065542E+03  0.14022528071E+04  0.14431928403E+04  0.12500604599E+03 0.  0.
          2    1    1    2  501    0  0.94977344921E+02 -0.33757549312E+03 -0.14196246982E+04  0.14622968896E+04  0.00000000000E+00 0. -1.
          1    1    1    2  502    0 -0.61178088939E+02  0.21784837697E+02  0.98899095975E+03  0.99112080807E+03  0.00000000000E+00 0. -1.
         22    1    3    3    0    0  0.17673556591E+02  0.11737174402E+03  0.31154758833E+03  0.33339223250E+03  0.00000000000E+00 0. -1.
         22    1    3    3    0    0 -0.51472812573E+02  0.19841891140E+03  0.10907052188E+04  0.11098006078E+04  0.00000000000E+00 0. -1.
</event>
<event>
 7    1  0.6507405E-006  0.8955305E+02  0.7818608E-02  0.1368709E+00
          2   -1    0    0  502    0  0.00000000000E+00  0.00000000000E+00  0.14998453111E+04  0.14998453111E+04  0.00000000000E+00 0. -1.
          1   -1    0    0  501    0 -0.00000000000E+00 -0.00000000000E+00 -0.47097671187E+03  0.47097671187E+03  0.00000000000E+00 0. -1.
         25    2    1    2    0    0  0.32430857534E+02  0.10028750532E+03 -0.89630738448E+01  0.16375109711E+03  0.12499896346E+03 0.  0.
          2    1    1    2  501    0 -0.49385121426E+02 -0.12403996725E+02 -0.38151853303E+03  0.38490146842E+03  0.00000000000E+00 0. -1.
          1    1    1    2  502    0  0.16954263892E+02 -0.87883508599E+02  0.14193502061E+04  0.14221694574E+04  0.00000000000E+00 0. -1.
         22    1    3    3    0    0 -0.35981405118E+02  0.51311783653E+02  0.31781902382E+02  0.70268413778E+02  0.00000000000E+00 0. -1.
         22    1    3    3    0    0  0.68412262652E+02  0.48975721671E+02 -0.40744976227E+02  0.93482683327E+02  0.00000000000E+00 0. -1.
</event>
<event>
 7    1  0.6507405E-006  0.1502147E+03  0.7818608E-02  0.1335315E+00
          2   -1    0    0  502    0  0.00000000000E+00  0.00000000000E+00  0.63006338959E+03  0.63006338959E+03  0.00000000000E+00 0. -1.
          1   -1    0    0  501    0 -0.00000000000E+00 -0.00000000000E+00 -0.13611809983E+04  0.13611809983E+04  0.00000000000E+00 0. -1.
         25    2    1    2    0    0 -0.13866955637E+03  0.11221349640E+03 -0.41934786419E+03  0.47254443560E+03  0.12499799109E+03 0.  0.
          2    1    1    2  501    0  0.98947525776E+02 -0.10524238246E+03 -0.90885060289E+03  0.92025865402E+03  0.00000000000E+00 0. -1.
          1    1    1    2  502    0  0.39722030591E+02 -0.69711139424E+01  0.59708085833E+03  0.59844129831E+03  0.00000000000E+00 0. -1.
         22    1    3    3    0    0 -0.30213660773E+02  0.92857738743E+02 -0.26883013133E+03  0.28601584651E+03  0.00000000000E+00 0. -1.
         22    1    3    3    0    0 -0.10845589559E+03  0.19355757656E+02 -0.15051773286E+03  0.18652858909E+03  0.00000000000E+00 0. -1.
</event>
<event>
 7    1  0.6507405E-006  0.1369083E+03  0.7818608E-02  0.1415117E+00
          2   -1    0    0  502    0  0.00000000000E+00  0.00000000000E+00  0.20168925628E+03  0.20168925628E+03  0.00000000000E+00 0. -1.
          1   -1    0    0  501    0 -0.00000000000E+00 -0.00000000000E+00 -0.25834883918E+03  0.25834883918E+03  0.00000000000E+00 0. -1.
         25    2    1    2    0    0 -0.62420631391E+02 -0.11717701038E+03 -0.22034076228E+02  0.18367625682E+03  0.12499871927E+03 0.  0.
          2    1    1    2  501    0  0.84381639505E+02  0.11047433494E+03 -0.12265382023E+03  0.18538823960E+03  0.00000000000E+00 0. -1.
          1    1    1    2  502    0 -0.21961008114E+02  0.67026754397E+01  0.88028313557E+02  0.90973599045E+02  0.00000000000E+00 0. -1.
         22    1    3    3    0    0 -0.54107740501E+02  0.98602292954E+01 -0.84604202205E+01  0.55645758277E+02  0.00000000000E+00 0. -1.
         22    1    3    3    0    0 -0.83128908906E+01 -0.12703723967E+03 -0.13573656007E+02  0.12803049854E+03  0.00000000000E+00 0. -1.
</event>
<event>
 7    1  0.6507405E-006  0.6368047E+02  0.7818608E-02  0.1444712E+00
          2   -1    0    0  502    0  0.00000000000E+00  0.00000000000E+00  0.14061486889E+03  0.14061486889E+03  0.00000000000E+00 0. -1.
          1   -1    0    0  501    0 -0.00000000000E+00 -0.00000000000E+00 -0.51221836591E+03  0.51221836591E+03  0.00000000000E+00 0. -1.
         25    2    1    2    0    0 -0.23704297008E+02  0.42213748604E+02 -0.24415500293E+03  0.27853269412E+03  0.12499960788E+03 0.  0.
          2    1    1    2  501    0  0.61939367515E+02 -0.32529703915E+02 -0.24264972608E+03  0.25253426788E+03  0.00000000000E+00 0. -1.
          1    1    1    2  502    0 -0.38235070507E+02 -0.96840446891E+01  0.11520123200E+03  0.12176627280E+03  0.00000000000E+00 0. -1.
         22    1    3    3    0    0  0.85297559545E+01  0.25633597926E+02 -0.24059841792E+03  0.24211038140E+03  0.00000000000E+00 0.  1.
         22    1    3    3    0    0 -0.32234052962E+02  0.16580150678E+02 -0.35565850155E+01  0.36422312720E+02  0.00000000000E+00 0.  1.
</event>
<event>
 7    1  0.6507405E-006  0.1578830E+03  0.7818608E-02  0.1264189E+00
          2   -1    0    0  502    0  0.00000000000E+00  0.00000000000E+00  0.10542913604E+04  0.10542913604E+04  0.00000000000E+00 0. -1.
          1   -1    0    0  501    0 -0.00000000000E+00 -0.00000000000E+00 -0.10763108971E+04  0.10763108971E+04  0.00000000000E+00 0. -1.
         25    2    1    2    0    0  0.13596509403E+02  0.87597665218E+02  0.95311633283E+02  0.18046108076E+03  0.12499471273E+03 0.  0.
          2    1    1    2  501    0 -0.44936132983E+01 -0.16100661296E+03 -0.10259498501E+04  0.10385164500E+04  0.00000000000E+00 0. -1.
          1    1    1    2  502    0 -0.91028961045E+01  0.73408947743E+02  0.90861868022E+03  0.91162472672E+03  0.00000000000E+00 0. -1.
         22    1    3    3    0    0  0.16212429675E+02  0.44686947964E+02  0.12126114676E+03  0.13024604373E+03  0.00000000000E+00 0.  1.
         22    1    3    3    0    0 -0.26159202718E+01  0.42910717254E+02 -0.25949513475E+02  0.50215037027E+02  0.00000000000E+00 0.  1.
</event>
<event>
 7    1  0.6507405E-006  0.1054250E+03  0.7818608E-02  0.1316962E+00
          2   -1    0    0  502    0  0.00000000000E+00  0.00000000000E+00  0.11672090991E+04  0.11672090991E+04  0.00000000000E+00 0. -1.
          1   -1    0    0  501    0 -0.00000000000E+00 -0.00000000000E+00 -0.31451407846E+04  0.31451407846E+04  0.00000000000E+00 0. -1.
         25    2    1    2    0    0  0.26356548975E+02 -0.99472644710E+02 -0.10976217810E+04  0.11094989120E+04  0.12499914726E+03 0.  0.
          2    1    1    2  501    0  0.41180530057E+02  0.10230760943E+03 -0.20391054001E+04  0.20420855799E+04  0.00000000000E+00 0. -1.
          1    1    1    2  502    0 -0.67537079032E+02 -0.28349647218E+01  0.11587954957E+04  0.11607653918E+04  0.00000000000E+00 0. -1.
         22    1    3    3    0    0  0.32433075355E+02  0.21840413349E+02 -0.33330110268E+03  0.33558684879E+03  0.00000000000E+00 0.  1.
         22    1    3    3    0    0 -0.60765263797E+01 -0.12131305806E+03 -0.76432067832E+03  0.77391206318E+03  0.00000000000E+00 0.  1.
</event>
<event>
 7    1  0.6507405E-006  0.7311472E+02  0.7818608E-02  0.1364935E+00
          2   -1    0    0  502    0  0.00000000000E+00  0.00000000000E+00  0.44318436722E+02  0.44318436722E+02  0.00000000000E+00 0. -1.
          1   -1    0    0  501    0 -0.00000000000E+00 -0.00000000000E+00 -0.88610633224E+03  0.88610633224E+03  0.00000000000E+00 0. -1.
         25    2    1    2    0    0  0.43415513883E+02  0.39395660260E+02 -0.20517812635E+03  0.24730778406E+03  0.12500460643E+03 0.  0.
          2    1    1    2  501    0 -0.45782721382E+02  0.45228043705E+02 -0.57456592733E+03  0.57815883489E+03  0.00000000000E+00 0. -1.
          1    1    1    2  502    0  0.23672074990E+01 -0.84623703965E+02 -0.62043841837E+02  0.10495815001E+03  0.00000000000E+00 0. -1.
         22    1    3    3    0    0  0.31401962574E+02 -0.38269743346E+02 -0.37426277588E+02  0.62059509854E+02  0.00000000000E+00 0.  1.
         22    1    3    3    0    0  0.12013551309E+02  0.77665403605E+02 -0.16775184876E+03  0.18524827420E+03  0.00000000000E+00 0.  1.
</event>
<event>
 7    1  0.6507405E-006  0.1070192E+03  0.7818608E-02  0.1297973E+00
          2   -1    0    0  502    0  0.00000000000E+00  0.00000000000E+00  0.17940344287E+04  0.17940344287E+04  0.00000000000E+00 0. -1.
          1   -1    0    0  501    0 -0.00000000000E+00 -0.00000000000E+00 -0.42014764801E+03  0.42014764801E+03  0.00000000000E+00 0. -1.
         25    2    1    2    0    0 -0.97064744947E+02  0.69460877569E+02  0.58547187275E+02  0.18248260890E+03  0.12500300472E+03 0.  0.
          2    1    1    2  501    0  0.26204189506E+02 -0.10476064425E+03 -0.34907828789E+03  0.36539992228E+03  0.00000000000E+00 0. -1.
          1    1    1    2  502    0  0.70860555441E+02  0.35299766679E+02  0.16644178813E+04  0.16662995455E+04  0.00000000000E+00 0. -1.
         22    1    3    3    0    0 -0.85076203262E+02  0.35463775043E+02  0.94191858595E+02  0.13178674413E+03  0.00000000000E+00 0. -1.
         22    1    3    3    0    0 -0.11988541685E+02  0.33997102527E+02 -0.35644671321E+02  0.50695864777E+02  0.00000000000E+00 0. -1.
</event>
<event>
 7    1  0.6507405E-006  0.2016328E+03  0.7818608E-02  0.1271020E+00
          2   -1    0    0  502    0  0.00000000000E+00  0.00000000000E+00  0.10967564104E+04  0.10967564104E+04  0.00000000000E+00 0. -1.
          1   -1    0    0  501    0 -0.00000000000E+00 -0.00000000000E+00 -0.16632159097E+04  0.16632159097E+04  0.00000000000E+00 0. -1.
         25    2    1    2    0    0  0.12965541683E+03 -0.72494745447E+02 -0.46414764140E+03  0.50311482566E+03  0.12500191817E+03 0.  0.
          2    1    1    2  501    0  0.48810598819E+02 -0.23573615705E+02 -0.11694181654E+04  0.11706737528E+04  0.00000000000E+00 0. -1.
          1    1    1    2  502    0 -0.17846601564E+03  0.96068361152E+02  0.10671063076E+04  0.10861837416E+04  0.00000000000E+00 0. -1.
         22    1    3    3    0    0  0.46101501826E+02 -0.54343117516E+02 -0.70336924077E+02  0.10012894577E+03  0.00000000000E+00 0.  1.
         22    1    3    3    0    0  0.83553915000E+02 -0.18151627931E+02 -0.39381071733E+03  0.40298587989E+03  0.00000000000E+00 0.  1.
</event>
<event>
 7    1  0.6507405E-006  0.1603943E+03  0.7818608E-02  0.1197281E+00
          2   -1    0    0  502    0  0.00000000000E+00  0.00000000000E+00  0.85713761549E+03  0.85713761549E+03  0.00000000000E+00 0. -1.
          1   -1    0    0  501    0 -0.00000000000E+00 -0.00000000000E+00 -0.91659328983E+03  0.91659328983E+03  0.00000000000E+00 0. -1.
         25    2    1    2    0    0 -0.13007235564E+03  0.20935775494E+03 -0.39202232410E+03  0.47964171929E+03  0.12500075615E+03 0.  0.
          2    1    1    2  501    0 -0.26026832635E+00 -0.14527098521E+03 -0.46306132139E+03  0.48531383069E+03  0.00000000000E+00 0. -1.
          1    1    1    2  502    0  0.13033262397E+03 -0.64086769734E+02  0.79562797116E+03  0.80877535534E+03  0.00000000000E+00 0. -1.
         22    1    3    3    0    0 -0.52235166069E+02  0.17752557652E+01 -0.51976827899E+02  0.73710614878E+02  0.00000000000E+00 0.  1.
         22    1    3    3    0    0 -0.77837189575E+02  0.20758249918E+03 -0.34004549620E+03  0.40593110442E+03  0.00000000000E+00 0.  1.
</event>
<event>
 7    1  0.6507405E-006  0.5228868E+02  0.7818608E-02  0.1450901E+00
          2   -1    0    0  502    0  0.00000000000E+00  0.00000000000E+00  0.19050341549E+04  0.19050341549E+04  0.00000000000E+00 0. -1.
          1   -1    0    0  501    0 -0.00000000000E+00 -0.00000000000E+00 -0.21317755268E+03  0.21317755268E+03  0.00000000000E+00 0. -1.
         25    2    1    2    0    0 -0.16488026626E+02 -0.60725826321E+02  0.26954622240E+03  0.30371190506E+03  0.12500509693E+03 0.  0.
          2    1    1    2  501    0  0.43178845791E+02  0.15532988382E+02 -0.19297808615E+03  0.19835883692E+03  0.00000000000E+00 0. -1.
          1    1    1    2  502    0 -0.26690819165E+02  0.45192837940E+02  0.16152884660E+04  0.16161409656E+04  0.00000000000E+00 0. -1.
         22    1    3    3    0    0 -0.28431166447E+02 -0.48625571684E+01  0.68843038895E+00  0.28852203108E+02  0.00000000000E+00 0.  1.
         22    1    3    3    0    0  0.11943139822E+02 -0.55863269153E+02  0.26885779202E+03  0.27485970195E+03  0.00000000000E+00 0.  1.
</event>
<event>
 7    1  0.6507405E-006  0.1681198E+03  0.7818608E-02  0.1358227E+00
          2   -1    0    0  502    0  0.00000000000E+00  0.00000000000E+00  0.25652980315E+03  0.25652980315E+03  0.00000000000E+00 0. -1.
          1   -1    0    0  501    0 -0.00000000000E+00 -0.00000000000E+00 -0.89020392622E+03  0.89020392622E+03  0.00000000000E+00 0. -1.
         25    2    1    2    0    0 -0.85903168808E+02 -0.17388074440E+03 -0.28803624273E+03  0.36905771101E+03  0.12499939697E+03 0.  0.
          2    1    1    2  501    0  0.19818960914E+02  0.21995214400E+02 -0.52943021843E+03  0.53025742509E+03  0.00000000000E+00 0. -1.
          1    1    1    2  502    0  0.66084207894E+02  0.15188553000E+03  0.18379233810E+03  0.24741859328E+03  0.00000000000E+00 0. -1.
         22    1    3    3    0    0 -0.15739300528E+01 -0.75277193605E+02 -0.31578835359E+02  0.81647755483E+02  0.00000000000E+00 0. -1.
         22    1    3    3    0    0 -0.84329238755E+02 -0.98603550794E+02 -0.25645740737E+03  0.28740995552E+03  0.00000000000E+00 0. -1.
</event>
<event>
 7    1  0.6507405E-006  0.4445560E+02  0.7818608E-02  0.1587841E+00
          2   -1    0    0  502    0  0.00000000000E+00  0.00000000000E+00  0.26896146108E+04  0.26896146108E+04  0.00000000000E+00 0. -1.
          1   -1    0    0  501    0 -0.00000000000E+00 -0.00000000000E+00 -0.45140603022E+03  0.45140603022E+03  0.00000000000E+00 0. -1.
         25    2    1    2    0    0 -0.49606804151E+02  0.35254758871E+02  0.16739900046E+04  0.16797533743E+04  0.12500051945E+03 0.  0.
          2    1    1    2  501    0  0.10922095195E+02 -0.18570702455E+02 -0.44782713045E+03  0.44834507014E+03  0.00000000000E+00 0. -1.
          1    1    1    2  502    0  0.38684708956E+02 -0.16684056416E+02  0.10120457064E+04  0.10129221966E+04  0.00000000000E+00 0. -1.
         22    1    3    3    0    0 -0.41390686995E+02 -0.42774824125E+02  0.62199587025E+03  0.62483736856E+03  0.00000000000E+00 0. -1.
         22    1    3    3    0    0 -0.82161171563E+01  0.78029582995E+02  0.10519941344E+04  0.10549160057E+04  0.00000000000E+00 0. -1.
</event>
<event>
 7    1  0.6507405E-006  0.8350575E+02  0.7818608E-02  0.1337631E+00
          2   -1    0    0  502    0  0.00000000000E+00  0.00000000000E+00  0.30257445963E+03  0.30257445963E+03  0.00000000000E+00 0. -1.
          1   -1    0    0  501    0 -0.00000000000E+00 -0.00000000000E+00 -0.18209856183E+04  0.18209856183E+04  0.00000000000E+00 0. -1.
         25    2    1    2    0    0 -0.14466228869E+03 -0.48581625379E+02 -0.28098511612E+03  0.34331163219E+03  0.12499155662E+03 0.  0.
          2    1    1    2  501    0  0.64870266356E+02  0.29097728773E+02 -0.15017627399E+04  0.15034447632E+04  0.00000000000E+00 0. -1.
          1    1    1    2  502    0  0.79792022332E+02  0.19483896606E+02  0.26433669735E+03  0.27680368245E+03  0.00000000000E+00 0. -1.
         22    1    3    3    0    0 -0.14923286057E+03 -0.43331052782E+02 -0.29171390459E+03  0.33052235770E+03  0.00000000000E+00 0. -1.
         22    1    3    3    0    0  0.45705718874E+01 -0.52505725978E+01  0.10728788470E+02  0.12789274492E+02  0.00000000000E+00 0. -1.
</event>
<event>
 7    1  0.6507405E-006  0.7749493E+02  0.7818608E-02  0.1336810E+00
          2   -1    0    0  502    0  0.00000000000E+00  0.00000000000E+00  0.18638519608E+04  0.18638519608E+04  0.00000000000E+00 0. -1.
          1   -1    0    0  501    0 -0.00000000000E+00 -0.00000000000E+00 -0.25892444169E+03  0.25892444169E+03  0.00000000000E+00 0. -1.
         25    2    1    2    0    0 -0.24218645281E+02 -0.19056082649E+02  0.13371709024E+03  0.18563796074E+03  0.12502605799E+03 0.  0.
          2    1    1    2  501    0 -0.40988863461E+02  0.65374465025E+02 -0.22560672765E+03  0.23843721011E+03  0.00000000000E+00 0. -1.
          1    1    1    2  502    0  0.65207508742E+02 -0.46318382376E+02  0.16968171565E+04  0.16987012316E+04  0.00000000000E+00 0. -1.
         22    1    3    3    0    0  0.38312473595E+02 -0.43002736169E+02  0.38665331905E+02  0.69369221145E+02  0.00000000000E+00 0.  1.
         22    1    3    3    0    0 -0.62531118876E+02  0.23946653520E+02  0.95051758339E+02  0.11626873959E+03  0.00000000000E+00 0.  1.
</event>
<event>
 7    1  0.6507405E-006  0.1297188E+03  0.7818608E-02  0.1278170E+00
          2   -1    0    0  502    0  0.00000000000E+00  0.00000000000E+00  0.68149706064E+03  0.68149706064E+03  0.00000000000E+00 0. -1.
          1   -1    0    0  501    0 -0.00000000000E+00 -0.00000000000E+00 -0.25041544560E+04  0.25041544560E+04  0.00000000000E+00 0. -1.
         25    2    1    2    0    0 -0.12033026386E+03 -0.14961652144E+03 -0.33801918845E+03  0.40834531106E+03  0.12499778165E+03 0.  0.
          2    1    1    2  501    0  0.13641891294E+02  0.77474993533E+02 -0.21238210326E+04  0.21252774535E+04  0.00000000000E+00 0. -1.
          1    1    1    2  502    0  0.10668837257E+03  0.72141527909E+02  0.63918282569E+03  0.65202875209E+03  0.00000000000E+00 0. -1.
         22    1    3    3    0    0 -0.13188988682E+03 -0.15735173233E+03 -0.27152507605E+03  0.34041206916E+03  0.00000000000E+00 0. -1.
         22    1    3    3    0    0  0.11559622957E+02  0.77352108853E+01 -0.66494112404E+02  0.67933241898E+02  0.00000000000E+00 0. -1.
</event>
<event>
 7    1  0.6507405E-006  0.8934340E+02  0.7818608E-02  0.1450688E+00
          2   -1    0    0  502    0  0.00000000000E+00  0.00000000000E+00  0.61520666713E+03  0.61520666713E+03  0.00000000000E+00 0. -1.
          1   -1    0    0  501    0 -0.00000000000E+00 -0.00000000000E+00 -0.40229618265E+03  0.40229618265E+03  0.00000000000E+00 0. -1.
         25    2    1    2    0    0 -0.91456438007E+02  0.64239228362E+02  0.13187030304E+03  0.21329387109E+03  0.12495415202E+03 0.  0.
          2    1    1    2  501    0  0.15267459529E+02 -0.22145304381E+02 -0.35679387122E+03  0.35780633919E+03  0.00000000000E+00 0. -1.
          1    1    1    2  502    0  0.76188978478E+02 -0.42093923981E+02  0.43783405266E+03  0.44640263949E+03  0.00000000000E+00 0. -1.
         22    1    3    3    0    0  0.13823276081E+02  0.84106703227E+01 -0.16421666797E+02  0.23054142302E+02  0.00000000000E+00 0. -1.
         22    1    3    3    0    0 -0.10527971409E+03  0.55828558039E+02  0.14829196984E+03  0.19023972879E+03  0.00000000000E+00 0. -1.
</event>
<event>
 7    1  0.6507405E-006  0.6379139E+02  0.7818608E-02  0.1426205E+00
          2   -1    0    0  502    0  0.00000000000E+00  0.00000000000E+00  0.27436333381E+03  0.27436333381E+03  0.00000000000E+00 0. -1.
          1   -1    0    0  501    0 -0.00000000000E+00 -0.00000000000E+00 -0.15932801607E+03  0.15932801607E+03  0.00000000000E+00 0. -1.
         25    2    1    2    0    0 -0.75876995618E+02  0.39283227357E+02  0.14610095187E+03  0.21040618108E+03  0.12499912994E+03 0.  0.
          2    1    1    2  501    0  0.43861145296E+02  0.11143219224E+02 -0.11309473555E+03  0.12181293285E+03  0.00000000000E+00 0. -1.
          1    1    1    2  502    0  0.32015850322E+02 -0.50426446581E+02  0.82029101424E+02  0.10147223594E+03  0.00000000000E+00 0. -1.
         22    1    3    3    0    0  0.11356127874E+02  0.40682009198E+02  0.24136730438E+01  0.42306185484E+02  0.00000000000E+00 0.  1.
         22    1    3    3    0    0 -0.87233123492E+02 -0.13987818414E+01  0.14368727882E+03  0.16809999560E+03  0.00000000000E+00 0.  1.
</event>
<event>
 7    1  0.6507405E-006  0.1000407E+03  0.7818608E-02  0.1367539E+00
          2   -1    0    0  502    0  0.00000000000E+00  0.00000000000E+00  0.72868159032E+03  0.72868159032E+03  0.00000000000E+00 0. -1.
          1   -1    0    0  501    0 -0.00000000000E+00 -0.00000000000E+00 -0.14662745620E+04  0.14662745620E+04  0.00000000000E+00 0. -1.
         25    2    1    2    0    0  0.78000898265E+02 -0.12237430076E+03 -0.18504945415E+03  0.26632235517E+03  0.12499874705E+03 0.  0.
          2    1    1    2  501    0 -0.21430791222E+02  0.40731999059E+02 -0.12365736346E+04  0.12374298883E+04  0.00000000000E+00 0. -1.
          1    1    1    2  502    0 -0.56570107044E+02  0.81642301699E+02  0.68403011713E+03  0.69120390883E+03  0.00000000000E+00 0. -1.
         22    1    3    3    0    0  0.45697631295E+02 -0.44496975296E+02 -0.16881466539E+03  0.18046231065E+03  0.00000000000E+00 0.  1.
         22    1    3    3    0    0  0.32303266970E+02 -0.77877325461E+02 -0.16234788767E+02  0.85860044516E+02  0.00000000000E+00 0.  1.
</event>
<event>
 7    1  0.6507405E-006  0.1521867E+03  0.7818608E-02  0.1275351E+00
          2   -1    0    0  502    0  0.00000000000E+00  0.00000000000E+00  0.43754375199E+03  0.43754375199E+03  0.00000000000E+00 0. -1.
          1   -1    0    0  501    0 -0.00000000000E+00 -0.00000000000E+00 -0.18567791089E+03  0.18567791089E+03  0.00000000000E+00 0. -1.
         25    2    1    2    0    0 -0.13008881541E+03 -0.12890172195E+03  0.17411667886E+03  0.28192593485E+03  0.12500744404E+03 0.  0.
          2    1    1    2  501    0  0.61449142107E+02  0.13472223363E+03 -0.80615943838E+02  0.16859717584E+03  0.00000000000E+00 0. -1.
          1    1    1    2  502    0  0.68639673308E+02 -0.58205116748E+01  0.15836510608E+03  0.17269855220E+03  0.00000000000E+00 0. -1.
         22    1    3    3    0    0  0.92254302610E+01  0.54895024391E+01  0.51906575259E+02  0.53005054057E+02  0.00000000000E+00 0.  1.
         22    1    3    3    0    0 -0.13931424568E+03 -0.13439122439E+03  0.12221010360E+03  0.22892088080E+03  0.00000000000E+00 0.  1.
</event>
<event>
 7    1  0.6507405E-006  0.1506408E+03  0.7818608E-02  0.1370041E+00
          2   -1    0    0  502    0  0.00000000000E+00  0.00000000000E+00  0.21033055993E+04  0.21033055993E+04  0.00000000000E+00 0. -1.
          1   -1    0    0  501    0 -0.00000000000E+00 -0.00000000000E+00 -0.42936710223E+03  0.42936710223E+03  0.00000000000E+00 0. -1.
         25    2    1    2    0    0 -0.14817369468E+03  0.53115065024E+02  0.78415759666E+03  0.80950882658E+03  0.12499899992E+03 0.  0.
          2    1    1    2  501    0  0.12962408761E+03 -0.76614046529E+02 -0.40291005299E+03  0.43012629194E+03  0.00000000000E+00 0. -1.
          1    1    1    2  502    0  0.18549607075E+02  0.23498981505E+02  0.12926909534E+04  0.12930375830E+04  0.00000000000E+00 0. -1.
         22    1    3    3    0    0 -0.21367450533E+02 -0.14909188759E+02  0.22647505960E+02  0.34521897079E+02  0.00000000000E+00 0. -1.
         22    1    3    3    0    0 -0.12680624415E+03  0.68024253783E+02  0.76151009070E+03  0.77498692950E+03  0.00000000000E+00 0. -1.
</event>
<event>
 7    1  0.6507405E-006  0.2142200E+03  0.7818608E-02  0.1242558E+00
          2   -1    0    0  502    0  0.00000000000E+00  0.00000000000E+00  0.22012765542E+03  0.22012765542E+03  0.00000000000E+00 0. -1.
          1   -1    0    0  501    0 -0.00000000000E+00 -0.00000000000E+00 -0.15952561963E+04  0.15952561963E+04  0.00000000000E+00 0. -1.
         25    2    1    2    0    0  0.14285837988E+03  0.76516870947E+02 -0.26751015724E+03  0.33682475499E+03  0.12500353239E+03 0.  0.
          2    1    1    2  501    0 -0.20286088828E+03 -0.10762596349E+03 -0.12763238505E+04  0.12968185916E+04  0.00000000000E+00 0. -1.
          1    1    1    2  502    0  0.60002508408E+02  0.31109092541E+02  0.16870546690E+03  0.18174050516E+03  0.00000000000E+00 0. -1.
         22    1    3    3    0    0  0.13005114795E+03  0.51791023570E+02 -0.27448423956E+03  0.30811882281E+03  0.00000000000E+00 0. -1.
         22    1    3    3    0    0  0.12807231925E+02  0.24725847377E+02  0.69740823204E+01  0.28705932180E+02  0.00000000000E+00 0. -1.
</event>
<event>
 7    1  0.6507405E-006  0.1347095E+03  0.7818608E-02  0.1335764E+00
          2   -1    0    0  502    0  0.00000000000E+00  0.00000000000E+00  0.42708688749E+03  0.42708688749E+03  0.00000000000E+00 0. -1.
          1   -1    0    0  501    0 -0.00000000000E+00 -0.00000000000E+00 -0.21621490598E+03  0.21621490598E+03  0.00000000000E+00 0. -1.
         25    2    1    2    0    0  0.23204734880E+01 -0.16445673460E+03 -0.35656810077E+02  0.20963819985E+03  0.12500145830E+03 0.  0.
          2    1    1    2  501    0 -0.11613702451E+02  0.12063618085E+03 -0.51937877405E+02  0.13185412137E+03  0.00000000000E+00 0. -1.
          1    1    1    2  502    0  0.92932289626E+01  0.43820553756E+02  0.29846666899E+03  0.30180947224E+03  0.00000000000E+00 0. -1.
         22    1    3    3    0    0 -0.37345597001E+02 -0.16632710657E+02  0.21585503051E+02  0.46230667540E+02  0.00000000000E+00 0. -1.
         22    1    3    3    0    0  0.39666070489E+02 -0.14782402395E+03 -0.57242313128E+02  0.16340753231E+03  0.00000000000E+00 0. -1.
</event>
<event>
 7    1  0.6507405E-006  0.4969962E+02  0.7818608E-02  0.1527989E+00
          2   -1    0    0  502    0  0.00000000000E+00  0.00000000000E+00  0.45326584968E+03  0.45326584968E+03  0.00000000000E+00 0. -1.
          1   -1    0    0  501    0 -0.00000000000E+00 -0.00000000000E+00 -0.20826265808E+03  0.20826265808E+03  0.00000000000E+00 0. -1.
         25    2    1    2    0    0  0.42641586020E+02  0.34171567783E+02  0.24863105863E+02  0.13866629739E+03  0.12499666834E+03 0.  0.
          2    1    1    2  501    0  0.66704110011E+01 -0.27395330633E+02 -0.14836003777E+03  0.15101555989E+03  0.00000000000E+00 0. -1.
          1    1    1    2  502    0 -0.49311997021E+02 -0.67762371503E+01  0.36850012351E+03  0.37184665047E+03  0.00000000000E+00 0. -1.
         22    1    3    3    0    0 -0.34244586535E+01 -0.35257818674E+02  0.40589424416E+02  0.53873389249E+02  0.00000000000E+00 0. -1.
         22    1    3    3    0    0  0.46066044673E+02  0.69429386457E+02 -0.15726318553E+02  0.84792908141E+02  0.00000000000E+00 0. -1.
</event>
<event>
 7    1  0.6507405E-006  0.3289800E+02  0.7818608E-02  0.1571712E+00
          2   -1    0    0  502    0  0.00000000000E+00  0.00000000000E+00  0.57746688906E+03  0.57746688906E+03  0.00000000000E+00 0. -1.
          1   -1    0    0  501    0 -0.00000000000E+00 -0.00000000000E+00 -0.20137596193E+03  0.20137596193E+03  0.00000000000E+00 0. -1.
         25    2    1    2    0    0 -0.39528408327E+02 -0.39806574043E+02  0.37482951208E+03  0.39908510858E+03  0.12499880946E+03 0.  0.
          2    1    1    2  501    0  0.31689923812E+02  0.86134696207E+01 -0.18644536812E+03  0.18931539404E+03  0.00000000000E+00 0. -1.
          1    1    1    2  502    0  0.78384845146E+01  0.31193104422E+02  0.18770678316E+03  0.19044234836E+03  0.00000000000E+00 0. -1.
         22    1    3    3    0    0 -0.57163782998E+02  0.26762097507E+02  0.23335006828E+03  0.24173572826E+03  0.00000000000E+00 0.  1.
         22    1    3    3    0    0  0.17635374671E+02 -0.66568671550E+02  0.14147944380E+03  0.15734938032E+03  0.00000000000E+00 0.  1.
</event>
<event>
 7    1  0.6507405E-006  0.1498513E+03  0.7818608E-02  0.1249744E+00
          2   -1    0    0  502    0  0.00000000000E+00  0.00000000000E+00  0.16666043731E+04  0.16666043731E+04  0.00000000000E+00 0. -1.
          1   -1    0    0  501    0 -0.00000000000E+00 -0.00000000000E+00 -0.25391680256E+04  0.25391680256E+04  0.00000000000E+00 0. -1.
         25    2    1    2    0    0 -0.22520950815E+03 -0.65675407879E+01 -0.60024418472E+03  0.65320612883E+03  0.12499084084E+03 0.  0.
          2    1    1    2  501    0  0.14063469360E+03 -0.23874736895E+02 -0.19085476272E+04  0.19138709897E+04  0.00000000000E+00 0. -1.
          1    1    1    2  502    0  0.84574814551E+02  0.30442277683E+02  0.16362281594E+04  0.16386952801E+04  0.00000000000E+00 0. -1.
         22    1    3    3    0    0 -0.21341346450E+02 -0.36294294952E+02 -0.18412373367E+03  0.18887635695E+03  0.00000000000E+00 0.  1.
         22    1    3    3    0    0 -0.20386816170E+03  0.29726754164E+02 -0.41612045105E+03  0.46432977188E+03  0.00000000000E+00 0.  1.
</event>
<event>
 7    1  0.6507405E-006  0.1152698E+03  0.7818608E-02  0.1311182E+00
          2   -1    0    0  502    0  0.00000000000E+00  0.00000000000E+00  0.89501970616E+03  0.89501970616E+03  0.00000000000E+00 0. -1.
          1   -1    0    0  501    0 -0.00000000000E+00 -0.00000000000E+00 -0.55970407243E+03  0.55970407243E+03  0.00000000000E+00 0. -1.
         25    2    1    2    0    0  0.63142529562E+02  0.30634295848E+02 -0.56451436460E+01  0.14345991017E+03  0.12499375608E+03 0.  0.
          2    1    1    2  501    0  0.55072274746E+02 -0.34771203364E+02 -0.47870075694E+03  0.48311117429E+03  0.00000000000E+00 0. -1.
          1    1    1    2  502    0 -0.11821480431E+03  0.41369075163E+01  0.81966153431E+03  0.82815269413E+03  0.00000000000E+00 0. -1.
         22    1    3    3    0    0  0.10675369923E+02 -0.20398727591E+02  0.47649313262E+02  0.52920021397E+02  0.00000000000E+00 0. -1.
         22    1    3    3    0    0  0.52467159640E+02  0.51033023439E+02 -0.53294456908E+02  0.90539888774E+02  0.00000000000E+00 0. -1.
</event>
<event>
 7    1  0.6507405E-006  0.2185417E+03  0.7818608E-02  0.1314110E+00
          2   -1    0    0  502    0  0.00000000000E+00  0.00000000000E+00  0.19416596389E+04  0.19416596389E+04  0.00000000000E+00 0. -1.
          1   -1    0    0  501    0 -0.00000000000E+00 -0.00000000000E+00 -0.29565115926E+03  0.29565115926E+03  0.00000000000E+00 0. -1.
         25    2    1    2    0    0  0.11607694354E+03  0.21173298189E+03  0.63377216311E+03  0.68963534223E+03  0.12500015229E+03 0.  0.
          2    1    1    2  501    0 -0.12286940096E+03 -0.17897360241E+03 -0.22344675634E+03  0.31153955282E+03  0.00000000000E+00 0. -1.
          1    1    1    2  502    0  0.67924574136E+01 -0.32759379475E+02  0.12356830729E+04  0.12361359031E+04  0.00000000000E+00 0. -1.
         22    1    3    3    0    0  0.72104041521E+02  0.89166017177E+02  0.45016084149E+03  0.46453670967E+03  0.00000000000E+00 0. -1.
         22    1    3    3    0    0  0.43972902024E+02  0.12256696471E+03  0.18361132162E+03  0.22509863256E+03  0.00000000000E+00 0. -1.
</event>
<event>
 7    1  0.6507405E-006  0.1208397E+03  0.7818608E-02  0.1329196E+00
          2   -1    0    0  502    0  0.00000000000E+00  0.00000000000E+00  0.10649564500E+04  0.10649564500E+04  0.00000000000E+00 0. -1.
          1   -1    0    0  501    0 -0.00000000000E+00 -0.00000000000E+00 -0.15612589589E+04  0.15612589589E+04  0.00000000000E+00 0. -1.
         25    2    1    2    0    0  0.13691770154E+01  0.14229461281E+03  0.32438154102E+03  0.37563097746E+03  0.12500246233E+03 0.  0.
          2    1    1    2  501    0 -0.42509918811E+02 -0.31477408692E+02 -0.15302881525E+04  0.15312020605E+04  0.00000000000E+00 0. -1.
          1    1    1    2  502    0  0.41140741796E+02 -0.11081720412E+03  0.70960410252E+03  0.71938237098E+03  0.00000000000E+00 0. -1.
         22    1    3    3    0    0 -0.36353263525E+02  0.71385152111E+02  0.62195948612E+02  0.10141861631E+03  0.00000000000E+00 0. -1.
         22    1    3    3    0    0  0.37722440541E+02  0.70909460701E+02  0.26218559241E+03  0.27421236115E+03  0.00000000000E+00 0. -1.
</event>
<event>
 7    1  0.6507405E-006  0.9122277E+02  0.7818608E-02  0.1431673E+00
          2   -1    0    0  502    0  0.00000000000E+00  0.00000000000E+00  0.69752433309E+03  0.69752433309E+03  0.00000000000E+00 0. -1.
          1   -1    0    0  501    0 -0.00000000000E+00 -0.00000000000E+00 -0.71188631904E+03  0.71188631904E+03  0.00000000000E+00 0. -1.
         25    2    1    2    0    0 -0.33196311883E+02  0.10807365441E+03 -0.46761142684E+03  0.49705858797E+03  0.12499953384E+03 0.  0.
          2    1    1    2  501    0  0.24912468829E+02 -0.17350946286E+02 -0.22549082750E+03  0.22752538260E+03  0.00000000000E+00 0. -1.
          1    1    1    2  502    0  0.82838430539E+01 -0.90722708122E+02  0.67874026839E+03  0.68482668155E+03  0.00000000000E+00 0. -1.
         22    1    3    3    0    0  0.40346437206E+02  0.79231729336E+02 -0.26901145693E+03  0.28332431220E+03  0.00000000000E+00 0. -1.
         22    1    3    3    0    0 -0.73542749089E+02  0.28841925073E+02 -0.19859996992E+03  0.21373427577E+03  0.00000000000E+00 0. -1.
</event>
<event>
 7    1  0.6507405E-006  0.1956674E+03  0.7818608E-02  0.1312772E+00
          2   -1    0    0  502    0  0.00000000000E+00  0.00000000000E+00  0.15269459031E+04  0.15269459031E+04  0.00000000000E+00 0. -1.
          1   -1    0    0  501    0 -0.00000000000E+00 -0.00000000000E+00 -0.26167111683E+03  0.26167111683E+03  0.00000000000E+00 0. -1.
         25    2    1    2    0    0  0.21377176281E+03  0.20406909275E+02  0.11506193490E+03  0.27382265329E+03  0.12499915228E+03 0.  0.
          2    1    1    2  501    0 -0.18565704546E+03 -0.45705397473E+02 -0.13179877091E+03  0.23222497260E+03  0.00000000000E+00 0. -1.
          1    1    1    2  502    0 -0.28114717357E+02  0.25298488198E+02  0.12820116223E+04  0.12825693941E+04  0.00000000000E+00 0. -1.
         22    1    3    3    0    0  0.78695486096E+02  0.28498503620E+02 -0.16256307930E+02  0.85260845574E+02  0.00000000000E+00 0. -1.
         22    1    3    3    0    0  0.13507627672E+03 -0.80915943453E+01  0.13131824283E+03  0.18856180772E+03  0.00000000000E+00 0. -1.
</event>
<event>
 7    1  0.6507405E-006  0.6655820E+02  0.7818608E-02  0.1397131E+00
          2   -1    0    0  502    0  0.00000000000E+00  0.00000000000E+00  0.13800856016E+04  0.13800856016E+04  0.00000000000E+00 0. -1.
          1   -1    0    0  501    0 -0.00000000000E+00 -0.00000000000E+00 -0.70329579208E+03  0.70329579208E+03  0.00000000000E+00 0. -1.
         25    2    1    2    0    0  0.23321531157E+02 -0.39936578125E+02  0.50494763794E+03  0.52224069193E+03  0.12499759661E+03 0.  0.
          2    1    1    2  501    0  0.47920780218E+02  0.25727344573E+02 -0.69205774710E+03  0.69419177664E+03  0.00000000000E+00 0. -1.
          1    1    1    2  502    0 -0.71242311375E+02  0.14209233552E+02  0.86389991867E+03  0.86694892510E+03  0.00000000000E+00 0. -1.
         22    1    3    3    0    0 -0.36321433654E+02 -0.59815905183E+02  0.24496928957E+03  0.25476880086E+03  0.00000000000E+00 0. -1.
         22    1    3    3    0    0  0.59642964811E+02  0.19879327058E+02  0.25997834837E+03  0.26747189107E+03  0.00000000000E+00 0. -1.
</event>
<event>
 7    1  0.6507405E-006  0.4624356E+02  0.7818608E-02  0.1566677E+00
          2   -1    0    0  502    0  0.00000000000E+00  0.00000000000E+00  0.74348903941E+03  0.74348903941E+03  0.00000000000E+00 0. -1.
          1   -1    0    0  501    0 -0.00000000000E+00 -0.00000000000E+00 -0.33293912957E+02  0.33293912957E+02  0.00000000000E+00 0. -1.
         25    2    1    2    0    0 -0.20136742535E+02  0.63788930556E+02  0.40719668415E+03  0.43117165373E+03  0.12500135731E+03 0.  0.
          2    1    1    2  501    0  0.63079753521E+01 -0.44647732760E+02  0.35472180810E+01  0.45230447154E+02  0.00000000000E+00 0. -1.
          1    1    1    2  502    0  0.13828767182E+02 -0.19141197796E+02  0.29945122421E+03  0.30038085148E+03  0.00000000000E+00 0. -1.
         22    1    3    3    0    0 -0.45063251994E+02  0.21827787689E+02  0.35935869891E+03  0.36283029570E+03  0.00000000000E+00 0.  1.
         22    1    3    3    0    0  0.24926509460E+02  0.41961142867E+02  0.47837985246E+02  0.68341358027E+02  0.00000000000E+00 0.  1.
</event>
<event>
 7    1  0.8230963E-006  0.8996546E+02  0.7818608E-02  0.1345875E+00
          2   -1    0    0  502    0  0.00000000000E+00  0.00000000000E+00  0.15525625053E+04  0.15525625053E+04  0.00000000000E+00 0. -1.
          1   -1    0    0  501    0 -0.00000000000E+00 -0.00000000000E+00 -0.64213318863E+03  0.64213318863E+03  0.00000000000E+00 0. -1.
         25    2    1    2    0    0 -0.92919085535E+02 -0.33392802646E+02 -0.10146415556E+03  0.18886300823E+03  0.12500090116E+03 0.  0.
          2    1    1    2  501    0  0.71920157691E+01  0.61033394754E+02 -0.49371858664E+03  0.49752873602E+03  0.00000000000E+00 0. -1.
          1    1    1    2  502    0  0.85727069766E+02 -0.27640592107E+02  0.15056120589E+04  0.15083039497E+04  0.00000000000E+00 0. -1.
         22    1    3    3    0    0 -0.32118766818E+02 -0.17848077510E+01 -0.11465263043E+03  0.11907991596E+03  0.00000000000E+00 0. -1.
         22    1    3    3    0    0 -0.60800318716E+02 -0.31607994895E+02  0.13188474873E+02  0.69783092270E+02  0.00000000000E+00 0. -1.
</event>
<event>
 7    1  0.6507405E-006  0.2032603E+03  0.7818608E-02  0.1342953E+00
          2   -1    0    0  502    0  0.00000000000E+00  0.00000000000E+00  0.65892198364E+03  0.65892198364E+03  0.00000000000E+00 0. -1.
          1   -1    0    0  501    0 -0.00000000000E+00 -0.00000000000E+00 -0.29429061903E+04  0.29429061903E+04  0.00000000000E+00 0. -1.
         25    2    1    2    0    0 -0.19204258275E+03  0.35449452524E+02 -0.19310026064E+01  0.23187828360E+03  0.12500716924E+03 0.  0.
          2    1    1    2  501    0  0.20332567386E+03 -0.99396379483E+01 -0.28219750876E+04  0.28293079579E+04  0.00000000000E+00 0. -1.
          1    1    1    2  502    0 -0.11283091110E+02 -0.25509814576E+02  0.53992188350E+03  0.54064193240E+03  0.00000000000E+00 0. -1.
         22    1    3    3    0    0 -0.21027610213E+03  0.37177134414E+02 -0.10042014115E+01  0.21353966112E+03  0.00000000000E+00 0. -1.
         22    1    3    3    0    0  0.18233519386E+02 -0.17276818904E+01 -0.92680119485E+00  0.18338622478E+02  0.00000000000E+00 0. -1.
</event>
<event>
 7    1  0.6507405E-006  0.1943290E+03  0.7818608E-02  0.1283248E+00
          2   -1    0    0  502    0  0.00000000000E+00  0.00000000000E+00  0.56287770956E+03  0.56287770956E+03  0.00000000000E+00 0. -1.
          1   -1    0    0  501    0 -0.00000000000E+00 -0.00000000000E+00 -0.23462221942E+04  0.23462221942E+04  0.00000000000E+00 0. -1.
         25    2    1    2    0    0 -0.92356834107E+01 -0.18520221355E+03 -0.67238133833E+03  0.70859268320E+03  0.12498707448E+03 0.  0.
          2    1    1    2  501    0  0.49762840554E+02 -0.52395633153E+01 -0.16379434834E+04  0.16387076152E+04  0.00000000000E+00 0. -1.
          1    1    1    2  502    0 -0.40527157143E+02  0.19044177686E+03  0.52698033712E+03  0.56179960534E+03  0.00000000000E+00 0. -1.
         22    1    3    3    0    0 -0.48679923584E+02 -0.28932729854E+02 -0.11211133527E+03  0.12560170903E+03  0.00000000000E+00 0. -1.
         22    1    3    3    0    0  0.39444240173E+02 -0.15626948370E+03 -0.56027000307E+03  0.58299097416E+03  0.00000000000E+00 0. -1.
</event>
<event>
 7    1  0.6507405E-006  0.1411913E+03  0.7818608E-02  0.1412255E+00
          2   -1    0    0  502    0  0.00000000000E+00  0.00000000000E+00  0.82305814444E+02  0.82305814444E+02  0.00000000000E+00 0. -1.
          1   -1    0    0  501    0 -0.00000000000E+00 -0.00000000000E+00 -0.42958810454E+03  0.42958810454E+03  0.00000000000E+00 0. -1.
         25    2    1    2    0    0  0.36836169311E+02  0.12001944661E+03 -0.22113764355E+03  0.28335142187E+03  0.12499839977E+03 0.  0.
          2    1    1    2  501    0  0.97328744834E+01  0.20579188451E+02 -0.63990824450E+02  0.67919492466E+02  0.00000000000E+00 0. -1.
          1    1    1    2  502    0 -0.46569043795E+02 -0.14059863506E+03 -0.62153822098E+02  0.16062300465E+03  0.00000000000E+00 0. -1.
         22    1    3    3    0    0 -0.25648859036E+02 -0.13868937026E+02 -0.31050745995E+02  0.42595307382E+02  0.00000000000E+00 0.  1.
         22    1    3    3    0    0  0.62485028347E+02  0.13388838364E+03 -0.19008689755E+03  0.24075611449E+03  0.00000000000E+00 0.  1.
</event>
<event>
 7    1  0.6507405E-006  0.2071508E+03  0.7818608E-02  0.1193016E+00
          2   -1    0    0  502    0  0.00000000000E+00  0.00000000000E+00  0.10389997698E+04  0.10389997698E+04  0.00000000000E+00 0. -1.
          1   -1    0    0  501    0 -0.00000000000E+00 -0.00000000000E+00 -0.15296060249E+04  0.15296060249E+04  0.00000000000E+00 0. -1.
         25    2    1    2    0    0 -0.31971174901E+02 -0.14969946648E+03 -0.34644889764E+02  0.20064480476E+03  0.12500393193E+03 0.  0.
          2    1    1    2  501    0 -0.11774328832E+03 -0.45723140598E+01 -0.13973648128E+04  0.14023240738E+04  0.00000000000E+00 0. -1.
          1    1    1    2  502    0  0.14971446322E+03  0.15427178054E+03  0.94140344750E+03  0.96563691610E+03  0.00000000000E+00 0. -1.
         22    1    3    3    0    0 -0.40145813089E+00 -0.75796519544E+01 -0.53329306359E+02  0.53866754210E+02  0.00000000000E+00 0.  1.
         22    1    3    3    0    0 -0.31569716770E+02 -0.14211981453E+03  0.18684416594E+02  0.14677805055E+03  0.00000000000E+00 0.  1.
</event>
<event>
 7    1  0.6507405E-006  0.8124734E+02  0.7818608E-02  0.1400053E+00
          2   -1    0    0  502    0  0.00000000000E+00  0.00000000000E+00  0.47857615483E+03  0.47857615483E+03  0.00000000000E+00 0. -1.
          1   -1    0    0  501    0 -0.00000000000E+00 -0.00000000000E+00 -0.30712872554E+03  0.30712872554E+03  0.00000000000E+00 0. -1.
         25    2    1    2    0    0 -0.10728213807E+03  0.25865021794E+02  0.85876912550E+02  0.18755777674E+03  0.12499847601E+03 0.  0.
          2    1    1    2  501    0  0.79782847938E+02  0.78857265369E+01 -0.24857169011E+03  0.26118072791E+03  0.00000000000E+00 0. -1.
          1    1    1    2  502    0  0.27499290129E+02 -0.33750748331E+02  0.33414220685E+03  0.33696637572E+03  0.00000000000E+00 0. -1.
         22    1    3    3    0    0 -0.12212360924E+02 -0.23260308355E+02  0.75622177774E+02  0.80055589907E+02  0.00000000000E+00 0. -1.
         22    1    3    3    0    0 -0.95069777143E+02  0.49125330149E+02  0.10254734776E+02  0.10750218683E+03  0.00000000000E+00 0. -1.
</event>
<event>
 7    1  0.6507405E-006  0.4902034E+02  0.7818608E-02  0.1545640E+00
          2   -1    0    0  502    0  0.00000000000E+00  0.00000000000E+00  0.28667703464E+03  0.28667703464E+03  0.00000000000E+00 0. -1.
          1   -1    0    0  501    0 -0.00000000000E+00 -0.00000000000E+00 -0.81910372206E+03  0.81910372206E+03  0.00000000000E+00 0. -1.
         25    2    1    2    0    0 -0.90340628679E+01 -0.34671934181E+02  0.10416192320E+03  0.16661575327E+03  0.12500938237E+03 0.  0.
          2    1    1    2  501    0 -0.25212702897E+02 -0.36200601898E+01 -0.78330274212E+03  0.78371676710E+03  0.00000000000E+00 0. -1.
          1    1    1    2  502    0  0.34246765764E+02  0.38291994371E+02  0.14671413150E+03  0.15544823633E+03  0.00000000000E+00 0. -1.
         22    1    3    3    0    0 -0.37748014655E+02 -0.71984325309E+02  0.52724886619E+02  0.96884309202E+02  0.00000000000E+00 0. -1.
         22    1    3    3    0    0  0.28713951787E+02  0.37312391128E+02  0.51437036585E+02  0.69731444066E+02  0.00000000000E+00 0. -1.
</event>
<event>
 7    1  0.6507405E-006  0.7770462E+02  0.7818608E-02  0.1426378E+00
          2   -1    0    0  502    0  0.00000000000E+00  0.00000000000E+00  0.14115544580E+04  0.14115544580E+04  0.00000000000E+00 0. -1.
          1   -1    0    0  501    0 -0.00000000000E+00 -0.00000000000E+00 -0.37690841447E+02  0.37690841447E+02  0.00000000000E+00 0. -1.
         25    2    1    2    0    0  0.41540425080E+02 -0.39374025481E+02  0.70065163663E+03  0.71401285627E+03  0.12500288882E+03 0.  0.
          2    1    1    2  501    0 -0.74339536426E-01 -0.37102617456E+02 -0.16105227727E+02  0.40447349834E+02  0.00000000000E+00 0. -1.
          1    1    1    2  502    0 -0.41466085543E+02  0.76476642937E+02  0.68931720768E+03  0.69478509337E+03  0.00000000000E+00 0. -1.
         22    1    3    3    0    0  0.54465848308E+02  0.32852875618E+02  0.35593148174E+03  0.36157026947E+03  0.00000000000E+00 0. -1.
         22    1    3    3    0    0 -0.12925423228E+02 -0.72226901098E+02  0.34472015489E+03  0.35244258681E+03  0.00000000000E+00 0. -1.
</event>
<event>
 7    1  0.6507405E-006  0.6396737E+02  0.7818608E-02  0.1397586E+00
          2   -1    0    0  502    0  0.00000000000E+00  0.00000000000E+00  0.22350709155E+03  0.22350709155E+03  0.00000000000E+00 0. -1.
          1   -1    0    0  501    0 -0.00000000000E+00 -0.00000000000E+00 -0.65729301030E+03  0.65729301030E+03  0.00000000000E+00 0. -1.
         25    2    1    2    0    0  0.44875390068E+02 -0.57206085741E+02 -0.21748561917E+03  0.26117407825E+03  0.12500227088E+03 0.  0.
          2    1    1    2  501    0  0.11034378816E+02  0.64540093070E+02 -0.41138099231E+03  0.41655912181E+03  0.00000000000E+00 0. -1.
          1    1    1    2  502    0 -0.55909768884E+02 -0.73340073291E+01  0.19508069273E+03  0.20306690178E+03  0.00000000000E+00 0. -1.
         22    1    3    3    0    0 -0.43272888271E+02 -0.14651196250E+02 -0.84359699160E+02  0.95936224927E+02  0.00000000000E+00 0. -1.
         22    1    3    3    0    0  0.88148278338E+02 -0.42554889491E+02 -0.13312592001E+03  0.16523785333E+03  0.00000000000E+00 0. -1.
</event>
<event>
 7    1  0.6507405E-006  0.6923340E+02  0.7818608E-02  0.1443504E+00
          2   -1    0    0  502    0  0.00000000000E+00  0.00000000000E+00  0.15343323482E+04  0.15343323482E+04  0.00000000000E+00 0. -1.
          1   -1    0    0  501    0 -0.00000000000E+00 -0.00000000000E+00 -0.16318919533E+04  0.16318919533E+04  0.00000000000E+00 0. -1.
         25    2    1    2    0    0 -0.73046297989E+02  0.37685036637E+02 -0.14343590393E+01  0.14961128777E+03  0.12500222560E+03 0.  0.
          2    1    1    2  501    0  0.69173753133E+02 -0.12844914520E+01 -0.15553706003E+04  0.15569085915E+04  0.00000000000E+00 0. -1.
          1    1    1    2  502    0  0.38725448555E+01 -0.36400545185E+02  0.14592453543E+04  0.14597044222E+04  0.00000000000E+00 0. -1.
         22    1    3    3    0    0 -0.15813700033E+02  0.76496044469E+02 -0.13914427444E+02  0.79343110723E+02  0.00000000000E+00 0.  1.
         22    1    3    3    0    0 -0.57232597956E+02 -0.38811007832E+02  0.12480068405E+02  0.70268177044E+02  0.00000000000E+00 0.  1.
</event>
<event>
 7    1  0.6507405E-006  0.9344805E+02  0.7818608E-02  0.1353763E+00
          2   -1    0    0  502    0  0.00000000000E+00  0.00000000000E+00  0.38671990389E+04  0.38671990389E+04  0.00000000000E+00 0. -1.
          1   -1    0    0  501    0 -0.00000000000E+00 -0.00000000000E+00 -0.46136038106E+03  0.46136038106E+03  0.00000000000E+00 0. -1.
         25    2    1    2    0    0  0.19938395836E+02 -0.42393567298E+02  0.25437779408E+03  0.28726987697E+03  0.12498466273E+03 0.  0.
          2    1    1    2  501    0  0.51039444525E+02 -0.21321020487E+02 -0.44255997415E+03  0.44600329767E+03  0.00000000000E+00 0. -1.
          1    1    1    2  502    0 -0.70977840361E+02  0.63714587785E+02  0.35940208379E+04  0.35952862454E+04  0.00000000000E+00 0. -1.
         22    1    3    3    0    0  0.24114540118E+02 -0.76877496343E+02  0.23286989692E+03  0.24641438550E+03  0.00000000000E+00 0. -1.
         22    1    3    3    0    0 -0.41761442819E+01  0.34483929045E+02  0.21507897159E+02  0.40855491475E+02  0.00000000000E+00 0. -1.
</event>
<event>
 7    1  0.6507405E-006  0.5086347E+02  0.7818608E-02  0.1457796E+00
          2   -1    0    0  502    0  0.00000000000E+00  0.00000000000E+00  0.11724056115E+04  0.11724056115E+04  0.00000000000E+00 0. -1.
          1   -1    0    0  501    0 -0.00000000000E+00 -0.00000000000E+00 -0.14318054965E+04  0.14318054965E+04  0.00000000000E+00 0. -1.
         25    2    1    2    0    0  0.73920923245E+02  0.19374002539E+02  0.53813782382E+03  0.55772547450E+03  0.12500293044E+03 0.  0.
          2    1    1    2  501    0 -0.47877410322E+02  0.17141005434E+02 -0.14207508560E+04  0.14216606682E+04  0.00000000000E+00 0. -1.
          1    1    1    2  502    0 -0.26043512923E+02 -0.36515007972E+02  0.62321314720E+03  0.62482496527E+03  0.00000000000E+00 0. -1.
         22    1    3    3    0    0  0.73763610283E+02 -0.17926797390E+02  0.15311011969E+03  0.17089514041E+03  0.00000000000E+00 0. -1.
         22    1    3    3    0    0  0.15731296213E+00  0.37300799929E+02  0.38502770413E+03  0.38683033409E+03  0.00000000000E+00 0. -1.
</event>
<event>
 7    1  0.6507405E-006  0.4579541E+02  0.7818608E-02  0.1502446E+00
          2   -1    0    0  502    0  0.00000000000E+00  0.00000000000E+00  0.12828431371E+03  0.12828431371E+03  0.00000000000E+00 0. -1.
          1   -1    0    0  501    0 -0.00000000000E+00 -0.00000000000E+00 -0.19849418232E+04  0.19849418232E+04  0.00000000000E+00 0. -1.
         25    2    1    2    0    0 -0.42492880662E+01 -0.62292139250E+02 -0.12910445075E+03  0.19024170536E+03  0.12500232075E+03 0.  0.
          2    1    1    2  501    0 -0.24469505682E+02  0.26866425508E+02 -0.18197565245E+04  0.18201193285E+04  0.00000000000E+00 0. -1.
          1    1    1    2  502    0  0.28718793748E+02  0.35425713743E+02  0.92203465814E+02  0.10286510301E+03  0.00000000000E+00 0. -1.
         22    1    3    3    0    0  0.36324001755E+02 -0.29352034311E+02 -0.12983152383E+03  0.13797535868E+03  0.00000000000E+00 0. -1.
         22    1    3    3    0    0 -0.40573289821E+02 -0.32940104939E+02  0.72707307702E+00  0.52266346683E+02  0.00000000000E+00 0. -1.
</event>
<event>
 7    1  0.6507405E-006  0.8873683E+02  0.7818608E-02  0.1390445E+00
          2   -1    0    0  502    0  0.00000000000E+00  0.00000000000E+00  0.30879958966E+03  0.30879958966E+03  0.00000000000E+00 0. -1.
          1   -1    0    0  501    0 -0.00000000000E+00 -0.00000000000E+00 -0.96856443845E+03  0.96856443845E+03  0.00000000000E+00 0. -1.
         25    2    1    2    0    0  0.40614949003E+02  0.38063954482E+02 -0.23384465621E+03  0.27093720150E+03  0.12500082082E+03 0.  0.
          2    1    1    2  501    0  0.42761578419E+02 -0.48401570848E+01 -0.70856673940E+03  0.70987238564E+03  0.00000000000E+00 0. -1.
          1    1    1    2  502    0 -0.83376527421E+02 -0.33223797397E+02  0.28264654681E+03  0.29655444098E+03  0.00000000000E+00 0. -1.
         22    1    3    3    0    0  0.50935882728E+02  0.70861554136E+02 -0.99897123037E+02  0.13264712283E+03  0.00000000000E+00 0.  1.
         22    1    3    3    0    0 -0.10320933725E+02 -0.32797599654E+02 -0.13394753317E+03  0.13829007867E+03  0.00000000000E+00 0.  1.
</event>
<event>
 7    1  0.6507405E-006  0.1159643E+03  0.7818608E-02  0.1352949E+00
          2   -1    0    0  502    0  0.00000000000E+00  0.00000000000E+00  0.22191092730E+04  0.22191092730E+04  0.00000000000E+00 0. -1.
          1   -1    0    0  501    0 -0.00000000000E+00 -0.00000000000E+00 -0.44724391301E+03  0.44724391301E+03  0.00000000000E+00 0. -1.
         25    2    1    2    0    0 -0.39729663684E+02  0.10205877290E+03  0.69790574755E+02  0.18025177408E+03  0.12500215372E+03 0.  0.
          2    1    1    2  501    0 -0.41015658421E+02 -0.18226588814E+02 -0.38910491352E+03  0.39168498375E+03  0.00000000000E+00 0. -1.
          1    1    1    2  502    0  0.80745322105E+02 -0.83832184081E+02  0.20911796988E+04  0.20944164282E+04  0.00000000000E+00 0. -1.
         22    1    3    3    0    0 -0.53848672637E+02  0.60448483738E+02  0.98700519219E+02  0.12765379440E+03  0.00000000000E+00 0. -1.
         22    1    3    3    0    0  0.14119008953E+02  0.41610289157E+02 -0.28909944464E+02  0.52597979681E+02  0.00000000000E+00 0. -1.
</event>
<event>
 7    1  0.6507405E-006  0.1246807E+03  0.7818608E-02  0.1399354E+00
          2   -1    0    0  502    0  0.00000000000E+00  0.00000000000E+00  0.20358815982E+04  0.20358815982E+04  0.00000000000E+00 0. -1.
          1   -1    0    0  501    0 -0.00000000000E+00 -0.00000000000E+00 -0.15394289094E+04  0.15394289094E+04  0.00000000000E+00 0. -1.
         25    2    1    2    0    0 -0.90492385922E+02 -0.60911955805E+02 -0.32946279556E+03  0.36886202379E+03  0.12495727536E+03 0.  0.
          2    1    1    2  501    0  0.91111716553E+02  0.89432269763E+02 -0.11867416369E+04  0.11935892043E+04  0.00000000000E+00 0. -1.
          1    1    1    2  502    0 -0.61933063016E+00 -0.28520313959E+02  0.20126571212E+04  0.20128592796E+04  0.00000000000E+00 0. -1.
         22    1    3    3    0    0 -0.51166963847E+02  0.23631838649E+02 -0.20935819546E+03  0.21681184468E+03  0.00000000000E+00 0. -1.
         22    1    3    3    0    0 -0.39325422076E+02 -0.84543794453E+02 -0.12010460010E+03  0.15205017911E+03  0.00000000000E+00 0. -1.
</event>
<event>
 7    1  0.6507405E-006  0.8574318E+02  0.7818608E-02  0.1357008E+00
          2   -1    0    0  502    0  0.00000000000E+00  0.00000000000E+00  0.87949333982E+03  0.87949333982E+03  0.00000000000E+00 0. -1.
          1   -1    0    0  501    0 -0.00000000000E+00 -0.00000000000E+00 -0.94497206089E+02  0.94497206089E+02  0.00000000000E+00 0. -1.
         25    2    1    2    0    0 -0.35693123767E+02 -0.24133094153E+02  0.26478563425E+03  0.29596058224E+03  0.12499931528E+03 0.  0.
          2    1    1    2  501    0 -0.58651599534E+02  0.45166577139E-01 -0.63390443600E+02  0.86361800049E+02  0.00000000000E+00 0. -1.
          1    1    1    2  502    0  0.94344723301E+02  0.24087927576E+02  0.58360094308E+03  0.59166816362E+03  0.00000000000E+00 0. -1.
         22    1    3    3    0    0 -0.17827795149E+02  0.30658977139E+02  0.22035536870E+03  0.22319115501E+03  0.00000000000E+00 0. -1.
         22    1    3    3    0    0 -0.17865328618E+02 -0.54792071293E+02  0.44430265543E+02  0.72769427230E+02  0.00000000000E+00 0. -1.
</event>
<event>
 7    1  0.6507405E-006  0.7570469E+02  0.7818608E-02  0.1391528E+00
          2   -1    0    0  502    0  0.00000000000E+00  0.00000000000E+00  0.21911734986E+04  0.21911734986E+04  0.00000000000E+00 0. -1.
          1   -1    0    0  501    0 -0.00000000000E+00 -0.00000000000E+00 -0.20305885990E+02  0.20305885990E+02  0.00000000000E+00 0. -1.
         25    2    1    2    0    0 -0.15572246091E+02 -0.11286514453E+03  0.51318714842E+03  0.54033950265E+03  0.12499877247E+03 0.  0.
          2    1    1    2  501    0  0.99570783980E+01  0.63174836023E+02  0.15564609465E+03  0.16827331963E+03  0.00000000000E+00 0. -1.
          1    1    1    2  502    0  0.56151676928E+01  0.49690308506E+02  0.15020343695E+04  0.15028665623E+04  0.00000000000E+00 0. -1.
         22    1    3    3    0    0  0.56751041410E+01  0.21399594385E+02  0.24155407829E+02  0.32766342094E+02  0.00000000000E+00 0. -1.
         22    1    3    3    0    0 -0.21247350232E+02 -0.13426473891E+03  0.48903174059E+03  0.50757316055E+03  0.00000000000E+00 0. -1.
</event>
<event>
 7    1  0.6507405E-006  0.3202927E+03  0.7818608E-02  0.1243018E+00
          2   -1    0    0  502    0  0.00000000000E+00  0.00000000000E+00  0.20437804578E+04  0.20437804578E+04  0.00000000000E+00 0. -1.
          1   -1    0    0  501    0 -0.00000000000E+00 -0.00000000000E+00 -0.60127775413E+03  0.60127775413E+03  0.00000000000E+00 0. -1.
         25    2    1    2    0    0  0.29917553363E+03 -0.18819940968E+03  0.36143458479E+03  0.52075446132E+03  0.12500092872E+03 0.  0.
          2    1    1    2  501    0 -0.28045935344E+03  0.14728194713E+03 -0.47316691693E+03  0.56941755519E+03  0.00000000000E+00 0. -1.
          1    1    1    2  502    0 -0.18716180188E+02  0.40917462550E+02  0.15542350358E+04  0.15548861954E+04  0.00000000000E+00 0. -1.
         22    1    3    3    0    0  0.14969905856E+03 -0.11267237447E+03  0.10587250747E+03  0.21520655181E+03  0.00000000000E+00 0.  1.
         22    1    3    3    0    0  0.14947647506E+03 -0.75527035205E+02  0.25556207731E+03  0.30554790951E+03  0.00000000000E+00 0.  1.
</event>
<event>
 7    1  0.6507405E-006  0.1401905E+03  0.7818608E-02  0.1254389E+00
          2   -1    0    0  502    0  0.00000000000E+00  0.00000000000E+00  0.15630094317E+04  0.15630094317E+04  0.00000000000E+00 0. -1.
          1   -1    0    0  501    0 -0.00000000000E+00 -0.00000000000E+00 -0.54853992890E+03  0.54853992890E+03  0.00000000000E+00 0. -1.
         25    2    1    2    0    0 -0.35704038421E+02 -0.35980065082E+02  0.48063225968E+03  0.49920112678E+03  0.12500020994E+03 0.  0.
          2    1    1    2  501    0  0.87741527342E+02  0.11153260676E+03 -0.52790707924E+03  0.54664795097E+03  0.00000000000E+00 0. -1.
          1    1    1    2  502    0 -0.52037488921E+02 -0.75552541677E+02  0.10617443223E+04  0.10657002828E+04  0.00000000000E+00 0. -1.
         22    1    3    3    0    0 -0.41523144257E+02 -0.64478352514E+02  0.16191516895E+03  0.17915956962E+03  0.00000000000E+00 0.  1.
         22    1    3    3    0    0  0.58191058359E+01  0.28498287432E+02  0.31871709074E+03  0.32004155716E+03  0.00000000000E+00 0.  1.
</event>
<event>
 7    1  0.6507405E-006  0.1209840E+03  0.7818608E-02  0.1377179E+00
          2   -1    0    0  502    0  0.00000000000E+00  0.00000000000E+00  0.67176471939E+03  0.67176471939E+03  0.00000000000E+00 0. -1.
          1   -1    0    0  501    0 -0.00000000000E+00 -0.00000000000E+00 -0.61245495694E+03  0.61245495694E+03  0.00000000000E+00 0. -1.
         25    2    1    2    0    0 -0.45382872301E+02  0.82620731714E+02 -0.14483184235E+02  0.15722761859E+03  0.12499988406E+03 0.  0.
          2    1    1    2  501    0  0.39715769813E+02 -0.11731015541E+03 -0.51878947494E+03  0.53336810389E+03  0.00000000000E+00 0. -1.
          1    1    1    2  502    0  0.56671024882E+01  0.34689423693E+02  0.59258242163E+03  0.59362395385E+03  0.00000000000E+00 0. -1.
         22    1    3    3    0    0 -0.21702067604E+02  0.14654941953E+02  0.52651452215E+02  0.58804102597E+02  0.00000000000E+00 0.  1.
         22    1    3    3    0    0 -0.23680804698E+02  0.67965789761E+02 -0.67134636450E+02  0.98423515992E+02  0.00000000000E+00 0.  1.
</event>
<event>
 7    1  0.6507405E-006  0.1404388E+03  0.7818608E-02  0.1342036E+00
          2   -1    0    0  502    0  0.00000000000E+00  0.00000000000E+00  0.66111230839E+03  0.66111230839E+03  0.00000000000E+00 0. -1.
          1   -1    0    0  501    0 -0.00000000000E+00 -0.00000000000E+00 -0.21011199711E+04  0.21011199711E+04  0.00000000000E+00 0. -1.
         25    2    1    2    0    0  0.13401979505E+03 -0.44123290012E+02 -0.38290841990E+02  0.19235224844E+03  0.12500011485E+03 0.  0.
          2    1    1    2  501    0 -0.11540900687E+03  0.80309960465E+02 -0.19825969760E+04  0.19875763376E+04  0.00000000000E+00 0. -1.
          1    1    1    2  502    0 -0.18610788176E+02 -0.36186670453E+02  0.58088015529E+03  0.58230369342E+03  0.00000000000E+00 0. -1.
         22    1    3    3    0    0  0.62656237643E+02 -0.75365355226E+02 -0.55414259986E+02  0.11258988007E+03  0.00000000000E+00 0.  1.
         22    1    3    3    0    0  0.71363557405E+02  0.31242065213E+02  0.17123417996E+02  0.79762368371E+02  0.00000000000E+00 0.  1.
</event>
<event>
 7    1  0.6507405E-006  0.1084708E+03  0.7818608E-02  0.1274223E+00
          2   -1    0    0  502    0  0.00000000000E+00  0.00000000000E+00  0.74161484391E+03  0.74161484391E+03  0.00000000000E+00 0. -1.
          1   -1    0    0  501    0 -0.00000000000E+00 -0.00000000000E+00 -0.26564610147E+04  0.26564610147E+04  0.00000000000E+00 0. -1.
         25    2    1    2    0    0  0.51186741298E+02  0.27101520656E+02  0.37612969773E+02  0.14280842928E+03  0.12499974828E+03 0.  0.
          2    1    1    2  501    0  0.49831647790E+02 -0.84036217519E+02 -0.25977772277E+04  0.25996137797E+04  0.00000000000E+00 0. -1.
          1    1    1    2  502    0 -0.10101838909E+03  0.56934696863E+02  0.64531808715E+03  0.65565364961E+03  0.00000000000E+00 0. -1.
         22    1    3    3    0    0 -0.18887553068E+02  0.11206852096E+02 -0.34571356036E+02  0.40957439531E+02  0.00000000000E+00 0.  1.
         22    1    3    3    0    0  0.70074294366E+02  0.15894668560E+02  0.72184325808E+02  0.10185098974E+03  0.00000000000E+00 0.  1.
</event>
<event>
 7    1  0.6507405E-006  0.1946958E+03  0.7818608E-02  0.1198841E+00
          2   -1    0    0  502    0  0.00000000000E+00  0.00000000000E+00  0.21904253611E+04  0.21904253611E+04  0.00000000000E+00 0. -1.
          1   -1    0    0  501    0 -0.00000000000E+00 -0.00000000000E+00 -0.58066941233E+03  0.58066941233E+03  0.00000000000E+00 0. -1.
         25    2    1    2    0    0 -0.19574500252E+03 -0.15322231191E+03  0.45264162348E+03  0.53132214024E+03  0.12500237805E+03 0.  0.
          2    1    1    2  501    0  0.86075510688E+01  0.11731766836E+03 -0.52950972960E+03  0.54241873030E+03  0.00000000000E+00 0. -1.
          1    1    1    2  502    0  0.18713745145E+03  0.35904643552E+02  0.16866240549E+04  0.16973539029E+04  0.00000000000E+00 0. -1.
         22    1    3    3    0    0  0.19308325387E+01 -0.10096526704E+02 -0.59193229064E+01  0.11861970724E+02  0.00000000000E+00 0.  1.
         22    1    3    3    0    0 -0.19767583506E+03 -0.14312578521E+03  0.45856094639E+03  0.51946016951E+03  0.00000000000E+00 0.  1.
</event>
<event>
 7    1  0.6507405E-006  0.5297827E+02  0.7818608E-02  0.1446750E+00
          2   -1    0    0  502    0  0.00000000000E+00  0.00000000000E+00  0.16522631720E+03  0.16522631720E+03  0.00000000000E+00 0. -1.
          1   -1    0    0  501    0 -0.00000000000E+00 -0.00000000000E+00 -0.50479839713E+03  0.50479839713E+03  0.00000000000E+00 0. -1.
         25    2    1    2    0    0 -0.20422859507E+02 -0.11994064955E+02 -0.26114961981E+03  0.29048946456E+03  0.12499621720E+03 0.  0.
          2    1    1    2  501    0  0.21008592579E+02 -0.41707047988E+02 -0.22167827585E+03  0.22654380768E+03  0.00000000000E+00 0. -1.
          1    1    1    2  502    0 -0.58573307153E+00  0.53701112944E+02  0.14325581572E+03  0.15299144209E+03  0.00000000000E+00 0. -1.
         22    1    3    3    0    0 -0.43236541058E+02  0.46725497720E+02 -0.11759223046E+03  0.13371837303E+03  0.00000000000E+00 0.  1.
         22    1    3    3    0    0  0.22813681550E+02 -0.58719562675E+02 -0.14355738934E+03  0.15677109154E+03  0.00000000000E+00 0.  1.
</event>
<event>
 7    1  0.6507405E-006  0.3200077E+02  0.7818608E-02  0.1595676E+00
          2   -1    0    0  502    0  0.00000000000E+00  0.00000000000E+00  0.12714082470E+04  0.12714082470E+04  0.00000000000E+00 0. -1.
          1   -1    0    0  501    0 -0.00000000000E+00 -0.00000000000E+00 -0.65113475433E+02  0.65113475433E+02  0.00000000000E+00 0. -1.
         25    2    1    2    0    0  0.17186813462E+02 -0.57620443534E+02  0.36811110864E+03  0.39337863022E+03  0.12500182535E+03 0.  0.
          2    1    1    2  501    0 -0.10275585664E+02  0.29932712661E+02 -0.47457752407E+02  0.57042030219E+02  0.00000000000E+00 0. -1.
          1    1    1    2  502    0 -0.69112277980E+01  0.27687730873E+02  0.88564141538E+03  0.88610106204E+03  0.00000000000E+00 0. -1.
         22    1    3    3    0    0 -0.97519812001E+01 -0.12759919337E+02  0.32550082687E+03  0.32589677043E+03  0.00000000000E+00 0. -1.
         22    1    3    3    0    0  0.26938794662E+02 -0.44860524197E+02  0.42610281765E+02  0.67481859793E+02  0.00000000000E+00 0. -1.
</event>
<event>
 7    1  0.6507405E-006  0.8663596E+02  0.7818608E-02  0.1347031E+00
          2   -1    0    0  502    0  0.00000000000E+00  0.00000000000E+00  0.13092922178E+04  0.13092922178E+04  0.00000000000E+00 0. -1.
          1   -1    0    0  501    0 -0.00000000000E+00 -0.00000000000E+00 -0.41957749473E+03  0.41957749473E+03  0.00000000000E+00 0. -1.
         25    2    1    2    0    0  0.13616470195E+03  0.45720031713E+02  0.15500298010E+03  0.24552607991E+03  0.12500393882E+03 0.  0.
          2    1    1    2  501    0 -0.52045737806E+02 -0.35832665863E+02 -0.37001661265E+03  0.37537319084E+03  0.00000000000E+00 0. -1.
          1    1    1    2  502    0 -0.84118964148E+02 -0.98873658501E+01  0.11047283556E+04  0.11079704418E+04  0.00000000000E+00 0. -1.
         22    1    3    3    0    0 -0.18664460875E+02  0.20155489433E+02  0.48929538904E+02  0.56113328465E+02  0.00000000000E+00 0. -1.
         22    1    3    3    0    0  0.15482916283E+03  0.25564542279E+02  0.10607344119E+03  0.18941275145E+03  0.00000000000E+00 0. -1.
</event>
<event>
 7    1  0.6507405E-006  0.5770833E+02  0.7818608E-02  0.1472360E+00
          2   -1    0    0  502    0  0.00000000000E+00  0.00000000000E+00  0.14605704231E+04  0.14605704231E+04  0.00000000000E+00 0. -1.
          1   -1    0    0  501    0 -0.00000000000E+00 -0.00000000000E+00 -0.34068257470E+03  0.34068257470E+03  0.00000000000E+00 0. -1.
         25    2    1    2    0    0  0.52582601204E+02 -0.72958560099E+02  0.62334914159E+02  0.16612842599E+03  0.12500052383E+03 0.  0.
          2    1    1    2  501    0 -0.41316050689E+02  0.39199528695E+02 -0.28573985860E+03  0.29136040549E+03  0.00000000000E+00 0. -1.
          1    1    1    2  502    0 -0.11266550516E+02  0.33759031403E+02  0.13432927928E+04  0.13437641663E+04  0.00000000000E+00 0. -1.
         22    1    3    3    0    0  0.87141420421E+02 -0.40148425822E+02  0.68765665640E+02  0.11804338194E+03  0.00000000000E+00 0.  1.
         22    1    3    3    0    0 -0.34558819216E+02 -0.32810134276E+02 -0.64307514809E+01  0.48085044052E+02  0.00000000000E+00 0.  1.
</event>
<event>
 7    1  0.7824760E-006  0.4505080E+02  0.7818608E-02  0.1476238E+00
          2   -1    0    0  502    0  0.00000000000E+00  0.00000000000E+00  0.18090360714E+04  0.18090360714E+04  0.00000000000E+00 0. -1.
          1   -1    0    0  501    0 -0.00000000000E+00 -0.00000000000E+00 -0.88452606579E+03  0.88452606579E+03  0.00000000000E+00 0. -1.
         25    2    1    2    0    0 -0.13795287110E+02 -0.16492028004E+01 -0.11176867228E+03  0.16825713007E+03  0.12500078359E+03 0.  0.
          2    1    1    2  501    0  0.72728125959E+01  0.45514286530E+02 -0.74352332489E+03  0.74495058811E+03  0.00000000000E+00 0. -1.
          1    1    1    2  502    0  0.65224745143E+01 -0.43865083729E+02  0.17798020027E+04  0.17803544190E+04  0.00000000000E+00 0. -1.
         22    1    3    3    0    0 -0.67783693269E+02 -0.92704941801E+01 -0.44273387420E+02  0.81490514597E+02  0.00000000000E+00 0. -1.
         22    1    3    3    0    0  0.53988406159E+02  0.76212913797E+01 -0.67495284857E+02  0.86766615468E+02  0.00000000000E+00 0. -1.
</event>
<event>
 7    1  0.6507405E-006  0.1328493E+03  0.7818608E-02  0.1363222E+00
          2   -1    0    0  502    0  0.00000000000E+00  0.00000000000E+00  0.16692368390E+04  0.16692368390E+04  0.00000000000E+00 0. -1.
          1   -1    0    0  501    0 -0.00000000000E+00 -0.00000000000E+00 -0.40507680594E+02  0.40507680594E+02  0.00000000000E+00 0. -1.
         25    2    1    2    0    0 -0.23258502128E+02 -0.10085887693E+03  0.32606507105E+03  0.36421900913E+03  0.12499434019E+03 0.  0.
          2    1    1    2  501    0 -0.16785361409E+02 -0.31767191000E+02  0.41868381479E+00  0.35931574942E+02  0.00000000000E+00 0. -1.
          1    1    1    2  502    0  0.40043863537E+02  0.13262606793E+03  0.13022454036E+04  0.13095939355E+04  0.00000000000E+00 0. -1.
         22    1    3    3    0    0 -0.60012206872E+02 -0.92716060788E+02  0.29634473092E+03  0.31625611843E+03  0.00000000000E+00 0.  1.
         22    1    3    3    0    0  0.36753704744E+02 -0.81428161410E+01  0.29720340133E+02  0.47962890704E+02  0.00000000000E+00 0.  1.
</event>
<event>
 7    1  0.6507405E-006  0.1127444E+03  0.7818608E-02  0.1374212E+00
          2   -1    0    0  502    0  0.00000000000E+00  0.00000000000E+00  0.21664723167E+04  0.21664723167E+04  0.00000000000E+00 0. -1.
          1   -1    0    0  501    0 -0.00000000000E+00 -0.00000000000E+00 -0.32594611940E+03  0.32594611940E+03  0.00000000000E+00 0. -1.
         25    2    1    2    0    0 -0.38946664094E+02 -0.11144851941E+03  0.79661810663E+03  0.81496193759E+03  0.12499974715E+03 0.  0.
          2    1    1    2  501    0  0.38627574896E+02 -0.12549366329E+01 -0.31325081295E+03  0.31562594352E+03  0.00000000000E+00 0. -1.
          1    1    1    2  502    0  0.31908919769E+00  0.11270345604E+03  0.13571589036E+04  0.13618305549E+04  0.00000000000E+00 0. -1.
         22    1    3    3    0    0  0.35609717689E+01 -0.75253073107E+02  0.69453609796E+03  0.69861011795E+03  0.00000000000E+00 0.  1.
         22    1    3    3    0    0 -0.42507635863E+02 -0.36195446302E+02  0.10208200867E+03  0.11635181964E+03  0.00000000000E+00 0.  1.
</event>
<event>
 7    1  0.6507405E-006  0.1961018E+03  0.7818608E-02  0.1210567E+00
          2   -1    0    0  502    0  0.00000000000E+00  0.00000000000E+00  0.50658733249E+03  0.50658733249E+03  0.00000000000E+00 0. -1.
          1   -1    0    0  501    0 -0.00000000000E+00 -0.00000000000E+00 -0.17751247717E+04  0.17751247717E+04  0.00000000000E+00 0. -1.
         25    2    1    2    0    0  0.28052651350E+03  0.81165223411E+02 -0.27115259484E+03  0.41765401475E+03  0.12501291164E+03 0.  0.
          2    1    1    2  501    0 -0.10163101234E+03 -0.16297252951E+02 -0.14078606331E+04  0.14116182293E+04  0.00000000000E+00 0. -1.
          1    1    1    2  502    0 -0.17889550116E+03 -0.64867970460E+02  0.41047578871E+03  0.45243986014E+03  0.00000000000E+00 0. -1.
         22    1    3    3    0    0  0.53376837618E+02  0.72745880687E+02 -0.82521662497E+02  0.12227376960E+03  0.00000000000E+00 0. -1.
         22    1    3    3    0    0  0.22714967589E+03  0.84193427247E+01 -0.18863093234E+03  0.29538024515E+03  0.00000000000E+00 0. -1.
</event>
<event>
 7    1  0.6507405E-006  0.4346115E+02  0.7818608E-02  0.1495910E+00
          2   -1    0    0  502    0  0.00000000000E+00  0.00000000000E+00  0.45175284534E+02  0.45175284534E+02  0.00000000000E+00 0. -1.
          1   -1    0    0  501    0 -0.00000000000E+00 -0.00000000000E+00 -0.61029619758E+03  0.61029619758E+03  0.00000000000E+00 0. -1.
         25    2    1    2    0    0  0.17460251073E+02 -0.99040724099E+00 -0.32203237270E+03  0.34588371378E+03  0.12499941248E+03 0.  0.
          2    1    1    2  501    0 -0.12133076614E+02  0.44123835279E+02 -0.25922085632E+03  0.26322913353E+03  0.00000000000E+00 0. -1.
          1    1    1    2  502    0 -0.53271744588E+01 -0.43133428038E+02  0.16132315970E+02  0.46358634801E+02  0.00000000000E+00 0. -1.
         22    1    3    3    0    0  0.21702737107E+02  0.11857514350E+02 -0.32950182356E+03  0.33042860223E+03  0.00000000000E+00 0.  1.
         22    1    3    3    0    0 -0.42424860339E+01 -0.12847921591E+02  0.74694508598E+01  0.15455111553E+02  0.00000000000E+00 0.  1.
</event>
<event>
 7    1  0.6507405E-006  0.1033474E+03  0.7818608E-02  0.1324408E+00
          2   -1    0    0  502    0  0.00000000000E+00  0.00000000000E+00  0.29333486925E+03  0.29333486925E+03  0.00000000000E+00 0. -1.
          1   -1    0    0  501    0 -0.00000000000E+00 -0.00000000000E+00 -0.23816535745E+03  0.23816535745E+03  0.00000000000E+00 0. -1.
         25    2    1    2    0    0  0.11761409309E+03 -0.15802185618E+00 -0.11149469763E+03  0.20466755586E+03  0.12499856382E+03 0.  0.
          2    1    1    2  501    0 -0.84317820747E+02 -0.55109008066E+02 -0.41465896286E+02  0.10893079556E+03  0.00000000000E+00 0. -1.
          1    1    1    2  502    0 -0.33296272345E+02  0.55267029922E+02  0.20813010571E+03  0.21790187529E+03  0.00000000000E+00 0. -1.
         22    1    3    3    0    0  0.66048022073E+02 -0.26661742623E+02  0.81736662098E+01  0.71693783265E+02  0.00000000000E+00 0. -1.
         22    1    3    3    0    0  0.51566071018E+02  0.26503720767E+02 -0.11966836384E+03  0.13297377260E+03  0.00000000000E+00 0. -1.
</event>
<event>
 7    1  0.6507405E-006  0.1137339E+03  0.7818608E-02  0.1319027E+00
          2   -1    0    0  502    0  0.00000000000E+00  0.00000000000E+00  0.29659643722E+03  0.29659643722E+03  0.00000000000E+00 0. -1.
          1   -1    0    0  501    0 -0.00000000000E+00 -0.00000000000E+00 -0.66334477015E+03  0.66334477015E+03  0.00000000000E+00 0. -1.
         25    2    1    2    0    0 -0.84889462697E+02  0.14336784531E+03 -0.13952482799E+03  0.25070487739E+03  0.12500079190E+03 0.  0.
          2    1    1    2  501    0  0.12094878287E+02 -0.60308311659E+02 -0.45339016886E+03  0.45754346652E+03  0.00000000000E+00 0. -1.
          1    1    1    2  502    0  0.72794584411E+02 -0.83059533654E+02  0.22616666392E+03  0.25169286346E+03  0.00000000000E+00 0. -1.
         22    1    3    3    0    0 -0.14504253986E+02 -0.21935756830E+02 -0.63178377419E+01  0.27045625988E+02  0.00000000000E+00 0.  1.
         22    1    3    3    0    0 -0.70385208712E+02  0.16530360214E+03 -0.13320699025E+03  0.22365925140E+03  0.00000000000E+00 0.  1.
</event>
<event>
 7    1  0.6507405E-006  0.1280018E+03  0.7818608E-02  0.1272519E+00
          2   -1    0    0  502    0  0.00000000000E+00  0.00000000000E+00  0.89331725920E+03  0.89331725920E+03  0.00000000000E+00 0. -1.
          1   -1    0    0  501    0 -0.00000000000E+00 -0.00000000000E+00 -0.26097293419E+03  0.26097293419E+03  0.00000000000E+00 0. -1.
         25    2    1    2    0    0 -0.34305803343E+02 -0.58871568718E+02  0.13951540196E+02  0.14304717051E+03  0.12500039108E+03 0.  0.
          2    1    1    2  501    0  0.96480183436E+02  0.11559324021E+03 -0.16498274557E+03  0.22335964119E+03  0.00000000000E+00 0. -1.
          1    1    1    2  502    0 -0.62174380093E+02 -0.56721671490E+02  0.78337553038E+03  0.78788338170E+03  0.00000000000E+00 0. -1.
         22    1    3    3    0    0 -0.59287329201E+01  0.19043361697E+02  0.49090502713E+02  0.52987516977E+02  0.00000000000E+00 0. -1.
         22    1    3    3    0    0 -0.28377070423E+02 -0.77914930415E+02 -0.35138962517E+02  0.90059653531E+02  0.00000000000E+00 0. -1.
</event>
<event>
 7    1  0.6507405E-006  0.5465431E+02  0.7818608E-02  0.1466467E+00
          2   -1    0    0  502    0  0.00000000000E+00  0.00000000000E+00  0.83796474980E+03  0.83796474980E+03  0.00000000000E+00 0. -1.
          1   -1    0    0  501    0 -0.00000000000E+00 -0.00000000000E+00 -0.26412174595E+03  0.26412174595E+03  0.00000000000E+00 0. -1.
         25    2    1    2    0    0 -0.18168062296E+02 -0.41339942957E+01  0.39029066659E+02  0.13226903582E+03  0.12499864558E+03 0.  0.
          2    1    1    2  501    0 -0.36260549658E+02  0.14892690338E+02 -0.21470184584E+03  0.21825100754E+03  0.00000000000E+00 0. -1.
          1    1    1    2  502    0  0.54428611953E+02 -0.10758696043E+02  0.74951578303E+03  0.75156645239E+03  0.00000000000E+00 0. -1.
         22    1    3    3    0    0  0.15792445313E+02  0.55064924117E+02  0.25446457381E+02  0.62682289287E+02  0.00000000000E+00 0.  1.
         22    1    3    3    0    0 -0.33960507609E+02 -0.59198918413E+02  0.13582609278E+02  0.69586746534E+02  0.00000000000E+00 0.  1.
</event>
<event>
 7    1  0.6507405E-006  0.7446078E+02  0.7818608E-02  0.1403206E+00
          2   -1    0    0  502    0  0.00000000000E+00  0.00000000000E+00  0.56330386533E+03  0.56330386533E+03  0.00000000000E+00 0. -1.
          1   -1    0    0  501    0 -0.00000000000E+00 -0.00000000000E+00 -0.53119088052E+02  0.53119088052E+02  0.00000000000E+00 0. -1.
         25    2    1    2    0    0  0.31577429073E+02  0.89346507734E+01  0.35197040307E+03  0.37494689597E+03  0.12500019259E+03 0.  0.
          2    1    1    2  501    0 -0.76168850919E+02 -0.21525745115E+02  0.26917357837E+01  0.79197834532E+02  0.00000000000E+00 0. -1.
          1    1    1    2  502    0  0.44591421846E+02  0.12591094341E+02  0.15552263842E+03  0.16227822288E+03  0.00000000000E+00 0. -1.
         22    1    3    3    0    0  0.23763627495E+02 -0.52123413269E+02  0.24426286419E+03  0.25089022903E+03  0.00000000000E+00 0.  1.
         22    1    3    3    0    0  0.78138015780E+01  0.61058064042E+02  0.10770753889E+03  0.12405666694E+03  0.00000000000E+00 0.  1.
</event>
<event>
 7    1  0.6507405E-006  0.4634872E+02  0.7818608E-02  0.1530364E+00
          2   -1    0    0  502    0  0.00000000000E+00  0.00000000000E+00  0.48940527713E+02  0.48940527713E+02  0.00000000000E+00 0. -1.
          1   -1    0    0  501    0 -0.00000000000E+00 -0.00000000000E+00 -0.18921076500E+04  0.18921076500E+04  0.00000000000E+00 0. -1.
         25    2    1    2    0    0 -0.59982899577E+02  0.33451636528E+02 -0.14647628126E+04  0.14716911715E+04  0.12501138614E+03 0.  0.
          2    1    1    2  501    0  0.38004729156E+02 -0.13380678013E+02 -0.41793578760E+03  0.41987346254E+03  0.00000000000E+00 0. -1.
          1    1    1    2  502    0  0.21978170421E+02 -0.20070958515E+02  0.39531477943E+02  0.49483543720E+02  0.00000000000E+00 0. -1.
         22    1    3    3    0    0 -0.41498053806E+02  0.74673336925E+02 -0.12053815279E+04  0.12084050742E+04  0.00000000000E+00 0. -1.
         22    1    3    3    0    0 -0.18484845770E+02 -0.41221700397E+02 -0.25938128479E+03  0.26328609725E+03  0.00000000000E+00 0. -1.
</event>
<event>
 7    1  0.6507405E-006  0.1737811E+03  0.7818608E-02  0.1282105E+00
          2   -1    0    0  502    0  0.00000000000E+00  0.00000000000E+00  0.17300692243E+04  0.17300692243E+04  0.00000000000E+00 0. -1.
          1   -1    0    0  501    0 -0.00000000000E+00 -0.00000000000E+00 -0.14925880563E+04  0.14925880563E+04  0.00000000000E+00 0. -1.
         25    2    1    2    0    0  0.73777243144E+02  0.99002649293E+02  0.30666302224E+02  0.17835390968E+03  0.12500035534E+03 0.  0.
          2    1    1    2  501    0  0.14128574332E+02  0.54770777495E+02 -0.14133518026E+04  0.14144832175E+04  0.00000000000E+00 0. -1.
          1    1    1    2  502    0 -0.87905817476E+02 -0.15377342679E+03  0.16201666683E+04  0.16298201534E+04  0.00000000000E+00 0. -1.
         22    1    3    3    0    0 -0.98861869813E+01  0.87049073273E+02 -0.22998251064E+01  0.87638844391E+02  0.00000000000E+00 0. -1.
         22    1    3    3    0    0  0.83663430126E+02  0.11953576019E+02  0.32966127330E+02  0.90715065293E+02  0.00000000000E+00 0. -1.
</event>
<event>
 7    1  0.6507405E-006  0.7627456E+02  0.7818608E-02  0.1370696E+00
          2   -1    0    0  502    0  0.00000000000E+00  0.00000000000E+00  0.18348133001E+03  0.18348133001E+03  0.00000000000E+00 0. -1.
          1   -1    0    0  501    0 -0.00000000000E+00 -0.00000000000E+00 -0.26366943017E+04  0.26366943017E+04  0.00000000000E+00 0. -1.
         25    2    1    2    0    0 -0.27700123130E+02 -0.10672199706E+01  0.20950240729E+02  0.12974690904E+03  0.12500764793E+03 0.  0.
          2    1    1    2  501    0  0.55584636780E+02  0.52843725734E+02 -0.25736866430E+04  0.25748291298E+04  0.00000000000E+00 0. -1.
          1    1    1    2  502    0 -0.27884513650E+02 -0.51776505764E+02  0.99523430555E+02  0.11559959291E+03  0.00000000000E+00 0. -1.
         22    1    3    3    0    0  0.44063506298E+02  0.13360043152E+02  0.31503970644E+02  0.55790532410E+02  0.00000000000E+00 0.  1.
         22    1    3    3    0    0 -0.71763629427E+02 -0.14427263122E+02 -0.10553729915E+02  0.73956376634E+02  0.00000000000E+00 0.  1.
</event>
<event>
 7    1  0.6507405E-006  0.9932948E+02  0.7818608E-02  0.1412009E+00
          2   -1    0    0  502    0  0.00000000000E+00  0.00000000000E+00  0.14310207217E+04  0.14310207217E+04  0.00000000000E+00 0. -1.
          1   -1    0    0  501    0 -0.00000000000E+00 -0.00000000000E+00 -0.30276020097E+03  0.30276020097E+03  0.00000000000E+00 0. -1.
         25    2    1    2    0    0  0.11424461932E+03  0.49221390545E+01  0.27776718779E+03  0.32535441201E+03  0.12499928923E+03 0.  0.
          2    1    1    2  501    0 -0.94219099240E+02 -0.30418803272E+02 -0.26994002579E+03  0.28752418990E+03  0.00000000000E+00 0. -1.
          1    1    1    2  502    0 -0.20025520085E+02  0.25496664218E+02  0.11204333587E+04  0.11209023207E+04  0.00000000000E+00 0. -1.
         22    1    3    3    0    0 -0.18990689370E+02  0.25537808577E+02  0.32576735336E+02  0.45541954666E+02  0.00000000000E+00 0. -1.
         22    1    3    3    0    0  0.13323530869E+03 -0.20615669523E+02  0.24519045245E+03  0.27981245735E+03  0.00000000000E+00 0. -1.
</event>
<event>
 7    1  0.6507405E-006  0.7024554E+02  0.7818608E-02  0.1442051E+00
          2   -1    0    0  502    0  0.00000000000E+00  0.00000000000E+00  0.35733760413E+03  0.35733760413E+03  0.00000000000E+00 0. -1.
          1   -1    0    0  501    0 -0.00000000000E+00 -0.00000000000E+00 -0.10081864762E+04  0.10081864762E+04  0.00000000000E+00 0. -1.
         25    2    1    2    0    0 -0.18054280713E+02 -0.34999528012E+02 -0.54451254016E+01  0.13116169662E+03  0.12499126872E+03 0.  0.
          2    1    1    2  501    0  0.48471506853E+01 -0.36147164569E+02 -0.93507684012E+03  0.93578780143E+03  0.00000000000E+00 0. -1.
          1    1    1    2  502    0  0.13207130028E+02  0.71146692581E+02  0.28967309342E+03  0.29857458231E+03  0.00000000000E+00 0. -1.
         22    1    3    3    0    0 -0.25646639740E+02 -0.63372245660E+02  0.38382352185E+02  0.78402784448E+02  0.00000000000E+00 0. -1.
         22    1    3    3    0    0  0.75923590266E+01  0.28372717648E+02 -0.43827477587E+02  0.52758912175E+02  0.00000000000E+00 0. -1.
</event>
<event>
 7    1  0.6507405E-006  0.8413679E+02  0.7818608E-02  0.1413062E+00
          2   -1    0    0  502    0  0.00000000000E+00  0.00000000000E+00  0.66843080888E+03  0.66843080888E+03  0.00000000000E+00 0. -1.
          1   -1    0    0  501    0 -0.00000000000E+00 -0.00000000000E+00 -0.13351173761E+03  0.13351173761E+03  0.00000000000E+00 0. -1.
         25    2    1    2    0    0  0.49698202027E+02 -0.23511808021E+01  0.70154225012E+02  0.15172763984E+03  0.12499688824E+03 0.  0.
          2    1    1    2  501    0  0.36298989805E+02 -0.11115466793E+02 -0.85267983215E+02  0.93337019582E+02  0.00000000000E+00 0. -1.
          1    1    1    2  502    0 -0.85997191832E+02  0.13466647596E+02  0.55003282948E+03  0.55687788707E+03  0.00000000000E+00 0. -1.
         22    1    3    3    0    0  0.78688854503E+02 -0.99905384229E+01  0.86679129630E+02  0.11749475816E+03  0.00000000000E+00 0. -1.
         22    1    3    3    0    0 -0.28990652476E+02  0.76393576208E+01 -0.16524904618E+02  0.34232881685E+02  0.00000000000E+00 0. -1.
</event>
<event>
 7    1  0.6507405E-006  0.1233976E+03  0.7818608E-02  0.1328576E+00
          2   -1    0    0  502    0  0.00000000000E+00  0.00000000000E+00  0.35838710838E+03  0.35838710838E+03  0.00000000000E+00 0. -1.
          1   -1    0    0  501    0 -0.00000000000E+00 -0.00000000000E+00 -0.19923578795E+04  0.19923578795E+04  0.00000000000E+00 0. -1.
         25    2    1    2    0    0  0.15762541585E+03  0.68446867667E+01 -0.65061411149E+03  0.68104080392E+03  0.12500093231E+03 0.  0.
          2    1    1    2  501    0 -0.38089803887E+02 -0.35521315089E+02 -0.13149900029E+04  0.13160210123E+04  0.00000000000E+00 0. -1.
          1    1    1    2  502    0 -0.11953561197E+03  0.28676628322E+02  0.33163334329E+03  0.35368317167E+03  0.00000000000E+00 0. -1.
         22    1    3    3    0    0  0.11874197110E+03  0.58850688804E+02 -0.49473330288E+03  0.51217584895E+03  0.00000000000E+00 0.  1.
         22    1    3    3    0    0  0.38883444760E+02 -0.52006002038E+02 -0.15588080861E+03  0.16886495497E+03  0.00000000000E+00 0.  1.
</event>
<event>
 7    1  0.6507405E-006  0.7293223E+02  0.7818608E-02  0.1481595E+00
          2   -1    0    0  502    0  0.00000000000E+00  0.00000000000E+00  0.33847771162E+03  0.33847771162E+03  0.00000000000E+00 0. -1.
          1   -1    0    0  501    0 -0.00000000000E+00 -0.00000000000E+00 -0.32204957907E+03  0.32204957907E+03  0.00000000000E+00 0. -1.
         25    2    1    2    0    0 -0.83529182105E+02 -0.19979000726E+02  0.94905316959E+02  0.17890847722E+03  0.12499975720E+03 0.  0.
          2    1    1    2  501    0  0.72495151768E+02 -0.39770270004E+01 -0.27444387334E+03  0.28388519403E+03  0.00000000000E+00 0. -1.
          1    1    1    2  502    0  0.11034030336E+02  0.23956027727E+02  0.19596668893E+03  0.19773361944E+03  0.00000000000E+00 0. -1.
         22    1    3    3    0    0 -0.17029873427E+02  0.43717101403E+02  0.34275842165E+00  0.46918216370E+02  0.00000000000E+00 0. -1.
         22    1    3    3    0    0 -0.66499308678E+02 -0.63696102129E+02  0.94562558538E+02  0.13199026085E+03  0.00000000000E+00 0. -1.
</event>
<event>
 7    1  0.6507405E-006  0.6651067E+02  0.7818608E-02  0.1425869E+00
          2   -1    0    0  502    0  0.00000000000E+00  0.00000000000E+00  0.80077815429E+03  0.80077815429E+03  0.00000000000E+00 0. -1.
          1   -1    0    0  501    0 -0.00000000000E+00 -0.00000000000E+00 -0.18670496496E+03  0.18670496496E+03  0.00000000000E+00 0. -1.
         25    2    1    2    0    0  0.20199655029E+02 -0.90245255205E+02  0.25378856479E+03  0.29763228737E+03  0.12499644281E+03 0.  0.
          2    1    1    2  501    0  0.14818657710E+02  0.64412506887E+02 -0.15720522574E+03  0.17053459080E+03  0.00000000000E+00 0. -1.
          1    1    1    2  502    0 -0.35018312738E+02  0.25832748318E+02  0.51748985027E+03  0.51931624108E+03  0.00000000000E+00 0. -1.
         22    1    3    3    0    0  0.19575879980E+02 -0.37503045134E+02  0.41790616753E+01  0.42510681338E+02  0.00000000000E+00 0.  1.
         22    1    3    3    0    0  0.62377504884E+00 -0.52742210071E+02  0.24960950312E+03  0.25512160603E+03  0.00000000000E+00 0.  1.
</event>
<event>
 7    1  0.1119079E-005  0.8386306E+02  0.7818608E-02  0.1459464E+00
          2   -1    0    0  502    0  0.00000000000E+00  0.00000000000E+00  0.25420969779E+04  0.25420969779E+04  0.00000000000E+00 0. -1.
          1   -1    0    0  501    0 -0.00000000000E+00 -0.00000000000E+00 -0.11704038959E+04  0.11704038959E+04  0.00000000000E+00 0. -1.
         25    2    1    2    0    0 -0.36646853879E+02 -0.10444209988E+03 -0.39725988133E+03  0.43092391748E+03  0.12501545990E+03 0.  0.
          2    1    1    2  501    0  0.83794103134E+01  0.25534497074E+02 -0.75537746150E+03  0.75585536606E+03  0.00000000000E+00 0. -1.
          1    1    1    2  502    0  0.28267443566E+02  0.78907602807E+02  0.25243304248E+04  0.25257215903E+04  0.00000000000E+00 0. -1.
         22    1    3    3    0    0 -0.28370455805E+02 -0.46287361788E+02 -0.35357778366E+03  0.35772147227E+03  0.00000000000E+00 0.  1.
         22    1    3    3    0    0 -0.82763980739E+01 -0.58154738093E+02 -0.43682097668E+02  0.73202445208E+02  0.00000000000E+00 0.  1.
</event>
<event>
 7    1  0.6507405E-006  0.1495181E+03  0.7818608E-02  0.1297330E+00
          2   -1    0    0  502    0  0.00000000000E+00  0.00000000000E+00  0.38214069222E+04  0.38214069222E+04  0.00000000000E+00 0. -1.
          1   -1    0    0  501    0 -0.00000000000E+00 -0.00000000000E+00 -0.27680555939E+02  0.27680555939E+02  0.00000000000E+00 0. -1.
         25    2    1    2    0    0  0.62945641643E+02 -0.12421641783E+03  0.18386242489E+04  0.18481223411E+04  0.12500074613E+03 0.  0.
          2    1    1    2  501    0 -0.11462084699E+03  0.10015579188E+03  0.23544223417E+03  0.28036077979E+03  0.00000000000E+00 0. -1.
          1    1    1    2  502    0  0.51675205344E+02  0.24060625956E+02  0.17196598832E+04  0.17206043573E+04  0.00000000000E+00 0. -1.
         22    1    3    3    0    0  0.95048401082E+01 -0.12779114092E+03  0.10725326574E+04  0.10801607375E+04  0.00000000000E+00 0.  1.
         22    1    3    3    0    0  0.53440801535E+02  0.35747230819E+01  0.76609159155E+03  0.76796160357E+03  0.00000000000E+00 0.  1.
</event>
<event>
 7    1  0.6507405E-006  0.1693079E+03  0.7818608E-02  0.1283614E+00
          2   -1    0    0  502    0  0.00000000000E+00  0.00000000000E+00  0.20192486239E+03  0.20192486239E+03  0.00000000000E+00 0. -1.
          1   -1    0    0  501    0 -0.00000000000E+00 -0.00000000000E+00 -0.82837876913E+03  0.82837876913E+03  0.00000000000E+00 0. -1.
         25    2    1    2    0    0  0.13814837774E+03 -0.98613125082E+02 -0.48294136372E+02  0.21625540257E+03  0.12499821127E+03 0.  0.
          2    1    1    2  501    0 -0.97946568274E+02  0.13935077934E+03 -0.67794469680E+03  0.69901443609E+03  0.00000000000E+00 0. -1.
          1    1    1    2  502    0 -0.40201809471E+02 -0.40737654259E+02  0.99784926432E+02  0.11503379287E+03  0.00000000000E+00 0. -1.
         22    1    3    3    0    0  0.16735688093E+02 -0.45800068848E+02  0.34829127877E+02  0.59923265191E+02  0.00000000000E+00 0.  1.
         22    1    3    3    0    0  0.12141268965E+03 -0.52813056234E+02 -0.83123264249E+02  0.15633213738E+03  0.00000000000E+00 0.  1.
</event>
<event>
 7    1  0.6507405E-006  0.1098215E+03  0.7818608E-02  0.1342556E+00
          2   -1    0    0  502    0  0.00000000000E+00  0.00000000000E+00  0.38271660357E+03  0.38271660357E+03  0.00000000000E+00 0. -1.
          1   -1    0    0  501    0 -0.00000000000E+00 -0.00000000000E+00 -0.56334298696E+03  0.56334298696E+03  0.00000000000E+00 0. -1.
         25    2    1    2    0    0  0.47196055599E+02  0.57373335228E+02  0.49444100503E+01  0.14549655986E+03  0.12500253790E+03 0.  0.
          2    1    1    2  501    0 -0.68742864621E+01  0.51345426125E+02 -0.48069401583E+03  0.48347734741E+03  0.00000000000E+00 0. -1.
          1    1    1    2  502    0 -0.40321769137E+02 -0.10871876135E+03  0.29512322239E+03  0.31708568326E+03  0.00000000000E+00 0. -1.
         22    1    3    3    0    0 -0.37641690770E+02 -0.16528628759E+01  0.17205103636E+02  0.41420338371E+02  0.00000000000E+00 0. -1.
         22    1    3    3    0    0  0.84837746369E+02  0.59026198104E+02 -0.12260693585E+02  0.10407622149E+03  0.00000000000E+00 0. -1.
</event>
<event>
 7    1  0.6507405E-006  0.3868479E+02  0.7818608E-02  0.1519288E+00
          2   -1    0    0  502    0  0.00000000000E+00  0.00000000000E+00  0.46241215012E+02  0.46241215012E+02  0.00000000000E+00 0. -1.
          1   -1    0    0  501    0 -0.00000000000E+00 -0.00000000000E+00 -0.12647514708E+04  0.12647514708E+04  0.00000000000E+00 0. -1.
         25    2    1    2    0    0 -0.36683450982E+02  0.47934859129E+02 -0.38110552478E+03  0.40559844197E+03  0.12500099526E+03 0.  0.
          2    1    1    2  501    0 -0.53552319569E+00 -0.38379390641E+02 -0.85997420603E+03  0.86083035463E+03  0.00000000000E+00 0. -1.
          1    1    1    2  502    0  0.37218974177E+02 -0.95554684881E+01  0.22569475038E+02  0.44563889197E+02  0.00000000000E+00 0. -1.
         22    1    3    3    0    0 -0.31496341354E+02  0.14784028931E+01 -0.12304545974E+02  0.33846817361E+02  0.00000000000E+00 0. -1.
         22    1    3    3    0    0 -0.51871096270E+01  0.46456456236E+02 -0.36880097881E+03  0.37175162461E+03  0.00000000000E+00 0. -1.
</event>
<event>
 7    1  0.6507405E-006  0.7670283E+02  0.7818608E-02  0.1471565E+00
          2   -1    0    0  502    0  0.00000000000E+00  0.00000000000E+00  0.19535738688E+03  0.19535738688E+03  0.00000000000E+00 0. -1.
          1   -1    0    0  501    0 -0.00000000000E+00 -0.00000000000E+00 -0.56889341791E+03  0.56889341791E+03  0.00000000000E+00 0. -1.
         25    2    1    2    0    0 -0.38693157769E+01 -0.80342692337E+02 -0.39014115183E+03  0.41749876658E+03  0.12500072772E+03 0.  0.
          2    1    1    2  501    0 -0.25248295529E+02  0.93638444897E+01 -0.15576710744E+03  0.15807767005E+03  0.00000000000E+00 0. -1.
          1    1    1    2  502    0  0.29117611306E+02  0.70978847847E+02  0.17237222824E+03  0.18867436815E+03  0.00000000000E+00 0. -1.
         22    1    3    3    0    0  0.28556673564E+02 -0.22917194879E+01 -0.26467149259E+03  0.26621745731E+03  0.00000000000E+00 0. -1.
         22    1    3    3    0    0 -0.32425989341E+02 -0.78050972849E+02 -0.12546965924E+03  0.15128130928E+03  0.00000000000E+00 0. -1.
</event>
<event>
 7    1  0.6507405E-006  0.6425997E+02  0.7818608E-02  0.1388463E+00
          2   -1    0    0  502    0  0.00000000000E+00  0.00000000000E+00  0.67654193514E+03  0.67654193514E+03  0.00000000000E+00 0. -1.
          1   -1    0    0  501    0 -0.00000000000E+00 -0.00000000000E+00 -0.18884321869E+03  0.18884321869E+03  0.00000000000E+00 0. -1.
         25    2    1    2    0    0 -0.79437711956E+02  0.34477478723E+02 -0.22020131418E+02  0.15365448227E+03  0.12500306842E+03 0.  0.
          2    1    1    2  501    0  0.24342748922E+02 -0.59185119001E+02 -0.89196550238E+02  0.10977919799E+03  0.00000000000E+00 0. -1.
          1    1    1    2  502    0  0.55094963034E+02  0.24707640279E+02  0.59891539811E+03  0.60195147357E+03  0.00000000000E+00 0. -1.
         22    1    3    3    0    0 -0.73251714070E+02  0.78625235606E+02 -0.16927790404E+02  0.10878552926E+03  0.00000000000E+00 0. -1.
         22    1    3    3    0    0 -0.61859978859E+01 -0.44147756883E+02 -0.50923410138E+01  0.44868953015E+02  0.00000000000E+00 0. -1.
</event>
<event>
 7    1  0.6507405E-006  0.7087964E+02  0.7818608E-02  0.1444126E+00
          2   -1    0    0  502    0  0.00000000000E+00  0.00000000000E+00  0.12701295275E+03  0.12701295275E+03  0.00000000000E+00 0. -1.
          1   -1    0    0  501    0 -0.00000000000E+00 -0.00000000000E+00 -0.49233864387E+03  0.49233864387E+03  0.00000000000E+00 0. -1.
         25    2    1    2    0    0 -0.59922790571E+02 -0.53679105841E+02 -0.34758972332E+02  0.15266429465E+03  0.12500405381E+03 0.  0.
          2    1    1    2  501    0  0.26413796791E+02  0.65672953135E+02 -0.39056459290E+03  0.39692735690E+03  0.00000000000E+00 0. -1.
          1    1    1    2  502    0  0.33508993779E+02 -0.11993847294E+02  0.59997874107E+02  0.69759945057E+02  0.00000000000E+00 0. -1.
         22    1    3    3    0    0 -0.15047749953E+02 -0.36467819063E+02  0.44812867706E+02  0.59703682616E+02  0.00000000000E+00 0.  1.
         22    1    3    3    0    0 -0.44875040618E+02 -0.17211286778E+02 -0.79571840037E+02  0.92960612035E+02  0.00000000000E+00 0.  1.
</event>
<event>
 7    1  0.6507405E-006  0.3634289E+02  0.7818608E-02  0.1539768E+00
          2   -1    0    0  502    0  0.00000000000E+00  0.00000000000E+00  0.63776499537E+02  0.63776499537E+02  0.00000000000E+00 0. -1.
          1   -1    0    0  501    0 -0.00000000000E+00 -0.00000000000E+00 -0.10945351572E+04  0.10945351572E+04  0.00000000000E+00 0. -1.
         25    2    1    2    0    0 -0.89693491379E+01 -0.67903981093E+01 -0.19496714659E+03  0.23186815850E+03  0.12499638373E+03 0.  0.
          2    1    1    2  501    0  0.29522428543E+02 -0.22387263555E+02 -0.87363788110E+03  0.87442318739E+03  0.00000000000E+00 0. -1.
          1    1    1    2  502    0 -0.20553079406E+02  0.29177661664E+02  0.37846370046E+02  0.52020310831E+02  0.00000000000E+00 0. -1.
         22    1    3    3    0    0 -0.48919359374E+02 -0.25164155290E+02 -0.17524215359E+03  0.18367403417E+03  0.00000000000E+00 0.  1.
         22    1    3    3    0    0  0.39950010236E+02  0.18373757180E+02 -0.19724993000E+02  0.48194124327E+02  0.00000000000E+00 0.  1.
</event>
<event>
 7    1  0.6507405E-006  0.5237906E+02  0.7818608E-02  0.1439543E+00
          2   -1    0    0  502    0  0.00000000000E+00  0.00000000000E+00  0.15108433828E+02  0.15108433828E+02  0.00000000000E+00 0. -1.
          1   -1    0    0  501    0 -0.00000000000E+00 -0.00000000000E+00 -0.11912548971E+04  0.11912548971E+04  0.00000000000E+00 0. -1.
         25    2    1    2    0    0 -0.15851588700E+02 -0.21053281116E+01 -0.60404693063E+03  0.61705017367E+03  0.12499006820E+03 0.  0.
          2    1    1    2  501    0  0.58163379338E+02  0.28434809536E+02 -0.48218219752E+03  0.48650918665E+03  0.00000000000E+00 0. -1.
          1    1    1    2  502    0 -0.42311790637E+02 -0.26329481425E+02 -0.89917335163E+02  0.10280397065E+03  0.00000000000E+00 0. -1.
         22    1    3    3    0    0  0.87527928519E+01  0.50537126815E+02 -0.13495151226E+03  0.14436939853E+03  0.00000000000E+00 0.  1.
         22    1    3    3    0    0 -0.24604381552E+02 -0.52642454926E+02 -0.46909541837E+03  0.47268077514E+03  0.00000000000E+00 0.  1.
</event>
<event>
 7    1  0.6507405E-006  0.4777002E+02  0.7818608E-02  0.1522401E+00
          2   -1    0    0  502    0  0.00000000000E+00  0.00000000000E+00  0.14263474142E+04  0.14263474142E+04  0.00000000000E+00 0. -1.
          1   -1    0    0  501    0 -0.00000000000E+00 -0.00000000000E+00 -0.81003702859E+02  0.81003702859E+02  0.00000000000E+00 0. -1.
         25    2    1    2    0    0  0.12090124887E+02  0.14193325811E+02  0.25490364091E+03  0.28451276880E+03  0.12499611131E+03 0.  0.
          2    1    1    2  501    0 -0.25693369584E+02 -0.41428544613E+02 -0.56995075066E+02  0.74999414205E+02  0.00000000000E+00 0. -1.
          1    1    1    2  502    0  0.13603244697E+02  0.27235218802E+02  0.11474351455E+04  0.11478389341E+04  0.00000000000E+00 0. -1.
         22    1    3    3    0    0  0.54378072646E+02  0.31522262876E+02  0.21447755765E+03  0.22349776414E+03  0.00000000000E+00 0.  1.
         22    1    3    3    0    0 -0.42287947759E+02 -0.17328937066E+02  0.40426083260E+02  0.61015004656E+02  0.00000000000E+00 0.  1.
</event>
<event>
 7    1  0.6507405E-006  0.7952022E+02  0.7818608E-02  0.1506964E+00
          2   -1    0    0  502    0  0.00000000000E+00  0.00000000000E+00  0.10391753266E+04  0.10391753266E+04  0.00000000000E+00 0. -1.
          1   -1    0    0  501    0 -0.00000000000E+00 -0.00000000000E+00 -0.27033689794E+03  0.27033689794E+03  0.00000000000E+00 0. -1.
         25    2    1    2    0    0 -0.61928807542E+02  0.19198059813E+02  0.50862657851E+03  0.52775907381E+03  0.12499960368E+03 0.  0.
          2    1    1    2  501    0  0.79240344420E+02 -0.86113277676E+01 -0.25447526513E+03  0.26666617279E+03  0.00000000000E+00 0. -1.
          1    1    1    2  502    0 -0.17311536878E+02 -0.10586732046E+02  0.51468711524E+03  0.51508697789E+03  0.00000000000E+00 0. -1.
         22    1    3    3    0    0 -0.73788551771E+02  0.59032051922E+02  0.28367053148E+03  0.29899582599E+03  0.00000000000E+00 0.  1.
         22    1    3    3    0    0  0.11859744230E+02 -0.39833992109E+02  0.22495604703E+03  0.22876324782E+03  0.00000000000E+00 0.  1.
</event>
<event>
 7    1  0.6507405E-006  0.7138983E+02  0.7818608E-02  0.1512355E+00
          2   -1    0    0  502    0  0.00000000000E+00  0.00000000000E+00  0.57642664205E+03  0.57642664205E+03  0.00000000000E+00 0. -1.
          1   -1    0    0  501    0 -0.00000000000E+00 -0.00000000000E+00 -0.11394275393E+04  0.11394275393E+04  0.00000000000E+00 0. -1.
         25    2    1    2    0    0  0.56638203389E+02 -0.28950766038E+02 -0.17769932757E+02  0.14137391364E+03  0.12499912004E+03 0.  0.
          2    1    1    2  501    0 -0.70553615191E+02  0.12180612632E+02 -0.10584149486E+04  0.10608338151E+04  0.00000000000E+00 0. -1.
          1    1    1    2  502    0  0.13915411801E+02  0.16770153406E+02  0.51318398408E+03  0.51364645258E+03  0.00000000000E+00 0. -1.
         22    1    3    3    0    0  0.47987002298E+02 -0.69917752369E+02 -0.40229780971E+02  0.93859894326E+02  0.00000000000E+00 0.  1.
         22    1    3    3    0    0  0.86512010910E+01  0.40966986332E+02  0.22459848214E+02  0.47514019312E+02  0.00000000000E+00 0.  1.
</event>
<event>
 7    1  0.6507405E-006  0.2461197E+02  0.7818608E-02  0.1666687E+00
          2   -1    0    0  502    0  0.00000000000E+00  0.00000000000E+00  0.27795886892E+04  0.27795886892E+04  0.00000000000E+00 0. -1.
          1   -1    0    0  501    0 -0.00000000000E+00 -0.00000000000E+00 -0.33117212065E+02  0.33117212065E+02  0.00000000000E+00 0. -1.
         25    2    1    2    0    0 -0.28165070168E+02 -0.10504622131E+02  0.24055454117E+04  0.24089783803E+04  0.12499796399E+03 0.  0.
          2    1    1    2  501    0  0.63259381977E+01  0.23778355892E+02 -0.26066971655E+02  0.35845707055E+02  0.00000000000E+00 0. -1.
          1    1    1    2  502    0  0.21839131971E+02 -0.13273733761E+02  0.36699303712E+03  0.36788181388E+03  0.00000000000E+00 0. -1.
         22    1    3    3    0    0 -0.26127658779E+02 -0.43448460024E+02  0.40504292306E+03  0.40820361678E+03  0.00000000000E+00 0. -1.
         22    1    3    3    0    0 -0.20374113896E+01  0.32943837893E+02  0.20005024886E+04  0.20007747635E+04  0.00000000000E+00 0. -1.
</event>
<event>
 7    1  0.6507405E-006  0.8787186E+02  0.7818608E-02  0.1315363E+00
          2   -1    0    0  502    0  0.00000000000E+00  0.00000000000E+00  0.85352003355E+03  0.85352003355E+03  0.00000000000E+00 0. -1.
          1   -1    0    0  501    0 -0.00000000000E+00 -0.00000000000E+00 -0.49197281115E+02  0.49197281115E+02  0.00000000000E+00 0. -1.
         25    2    1    2    0    0  0.11140358263E+02 -0.24275274845E+01  0.76889109921E+02  0.14721360364E+03  0.12501963606E+03 0.  0.
          2    1    1    2  501    0  0.33401864139E+02  0.81275941852E+02  0.17636247076E+03  0.19704107274E+03  0.00000000000E+00 0. -1.
          1    1    1    2  502    0 -0.44542222402E+02 -0.78848414368E+02  0.55107117176E+03  0.55846263829E+03  0.00000000000E+00 0. -1.
         22    1    3    3    0    0  0.28732202427E+02  0.49023783904E+02  0.49528821713E+01  0.57038599968E+02  0.00000000000E+00 0.  1.
         22    1    3    3    0    0 -0.17591844164E+02 -0.51451311388E+02  0.71936227750E+02  0.90175003674E+02  0.00000000000E+00 0.  1.
</event>
<event>
 7    1  0.6507405E-006  0.1019514E+03  0.7818608E-02  0.1438911E+00
          2   -1    0    0  502    0  0.00000000000E+00  0.00000000000E+00  0.72927573784E+03  0.72927573784E+03  0.00000000000E+00 0. -1.
          1   -1    0    0  501    0 -0.00000000000E+00 -0.00000000000E+00 -0.20194055111E+03  0.20194055111E+03  0.00000000000E+00 0. -1.
         25    2    1    2    0    0 -0.12023070958E+03  0.23340491783E+02  0.25883697744E+03  0.31244406827E+03  0.12499805129E+03 0.  0.
          2    1    1    2  501    0  0.25661206955E+02  0.18078217826E+01 -0.16875415498E+03  0.17070363377E+03  0.00000000000E+00 0. -1.
          1    1    1    2  502    0  0.94569502628E+02 -0.25148313565E+02  0.43725236427E+03  0.44806858689E+03  0.00000000000E+00 0. -1.
         22    1    3    3    0    0 -0.86379567174E+02 -0.28666274232E+02  0.73468500842E+02  0.11696497561E+03  0.00000000000E+00 0.  1.
         22    1    3    3    0    0 -0.33851142409E+02  0.52006766015E+02  0.18536847659E+03  0.19547909266E+03  0.00000000000E+00 0.  1.
</event>
<event>
 7    1  0.6507405E-006  0.6185255E+02  0.7818608E-02  0.1487546E+00
          2   -1    0    0  502    0  0.00000000000E+00  0.00000000000E+00  0.30306746255E+04  0.30306746255E+04  0.00000000000E+00 0. -1.
          1   -1    0    0  501    0 -0.00000000000E+00 -0.00000000000E+00 -0.33139632271E+03  0.33139632271E+03  0.00000000000E+00 0. -1.
         25    2    1    2    0    0  0.82830093250E+02 -0.18954446072E+02  0.84208041160E+02  0.17302138799E+03  0.12500124452E+03 0.  0.
          2    1    1    2  501    0 -0.21162269151E+02  0.21019737573E+02 -0.28588569924E+03  0.28743747848E+03  0.00000000000E+00 0. -1.
          1    1    1    2  502    0 -0.61667824098E+02 -0.20652915010E+01  0.29009559608E+04  0.29016120817E+04  0.00000000000E+00 0. -1.
         22    1    3    3    0    0 -0.83324119787E+00  0.31202385263E+02  0.67074963871E+02  0.73981983721E+02  0.00000000000E+00 0. -1.
         22    1    3    3    0    0  0.83663334447E+02 -0.50156831334E+02  0.17133077289E+02  0.99039404268E+02  0.00000000000E+00 0. -1.
</event>
<event>
 7    1  0.6507405E-006  0.7648644E+02  0.7818608E-02  0.1416417E+00
          2   -1    0    0  502    0  0.00000000000E+00  0.00000000000E+00  0.22330934169E+03  0.22330934169E+03  0.00000000000E+00 0. -1.
          1   -1    0    0  501    0 -0.00000000000E+00 -0.00000000000E+00 -0.14987323892E+04  0.14987323892E+04  0.00000000000E+00 0. -1.
         25    2    1    2    0    0  0.58244003874E+02  0.87473096412E+02 -0.25920705973E+03  0.30635888289E+03  0.12499423479E+03 0.  0.
          2    1    1    2  501    0 -0.20416672271E+02 -0.72485709119E+02 -0.12126970891E+04  0.12150330236E+04  0.00000000000E+00 0. -1.
          1    1    1    2  502    0 -0.37827331603E+02 -0.14987387292E+02  0.19648110140E+03  0.20064982432E+03  0.00000000000E+00 0. -1.
         22    1    3    3    0    0 -0.21964326434E+00  0.64633758158E+02 -0.22658065538E+03  0.23561910858E+03  0.00000000000E+00 0. -1.
         22    1    3    3    0    0  0.58463647138E+02  0.22839338254E+02 -0.32626404345E+02  0.70739774308E+02  0.00000000000E+00 0. -1.
</event>
<event>
 7    1  0.6507405E-006  0.4463922E+02  0.7818608E-02  0.1516123E+00
          2   -1    0    0  502    0  0.00000000000E+00  0.00000000000E+00  0.52620804060E+03  0.52620804060E+03  0.00000000000E+00 0. -1.
          1   -1    0    0  501    0 -0.00000000000E+00 -0.00000000000E+00 -0.11337248448E+03  0.11337248448E+03  0.00000000000E+00 0. -1.
         25    2    1    2    0    0 -0.38773228370E+02 -0.17983556355E+02  0.26337442837E+02  0.13470293406E+03  0.12499779202E+03 0.  0.
          2    1    1    2  501    0  0.43390183521E+02 -0.15678268608E+02 -0.49436933116E+02  0.67620459097E+02  0.00000000000E+00 0. -1.
          1    1    1    2  502    0 -0.46169551502E+01  0.33661824963E+02  0.43593504641E+03  0.43725713193E+03  0.00000000000E+00 0. -1.
         22    1    3    3    0    0 -0.79128286154E+02  0.55159996795E+00 -0.66120726967E+01  0.79405978601E+02  0.00000000000E+00 0.  1.
         22    1    3    3    0    0  0.40355057784E+02 -0.18535156323E+02  0.32949515534E+02  0.55296955455E+02  0.00000000000E+00 0.  1.
</event>
<event>
 7    1  0.6507405E-006  0.6342648E+02  0.7818608E-02  0.1430868E+00
          2   -1    0    0  502    0  0.00000000000E+00  0.00000000000E+00  0.15988795135E+02  0.15988795135E+02  0.00000000000E+00 0. -1.
          1   -1    0    0  501    0 -0.00000000000E+00 -0.00000000000E+00 -0.13664630247E+04  0.13664630247E+04  0.00000000000E+00 0. -1.
         25    2    1    2    0    0  0.13689770974E+02  0.34630958540E+02 -0.43395413899E+03  0.45313142372E+03  0.12500071719E+03 0.  0.
          2    1    1    2  501    0  0.25488860577E+02  0.35780221814E+02 -0.63439053172E+03  0.63590978372E+03  0.00000000000E+00 0. -1.
          1    1    1    2  502    0 -0.39178631551E+02 -0.70411180353E+02 -0.28212955882E+03  0.29341061237E+03  0.00000000000E+00 0. -1.
         22    1    3    3    0    0 -0.24284490809E+02  0.71687484387E+02 -0.21842159232E+03  0.23116406274E+03  0.00000000000E+00 0.  1.
         22    1    3    3    0    0  0.37974261783E+02 -0.37056525848E+02 -0.21553254667E+03  0.22196736098E+03  0.00000000000E+00 0.  1.
</event>
<event>
 7    1  0.6507405E-006  0.7521065E+02  0.7818608E-02  0.1428710E+00
          2   -1    0    0  502    0  0.00000000000E+00  0.00000000000E+00  0.47210068176E+03  0.47210068176E+03  0.00000000000E+00 0. -1.
          1   -1    0    0  501    0 -0.00000000000E+00 -0.00000000000E+00 -0.14296185169E+04  0.14296185169E+04  0.00000000000E+00 0. -1.
         25    2    1    2    0    0  0.31607722737E+02 -0.10751353405E+03 -0.18633314878E+03  0.25080513535E+03  0.12499986178E+03 0.  0.
          2    1    1    2  501    0 -0.14116268780E+02  0.34913082526E+02 -0.12075841307E+04  0.12081711903E+04  0.00000000000E+00 0. -1.
          1    1    1    2  502    0 -0.17491453957E+02  0.72600451520E+02  0.43639944437E+03  0.44274287297E+03  0.00000000000E+00 0. -1.
         22    1    3    3    0    0  0.31427653229E+02 -0.68110717110E+02 -0.16954994016E+02  0.76904089584E+02  0.00000000000E+00 0. -1.
         22    1    3    3    0    0  0.18006950811E+00 -0.39402816936E+02 -0.16937815477E+03  0.17390104577E+03  0.00000000000E+00 0. -1.
</event>
<event>
 7    1  0.6507405E-006  0.1235923E+03  0.7818608E-02  0.1304675E+00
          2   -1    0    0  502    0  0.00000000000E+00  0.00000000000E+00  0.16386257680E+03  0.16386257680E+03  0.00000000000E+00 0. -1.
          1   -1    0    0  501    0 -0.00000000000E+00 -0.00000000000E+00 -0.76488571985E+03  0.76488571985E+03  0.00000000000E+00 0. -1.
         25    2    1    2    0    0 -0.10363503002E+03 -0.13199543861E+02  0.14073329819E+02  0.16351695585E+03  0.12500115533E+03 0.  0.
          2    1    1    2  501    0 -0.38309193644E+02  0.51831361100E+02 -0.61475414576E+03  0.61812356697E+03  0.00000000000E+00 0. -1.
          1    1    1    2  502    0  0.14194422366E+03 -0.38631817239E+02 -0.34232709786E+00  0.14710777383E+03  0.00000000000E+00 0. -1.
         22    1    3    3    0    0 -0.93611109906E+02  0.37535259963E+02 -0.18302247229E+02  0.10250320918E+03  0.00000000000E+00 0.  1.
         22    1    3    3    0    0 -0.10023920113E+02 -0.50734803824E+02  0.32375577048E+02  0.61013746670E+02  0.00000000000E+00 0.  1.
</event>
<event>
 7    1  0.6507405E-006  0.9693539E+02  0.7818608E-02  0.1308194E+00
          2   -1    0    0  502    0  0.00000000000E+00  0.00000000000E+00  0.38161800834E+03  0.38161800834E+03  0.00000000000E+00 0. -1.
          1   -1    0    0  501    0 -0.00000000000E+00 -0.00000000000E+00 -0.12067956756E+04  0.12067956756E+04  0.00000000000E+00 0. -1.
         25    2    1    2    0    0  0.29730341772E+02 -0.30238528330E+02 -0.11584997567E+03  0.17562339256E+03  0.12499638928E+03 0.  0.
          2    1    1    2  501    0  0.36436720458E+01  0.10248191982E+03 -0.10540373613E+04  0.10590139655E+04  0.00000000000E+00 0. -1.
          1    1    1    2  502    0 -0.33374013817E+02 -0.72243391487E+02  0.34470966964E+03  0.35377632588E+03  0.00000000000E+00 0. -1.
         22    1    3    3    0    0  0.40821758889E+02 -0.74859596232E+02 -0.66154009688E+02  0.10792000808E+03  0.00000000000E+00 0.  1.
         22    1    3    3    0    0 -0.11091417118E+02  0.44621067902E+02 -0.49695965984E+02  0.67703384476E+02  0.00000000000E+00 0.  1.
</event>
<event>
 7    1  0.6507405E-006  0.6638722E+02  0.7818608E-02  0.1417109E+00
          2   -1    0    0  502    0  0.00000000000E+00  0.00000000000E+00  0.18730898933E+03  0.18730898933E+03  0.00000000000E+00 0. -1.
          1   -1    0    0  501    0 -0.00000000000E+00 -0.00000000000E+00 -0.76878575188E+03  0.76878575188E+03  0.00000000000E+00 0. -1.
         25    2    1    2    0    0 -0.63010924686E+02  0.76792311474E+02 -0.43639677269E+02  0.16551890852E+03  0.12499860764E+03 0.  0.
          2    1    1    2  501    0  0.64528388955E+01 -0.46179390321E+02 -0.65514154352E+03  0.65679876466E+03  0.00000000000E+00 0. -1.
          1    1    1    2  502    0  0.56558085791E+02 -0.30612921153E+02  0.11730445823E+03  0.13377706803E+03  0.00000000000E+00 0. -1.
         22    1    3    3    0    0 -0.71311587889E+02  0.74014259534E+02  0.17065577601E+02  0.10418582975E+03  0.00000000000E+00 0.  1.
         22    1    3    3    0    0  0.83006632026E+01  0.27780519402E+01 -0.60705254869E+02  0.61333078766E+02  0.00000000000E+00 0.  1.
</event>
<event>
 7    1  0.6507405E-006  0.1263924E+03  0.7818608E-02  0.1336601E+00
          2   -1    0    0  502    0  0.00000000000E+00  0.00000000000E+00  0.11879764199E+04  0.11879764199E+04  0.00000000000E+00 0. -1.
          1   -1    0    0  501    0 -0.00000000000E+00 -0.00000000000E+00 -0.43757401377E+03  0.43757401377E+03  0.00000000000E+00 0. -1.
         25    2    1    2    0    0  0.12292248593E+02  0.11634740388E+03 -0.24099220806E+03  0.29561769740E+03  0.12499904362E+03 0.  0.
          2    1    1    2  501    0 -0.47087418893E+02  0.54002685294E+01 -0.16241841549E+03  0.16919258143E+03  0.00000000000E+00 0. -1.
          1    1    1    2  502    0  0.34795170300E+02 -0.12174767241E+03  0.11538130297E+04  0.11607401548E+04  0.00000000000E+00 0. -1.
         22    1    3    3    0    0  0.19468903005E+02  0.28887403274E+01 -0.14642430087E+03  0.14774118887E+03  0.00000000000E+00 0. -1.
         22    1    3    3    0    0 -0.71766544119E+01  0.11345866355E+03 -0.94567907190E+02  0.14787650853E+03  0.00000000000E+00 0. -1.
</event>
<event>
 7    1  0.6507405E-006  0.8803803E+02  0.7818608E-02  0.1336742E+00
          2   -1    0    0  502    0  0.00000000000E+00  0.00000000000E+00  0.22111322865E+04  0.22111322865E+04  0.00000000000E+00 0. -1.
          1   -1    0    0  501    0 -0.00000000000E+00 -0.00000000000E+00 -0.13259140840E+03  0.13259140840E+03  0.00000000000E+00 0. -1.
         25    2    1    2    0    0  0.27042737282E+02  0.19290580401E+02  0.54948512170E+02  0.14052717745E+03  0.12500044992E+03 0.  0.
          2    1    1    2  501    0  0.61982405461E+02 -0.27873015684E+02 -0.75854129679E+02  0.10184582750E+03  0.00000000000E+00 0. -1.
          1    1    1    2  502    0 -0.89025142743E+02  0.85824352826E+01  0.20994464956E+04  0.21013506899E+04  0.00000000000E+00 0. -1.
         22    1    3    3    0    0 -0.16591994942E+02 -0.39290260090E+02 -0.88318685397E+01  0.43554801527E+02  0.00000000000E+00 0.  1.
         22    1    3    3    0    0  0.43634732224E+02  0.58580840492E+02  0.63780380710E+02  0.96972375924E+02  0.00000000000E+00 0.  1.
</event>
<event>
 7    1  0.6507405E-006  0.6297338E+02  0.7818608E-02  0.1423605E+00
          2   -1    0    0  502    0  0.00000000000E+00  0.00000000000E+00  0.11103502780E+04  0.11103502780E+04  0.00000000000E+00 0. -1.
          1   -1    0    0  501    0 -0.00000000000E+00 -0.00000000000E+00 -0.38070346760E+03  0.38070346760E+03  0.00000000000E+00 0. -1.
         25    2    1    2    0    0 -0.32474449865E+02 -0.92068639176E+02 -0.89346594939E+01  0.15885895834E+03  0.12500046516E+03 0.  0.
          2    1    1    2  501    0  0.41113431002E+02  0.46111821729E+02 -0.29305655259E+03  0.29949750805E+03  0.00000000000E+00 0. -1.
          1    1    1    2  502    0 -0.86389811375E+01  0.45956817447E+02  0.10316380225E+04  0.10326972793E+04  0.00000000000E+00 0. -1.
         22    1    3    3    0    0 -0.45534385776E+02 -0.98010383130E+02 -0.47247158939E+02  0.11794791019E+03  0.00000000000E+00 0. -1.
         22    1    3    3    0    0  0.13059935911E+02  0.59417439542E+01  0.38312499445E+02  0.40911048152E+02  0.00000000000E+00 0. -1.
</event>
<event>
 7    1  0.6507405E-006  0.7377424E+02  0.7818608E-02  0.1375500E+00
          2   -1    0    0  502    0  0.00000000000E+00  0.00000000000E+00  0.12927814922E+04  0.12927814922E+04  0.00000000000E+00 0. -1.
          1   -1    0    0  501    0 -0.00000000000E+00 -0.00000000000E+00 -0.51020887009E+03  0.51020887009E+03  0.00000000000E+00 0. -1.
         25    2    1    2    0    0  0.65892903619E+02  0.14758918279E+02  0.57954226947E+03  0.59669773270E+03  0.12497696466E+03 0.  0.
          2    1    1    2  501    0 -0.23950968477E+02  0.53307503894E+02 -0.49764794304E+03  0.50106767415E+03  0.00000000000E+00 0. -1.
          1    1    1    2  502    0 -0.41941935142E+02 -0.68066422173E+02  0.70067829571E+03  0.70522495548E+03  0.00000000000E+00 0. -1.
         22    1    3    3    0    0  0.73845232363E+02  0.23975512197E+02  0.16906607618E+03  0.18604107515E+03  0.00000000000E+00 0.  1.
         22    1    3    3    0    0 -0.79523287442E+01 -0.92165939173E+01  0.41047619329E+03  0.41065665756E+03  0.00000000000E+00 0.  1.
</event>
<event>
 7    1  0.6507405E-006  0.5923408E+02  0.7818608E-02  0.1434068E+00
          2   -1    0    0  502    0  0.00000000000E+00  0.00000000000E+00  0.10756357711E+04  0.10756357711E+04  0.00000000000E+00 0. -1.
          1   -1    0    0  501    0 -0.00000000000E+00 -0.00000000000E+00 -0.43046119934E+03  0.43046119934E+03  0.00000000000E+00 0. -1.
         25    2    1    2    0    0 -0.13243150229E+02 -0.65659166900E+02  0.23738336209E+02  0.14378639516E+03  0.12499804638E+03 0.  0.
          2    1    1    2  501    0 -0.34473238655E+02  0.30330381701E+02 -0.36812112991E+03  0.37097372215E+03  0.00000000000E+00 0. -1.
          1    1    1    2  502    0  0.47716388883E+02  0.35328785199E+02  0.98955736544E+03  0.99133685311E+03  0.00000000000E+00 0. -1.
         22    1    3    3    0    0  0.11054804716E+01 -0.11450980341E+02 -0.49910885662E+02  0.51219562137E+02  0.00000000000E+00 0.  1.
         22    1    3    3    0    0 -0.14348630701E+02 -0.54208186559E+02  0.73649221871E+02  0.92566833019E+02  0.00000000000E+00 0.  1.
</event>
<event>
 7    1  0.6507405E-006  0.2545762E+03  0.7818608E-02  0.1222464E+00
          2   -1    0    0  502    0  0.00000000000E+00  0.00000000000E+00  0.45479064394E+03  0.45479064394E+03  0.00000000000E+00 0. -1.
          1   -1    0    0  501    0 -0.00000000000E+00 -0.00000000000E+00 -0.15285365400E+04  0.15285365400E+04  0.00000000000E+00 0. -1.
         25    2    1    2    0    0 -0.30694819545E+03  0.69246396273E+02 -0.28198364292E+03  0.44062077172E+03  0.12497852418E+03 0.  0.
          2    1    1    2  501    0  0.23949458473E+03 -0.50816206395E+02 -0.11509878393E+04  0.11767382671E+04  0.00000000000E+00 0. -1.
          1    1    1    2  502    0  0.67453610719E+02 -0.18430189878E+02  0.35922558618E+03  0.36596814515E+03  0.00000000000E+00 0. -1.
         22    1    3    3    0    0 -0.21654754613E+03  0.58386820800E+02 -0.26641109791E+03  0.34824809213E+03  0.00000000000E+00 0. -1.
         22    1    3    3    0    0 -0.90400649316E+02  0.10859575473E+02 -0.15572545007E+02  0.92372679588E+02  0.00000000000E+00 0. -1.
</event>
<event>
 7    1  0.6507405E-006  0.5602580E+02  0.7818608E-02  0.1499064E+00
          2   -1    0    0  502    0  0.00000000000E+00  0.00000000000E+00  0.50153564827E+03  0.50153564827E+03  0.00000000000E+00 0. -1.
          1   -1    0    0  501    0 -0.00000000000E+00 -0.00000000000E+00 -0.10813124034E+03  0.10813124034E+03  0.00000000000E+00 0. -1.
         25    2    1    2    0    0 -0.66338766797E+02  0.26999022253E+02  0.11924164823E+03  0.18701313020E+03  0.12500224402E+03 0.  0.
          2    1    1    2  501    0  0.55322782022E+02  0.13363318155E+01 -0.63154338641E+02  0.83969437788E+02  0.00000000000E+00 0. -1.
          1    1    1    2  502    0  0.11015984776E+02 -0.28335354069E+02  0.33731709833E+03  0.33868432063E+03  0.00000000000E+00 0. -1.
         22    1    3    3    0    0 -0.51765009361E+02  0.56772499928E+02  0.13097745698E+03  0.15184803976E+03  0.00000000000E+00 0.  1.
         22    1    3    3    0    0 -0.14573757437E+02 -0.29773477675E+02 -0.11735808746E+02  0.35165090439E+02  0.00000000000E+00 0.  1.
</event>
<event>
 7    1  0.6507405E-006  0.2340558E+03  0.7818608E-02  0.1208586E+00
          2   -1    0    0  502    0  0.00000000000E+00  0.00000000000E+00  0.51144195547E+03  0.51144195547E+03  0.00000000000E+00 0. -1.
          1   -1    0    0  501    0 -0.00000000000E+00 -0.00000000000E+00 -0.13464399694E+04  0.13464399694E+04  0.00000000000E+00 0. -1.
         25    2    1    2    0    0  0.98426267619E+02  0.28618151114E+03  0.42032939140E+02  0.33012108406E+03  0.12500229876E+03 0.  0.
          2    1    1    2  501    0 -0.11830273342E+02 -0.87284761135E+02 -0.11643881941E+04  0.11677150558E+04  0.00000000000E+00 0. -1.
          1    1    1    2  502    0 -0.86595994278E+02 -0.19889675000E+03  0.28735724101E+03  0.36004578507E+03  0.00000000000E+00 0. -1.
         22    1    3    3    0    0  0.12548471346E+03  0.21485159989E+03  0.48724986910E+02  0.25353845396E+03  0.00000000000E+00 0.  1.
         22    1    3    3    0    0 -0.27058445842E+02  0.71329911247E+02 -0.66920477698E+01  0.76582630101E+02  0.00000000000E+00 0.  1.
</event>
<event>
 7    1  0.6507405E-006  0.6357149E+02  0.7818608E-02  0.1423291E+00
          2   -1    0    0  502    0  0.00000000000E+00  0.00000000000E+00  0.76243010513E+03  0.76243010513E+03  0.00000000000E+00 0. -1.
          1   -1    0    0  501    0 -0.00000000000E+00 -0.00000000000E+00 -0.12272429628E+04  0.12272429628E+04  0.00000000000E+00 0. -1.
         25    2    1    2    0    0 -0.67206833288E+02 -0.50566935693E+02  0.44904433750E+03  0.47364078748E+03  0.12498401936E+03 0.  0.
          2    1    1    2  501    0  0.21689468579E+02  0.59743729508E+02 -0.12123170693E+04  0.12139820521E+04  0.00000000000E+00 0. -1.
          1    1    1    2  502    0  0.45517364708E+02 -0.91767938150E+01  0.29845987409E+03  0.30205022840E+03  0.00000000000E+00 0. -1.
         22    1    3    3    0    0 -0.84517725114E+02  0.12328934155E+02  0.25373809598E+03  0.26772797729E+03  0.00000000000E+00 0. -1.
         22    1    3    3    0    0  0.17310891826E+02 -0.62895869848E+02  0.19530624152E+03  0.20591281018E+03  0.00000000000E+00 0. -1.
</event>
<event>
 7    1  0.6507405E-006  0.1412730E+03  0.7818608E-02  0.1227340E+00
          2   -1    0    0  502    0  0.00000000000E+00  0.00000000000E+00  0.50230490233E+03  0.50230490233E+03  0.00000000000E+00 0. -1.
          1   -1    0    0  501    0 -0.00000000000E+00 -0.00000000000E+00 -0.20267062967E+04  0.20267062967E+04  0.00000000000E+00 0. -1.
         25    2    1    2    0    0  0.66765143737E+02 -0.14696106915E+01 -0.20952230568E+03  0.25295333978E+03  0.12500420534E+03 0.  0.
          2    1    1    2  501    0  0.16575006636E+02 -0.11861829022E+03 -0.17822970731E+04  0.17863168494E+04  0.00000000000E+00 0. -1.
          1    1    1    2  502    0 -0.83340150373E+02  0.12008790091E+03  0.46741798440E+03  0.48974100987E+03  0.00000000000E+00 0. -1.
         22    1    3    3    0    0  0.43259022830E+02  0.27363831680E+02 -0.20959240233E+03  0.21575239849E+03  0.00000000000E+00 0.  1.
         22    1    3    3    0    0  0.23506120907E+02 -0.28833442372E+02  0.70096648321E-01  0.37200941287E+02  0.00000000000E+00 0.  1.
</event>
<event>
 7    1  0.6507405E-006  0.5796704E+02  0.7818608E-02  0.1513778E+00
          2   -1    0    0  502    0  0.00000000000E+00  0.00000000000E+00  0.80408324743E+02  0.80408324743E+02  0.00000000000E+00 0. -1.
          1   -1    0    0  501    0 -0.00000000000E+00 -0.00000000000E+00 -0.87687449082E+03  0.87687449082E+03  0.00000000000E+00 0. -1.
         25    2    1    2    0    0  0.68288004920E+02 -0.46728582056E+02 -0.15361688494E+03  0.21464050409E+03  0.12500234662E+03 0.  0.
          2    1    1    2  501    0 -0.43697060712E+02  0.36636649213E+02 -0.68794029042E+03  0.69029958740E+03  0.00000000000E+00 0. -1.
          1    1    1    2  502    0 -0.24590944208E+02  0.10091932843E+02  0.45091009283E+02  0.52342724076E+02  0.00000000000E+00 0. -1.
         22    1    3    3    0    0  0.51540073968E+02 -0.18332874005E+02 -0.16945544588E+03  0.17806634054E+03  0.00000000000E+00 0.  1.
         22    1    3    3    0    0  0.16747930952E+02 -0.28395708051E+02  0.15838560940E+02  0.36574163552E+02  0.00000000000E+00 0.  1.
</event>
<event>
 7    1  0.6507405E-006  0.2710824E+02  0.7818608E-02  0.1650391E+00
          2   -1    0    0  502    0  0.00000000000E+00  0.00000000000E+00  0.17568338359E+03  0.17568338359E+03  0.00000000000E+00 0. -1.
          1   -1    0    0  501    0 -0.00000000000E+00 -0.00000000000E+00 -0.20414475934E+03  0.20414475934E+03  0.00000000000E+00 0. -1.
         25    2    1    2    0    0  0.13852345308E+02 -0.44940304729E+01 -0.33860638173E+02  0.13031956271E+03  0.12499824730E+03 0.  0.
          2    1    1    2  501    0 -0.93474169656E+01 -0.22613182325E+02 -0.11931740328E+03  0.12180054575E+03  0.00000000000E+00 0. -1.
          1    1    1    2  502    0 -0.45049283423E+01  0.27107212798E+02  0.12471666570E+03  0.12770803447E+03  0.00000000000E+00 0. -1.
         22    1    3    3    0    0 -0.51448594591E+02 -0.24685760745E+02 -0.10069728624E+02  0.57946044761E+02  0.00000000000E+00 0. -1.
         22    1    3    3    0    0  0.65300939899E+02  0.20191730272E+02 -0.23790909549E+02  0.72373517948E+02  0.00000000000E+00 0. -1.
</event>
<event>
 7    1  0.6507405E-006  0.2142046E+03  0.7818608E-02  0.1357718E+00
          2   -1    0    0  502    0  0.00000000000E+00  0.00000000000E+00  0.51678364691E+03  0.51678364691E+03  0.00000000000E+00 0. -1.
          1   -1    0    0  501    0 -0.00000000000E+00 -0.00000000000E+00 -0.16419807235E+03  0.16419807235E+03  0.00000000000E+00 0. -1.
         25    2    1    2    0    0 -0.11931734202E+03  0.18890061881E+03  0.19565595369E+03  0.32222128890E+03  0.12500093965E+03 0.  0.
          2    1    1    2  501    0  0.12791432760E+03 -0.16720464963E+03  0.10821036504E+02  0.21079982186E+03  0.00000000000E+00 0. -1.
          1    1    1    2  502    0 -0.85969855731E+01 -0.21695969182E+02  0.14610858437E+03  0.14796060850E+03  0.00000000000E+00 0. -1.
         22    1    3    3    0    0 -0.41592406359E+01  0.81946159867E+02  0.16132328522E+02  0.83622511461E+02  0.00000000000E+00 0.  1.
         22    1    3    3    0    0 -0.11515810139E+03  0.10695445895E+03  0.17952362517E+03  0.23859877744E+03  0.00000000000E+00 0.  1.
</event>
<event>
 7    1  0.6507405E-006  0.9342961E+02  0.7818608E-02  0.1399535E+00
          2   -1    0    0  502    0  0.00000000000E+00  0.00000000000E+00  0.11496598791E+04  0.11496598791E+04  0.00000000000E+00 0. -1.
          1   -1    0    0  501    0 -0.00000000000E+00 -0.00000000000E+00 -0.69746349274E+03  0.69746349274E+03  0.00000000000E+00 0. -1.
         25    2    1    2    0    0  0.95896911334E+02 -0.87169841882E+02  0.16169851614E+03  0.24202406071E+03  0.12503774192E+03 0.  0.
          2    1    1    2  501    0 -0.62894233395E+02  0.68303918052E+02 -0.65363733214E+03  0.66019911525E+03  0.00000000000E+00 0. -1.
          1    1    1    2  502    0 -0.33002677939E+02  0.18865923830E+02  0.94413520238E+03  0.94490019590E+03  0.00000000000E+00 0. -1.
         22    1    3    3    0    0  0.10580891968E+03 -0.97481725990E+02  0.91765350403E+02  0.17064317719E+03  0.00000000000E+00 0. -1.
         22    1    3    3    0    0 -0.99120083450E+01  0.10311884108E+02  0.69933165735E+02  0.71380883526E+02  0.00000000000E+00 0. -1.
</event>
<event>
 7    1  0.6507405E-006  0.2472868E+03  0.7818608E-02  0.1320555E+00
          2   -1    0    0  502    0  0.00000000000E+00  0.00000000000E+00  0.17836459781E+04  0.17836459781E+04  0.00000000000E+00 0. -1.
          1   -1    0    0  501    0 -0.00000000000E+00 -0.00000000000E+00 -0.18158549538E+03  0.18158549538E+03  0.00000000000E+00 0. -1.
         25    2    1    2    0    0  0.40115048274E+02  0.25617909960E+03  0.53278154403E+03  0.60557232911E+03  0.12499889584E+03 0.  0.
          2    1    1    2  501    0 -0.60929306447E+02 -0.23759076821E+03 -0.41298268564E+02  0.24873138224E+03  0.00000000000E+00 0. -1.
          1    1    1    2  502    0  0.20814258174E+02 -0.18588331382E+02  0.11105772072E+04  0.11109277621E+04  0.00000000000E+00 0. -1.
         22    1    3    3    0    0  0.71477616272E+02  0.96691513173E+02  0.17195902353E+03  0.20982898780E+03  0.00000000000E+00 0. -1.
         22    1    3    3    0    0 -0.31362567999E+02  0.15948758642E+03  0.36082252050E+03  0.39574334131E+03  0.00000000000E+00 0. -1.
</event>
<event>
 7    1  0.6507405E-006  0.3677639E+02  0.7818608E-02  0.1593249E+00
          2   -1    0    0  502    0  0.00000000000E+00  0.00000000000E+00  0.30001876647E+03  0.30001876647E+03  0.00000000000E+00 0. -1.
          1   -1    0    0  501    0 -0.00000000000E+00 -0.00000000000E+00 -0.46471611084E+03  0.46471611084E+03  0.00000000000E+00 0. -1.
         25    2    1    2    0    0 -0.36318264540E+02  0.33934995246E+02  0.47523820473E+02  0.14266278700E+03  0.12499422803E+03 0.  0.
          2    1    1    2  501    0  0.84081022103E+00 -0.25185283247E+02 -0.41513263170E+03  0.41589675083E+03  0.00000000000E+00 0. -1.
          1    1    1    2  502    0  0.35477454319E+02 -0.87497119990E+01  0.20291146686E+03  0.20617533948E+03  0.00000000000E+00 0. -1.
         22    1    3    3    0    0 -0.92209058187E+01 -0.45487652144E+02  0.34294526389E+02  0.57708458150E+02  0.00000000000E+00 0.  1.
         22    1    3    3    0    0 -0.27097358722E+02  0.79422647391E+02  0.13229294083E+02  0.84954328849E+02  0.00000000000E+00 0.  1.
</event>
<event>
 7    1  0.6507405E-006  0.4603965E+02  0.7818608E-02  0.1494104E+00
          2   -1    0    0  502    0  0.00000000000E+00  0.00000000000E+00  0.31177526439E+04  0.31177526439E+04  0.00000000000E+00 0. -1.
          1   -1    0    0  501    0 -0.00000000000E+00 -0.00000000000E+00 -0.47616777451E+03  0.47616777451E+03  0.00000000000E+00 0. -1.
         25    2    1    2    0    0  0.48569475376E+02  0.17500777990E+01 -0.28039781027E+03  0.31083221122E+03  0.12502669643E+03 0.  0.
          2    1    1    2  501    0 -0.16329078811E+02 -0.34627316768E+02 -0.17835042343E+03  0.18241316679E+03  0.00000000000E+00 0. -1.
          1    1    1    2  502    0 -0.32240396564E+02  0.32877238969E+02  0.31003331031E+04  0.31006750404E+04  0.00000000000E+00 0. -1.
         22    1    3    3    0    0 -0.34338503572E+02 -0.11007394701E+02 -0.16051928132E+03  0.16451971080E+03  0.00000000000E+00 0.  1.
         22    1    3    3    0    0  0.82907978948E+02  0.12757472500E+02 -0.11987852895E+03  0.14631250042E+03  0.00000000000E+00 0.  1.
</event>
<event>
 7    1  0.6507405E-006  0.3582459E+02  0.7818608E-02  0.1582632E+00
          2   -1    0    0  502    0  0.00000000000E+00  0.00000000000E+00  0.77005361271E+03  0.77005361271E+03  0.00000000000E+00 0. -1.
          1   -1    0    0  501    0 -0.00000000000E+00 -0.00000000000E+00 -0.64216523634E+02  0.64216523634E+02  0.00000000000E+00 0. -1.
         25    2    1    2    0    0 -0.23996083250E+02  0.85125131810E+01  0.16563431151E+03  0.20907456955E+03  0.12501670126E+03 0.  0.
          2    1    1    2  501    0  0.13505151955E+02 -0.34044085122E+02 -0.34211761431E+02  0.50118195112E+02  0.00000000000E+00 0. -1.
          1    1    1    2  502    0  0.10490931295E+02  0.25531571941E+02  0.57441453900E+03  0.57507737168E+03  0.00000000000E+00 0. -1.
         22    1    3    3    0    0 -0.18096147165E+02  0.65494843256E+02  0.10950125037E+03  0.12887035683E+03  0.00000000000E+00 0. -1.
         22    1    3    3    0    0 -0.58999360853E+01 -0.56982330075E+02  0.56133061134E+02  0.80204212725E+02  0.00000000000E+00 0. -1.
</event>
<event>
 7    1  0.6507405E-006  0.4239803E+02  0.7818608E-02  0.1560548E+00
          2   -1    0    0  502    0  0.00000000000E+00  0.00000000000E+00  0.24961771939E+03  0.24961771939E+03  0.00000000000E+00 0. -1.
          1   -1    0    0  501    0 -0.00000000000E+00 -0.00000000000E+00 -0.12135310336E+03  0.12135310336E+03  0.00000000000E+00 0. -1.
         25    2    1    2    0    0 -0.40614951013E+02  0.87134486899E+01  0.22148637467E+02  0.13358448998E+03  0.12501502065E+03 0.  0.
          2    1    1    2  501    0  0.39246802148E+02  0.18022644915E+02 -0.57322156366E+02  0.71770166637E+02  0.00000000000E+00 0. -1.
          1    1    1    2  502    0  0.13681488651E+01 -0.26736093605E+02  0.16343813494E+03  0.16561616613E+03  0.00000000000E+00 0. -1.
         22    1    3    3    0    0 -0.21199781105E+02  0.57699387654E+02  0.44967620148E+02  0.76162568997E+02  0.00000000000E+00 0. -1.
         22    1    3    3    0    0 -0.19415169908E+02 -0.48985938964E+02 -0.22818982681E+02  0.57421920982E+02  0.00000000000E+00 0. -1.
</event>
<event>
 7    1  0.6507405E-006  0.1474283E+03  0.7818608E-02  0.1213839E+00
          2   -1    0    0  502    0  0.00000000000E+00  0.00000000000E+00  0.39762964481E+03  0.39762964481E+03  0.00000000000E+00 0. -1.
          1   -1    0    0  501    0 -0.00000000000E+00 -0.00000000000E+00 -0.15005530281E+04  0.15005530281E+04  0.00000000000E+00 0. -1.
         25    2    1    2    0    0  0.33982191392E+02 -0.30401232376E+02 -0.59064350698E+02  0.14557546161E+03  0.12499837294E+03 0.  0.
          2    1    1    2  501    0  0.91005712982E+02  0.11598728263E+03 -0.13779309047E+04  0.13857953196E+04  0.00000000000E+00 0. -1.
          1    1    1    2  502    0 -0.12498790437E+03 -0.85586050258E+02  0.33407187208E+03  0.36681189179E+03  0.00000000000E+00 0. -1.
         22    1    3    3    0    0 -0.15762110602E+02 -0.51501604747E+02 -0.72095080468E+02  0.89991999922E+02  0.00000000000E+00 0.  1.
         22    1    3    3    0    0  0.49744301994E+02  0.21100372371E+02  0.13030729770E+02  0.55583461690E+02  0.00000000000E+00 0.  1.
</event>
<event>
 7    1  0.6507405E-006  0.5773973E+02  0.7818608E-02  0.1410028E+00
          2   -1    0    0  502    0  0.00000000000E+00  0.00000000000E+00  0.37629968708E+03  0.37629968708E+03  0.00000000000E+00 0. -1.
          1   -1    0    0  501    0 -0.00000000000E+00 -0.00000000000E+00 -0.12228054423E+04  0.12228054423E+04  0.00000000000E+00 0. -1.
         25    2    1    2    0    0 -0.96251581559E+02  0.39204923003E+02 -0.17907542383E+03  0.24185700112E+03  0.12500163450E+03 0.  0.
          2    1    1    2  501    0  0.38966764355E+02 -0.41106953380E+02 -0.10091584054E+04  0.10107466930E+04  0.00000000000E+00 0. -1.
          1    1    1    2  502    0  0.57284817204E+02  0.19020303770E+01  0.34172807404E+03  0.34650143519E+03  0.00000000000E+00 0. -1.
         22    1    3    3    0    0  0.24609317671E+02 -0.94847168225E+01 -0.95671142108E+01  0.28055445884E+02  0.00000000000E+00 0.  1.
         22    1    3    3    0    0 -0.12086089923E+03  0.48689639825E+02 -0.16950830962E+03  0.21380155523E+03  0.00000000000E+00 0.  1.
</event>
<event>
 7    1  0.6507405E-006  0.5467712E+02  0.7818608E-02  0.1549403E+00
          2   -1    0    0  502    0  0.00000000000E+00  0.00000000000E+00  0.96920018344E+03  0.96920018344E+03  0.00000000000E+00 0. -1.
          1   -1    0    0  501    0 -0.00000000000E+00 -0.00000000000E+00 -0.19070436598E+04  0.19070436598E+04  0.00000000000E+00 0. -1.
         25    2    1    2    0    0 -0.50217296135E+02 -0.26925819807E+02 -0.34102811655E+03  0.36765790971E+03  0.12500154278E+03 0.  0.
          2    1    1    2  501    0  0.54516833945E+02  0.50554959271E+01 -0.15520879595E+04  0.15530533401E+04  0.00000000000E+00 0. -1.
          1    1    1    2  502    0 -0.42995378101E+01  0.21870323880E+02  0.95527259975E+03  0.95553259334E+03  0.00000000000E+00 0. -1.
         22    1    3    3    0    0 -0.69805791366E+02 -0.61231247824E+02 -0.27967681965E+03  0.29468837383E+03  0.00000000000E+00 0.  1.
         22    1    3    3    0    0  0.19588495231E+02  0.34305428017E+02 -0.61351296897E+02  0.72969535889E+02  0.00000000000E+00 0.  1.
</event>
<event>
 7    1  0.6507405E-006  0.6161336E+02  0.7818608E-02  0.1520511E+00
          2   -1    0    0  502    0  0.00000000000E+00  0.00000000000E+00  0.51840422736E+03  0.51840422736E+03  0.00000000000E+00 0. -1.
          1   -1    0    0  501    0 -0.00000000000E+00 -0.00000000000E+00 -0.36344458335E+03  0.36344458335E+03  0.00000000000E+00 0. -1.
         25    2    1    2    0    0  0.29173223392E+02  0.50067309223E+02  0.23386132673E+03  0.27142786523E+03  0.12499661383E+03 0.  0.
          2    1    1    2  501    0 -0.80106109044E+01 -0.61180246486E+02 -0.34135228473E+03  0.34688409410E+03  0.00000000000E+00 0. -1.
          1    1    1    2  502    0 -0.21162612488E+02  0.11112937263E+02  0.26245060200E+03  0.26353685138E+03  0.00000000000E+00 0. -1.
         22    1    3    3    0    0 -0.69508702348E+00  0.54014215936E+02  0.23481324257E+02  0.58901538673E+02  0.00000000000E+00 0. -1.
         22    1    3    3    0    0  0.29868310416E+02 -0.39469067130E+01  0.21038000248E+03  0.21252632656E+03  0.00000000000E+00 0. -1.
</event>
<event>
 7    1  0.6507405E-006  0.1455906E+03  0.7818608E-02  0.1263741E+00
          2   -1    0    0  502    0  0.00000000000E+00  0.00000000000E+00  0.19542002070E+04  0.19542002070E+04  0.00000000000E+00 0. -1.
          1   -1    0    0  501    0 -0.00000000000E+00 -0.00000000000E+00 -0.20590793214E+04  0.20590793214E+04  0.00000000000E+00 0. -1.
         25    2    1    2    0    0 -0.73752128003E+02  0.43981810676E+02  0.15447203792E+01  0.15166053671E+03  0.12499902472E+03 0.  0.
          2    1    1    2  501    0 -0.74005665639E+02 -0.31850776347E+02 -0.19802744291E+04  0.19819127440E+04  0.00000000000E+00 0. -1.
          1    1    1    2  502    0  0.14775779364E+03 -0.12131034330E+02  0.18738505943E+04  0.18797062476E+04  0.00000000000E+00 0. -1.
         22    1    3    3    0    0 -0.91415638592E+02 -0.12607987214E+02 -0.15988051560E+01  0.92294834626E+02  0.00000000000E+00 0.  1.
         22    1    3    3    0    0  0.17663510589E+02  0.56589797891E+02  0.31435255352E+01  0.59365702088E+02  0.00000000000E+00 0.  1.
</event>
<event>
 7    1  0.6507405E-006  0.1334562E+03  0.7818608E-02  0.1316573E+00
          2   -1    0    0  502    0  0.00000000000E+00  0.00000000000E+00  0.44862342970E+02  0.44862342970E+02  0.00000000000E+00 0. -1.
          1   -1    0    0  501    0 -0.00000000000E+00 -0.00000000000E+00 -0.80691508743E+03  0.80691508743E+03  0.00000000000E+00 0. -1.
         25    2    1    2    0    0 -0.15402190471E+03 -0.19627865734E+02 -0.46765175724E+03  0.50836148631E+03  0.12500093787E+03 0.  0.
          2    1    1    2  501    0  0.11337451417E+03 -0.15288802748E+02 -0.14499890785E+03  0.18469491392E+03  0.00000000000E+00 0. -1.
          1    1    1    2  502    0  0.40647390549E+02  0.34916668483E+02 -0.14940207937E+03  0.15872103016E+03  0.00000000000E+00 0. -1.
         22    1    3    3    0    0 -0.14768296637E+03  0.27843703959E+02 -0.32980607544E+03  0.36243285972E+03  0.00000000000E+00 0.  1.
         22    1    3    3    0    0 -0.63389383443E+01 -0.47471569693E+02 -0.13784568180E+03  0.14592862660E+03  0.00000000000E+00 0.  1.
</event>
<event>
 7    1  0.6507405E-006  0.3065259E+02  0.7818608E-02  0.1637025E+00
          2   -1    0    0  502    0  0.00000000000E+00  0.00000000000E+00  0.87075405001E+02  0.87075405001E+02  0.00000000000E+00 0. -1.
          1   -1    0    0  501    0 -0.00000000000E+00 -0.00000000000E+00 -0.54775497947E+03  0.54775497947E+03  0.00000000000E+00 0. -1.
         25    2    1    2    0    0 -0.44941838113E+01 -0.13844492753E+02 -0.13024048750E+03  0.18110411275E+03  0.12499698958E+03 0.  0.
          2    1    1    2  501    0  0.18798250675E+02 -0.13850940504E+02 -0.38776833626E+03  0.38847072655E+03  0.00000000000E+00 0. -1.
          1    1    1    2  502    0 -0.14304066864E+02  0.27695433257E+02  0.57329249284E+02  0.65255545171E+02  0.00000000000E+00 0. -1.
         22    1    3    3    0    0 -0.63510701339E+02 -0.17138049525E+02 -0.79642980326E+02  0.10329727122E+03  0.00000000000E+00 0. -1.
         22    1    3    3    0    0  0.59016517528E+02  0.32935567721E+01 -0.50597507170E+02  0.77806841532E+02  0.00000000000E+00 0. -1.
</event>
<event>
 7    1  0.6507405E-006  0.7082441E+02  0.7818608E-02  0.1380556E+00
          2   -1    0    0  502    0  0.00000000000E+00  0.00000000000E+00  0.63464252190E+03  0.63464252190E+03  0.00000000000E+00 0. -1.
          1   -1    0    0  501    0 -0.00000000000E+00 -0.00000000000E+00 -0.90601428726E+03  0.90601428726E+03  0.00000000000E+00 0. -1.
         25    2    1    2    0    0  0.51593697687E+02 -0.45550728387E+02  0.20504125724E+02  0.14416348518E+03  0.12500365111E+03 0.  0.
          2    1    1    2  501    0 -0.52194940623E+02 -0.26216109712E+02 -0.84083569244E+03  0.84286194476E+03  0.00000000000E+00 0. -1.
          1    1    1    2  502    0  0.60124293550E+00  0.71766838099E+02  0.54895980136E+03  0.55363137922E+03  0.00000000000E+00 0. -1.
         22    1    3    3    0    0  0.91196308784E+02 -0.28247886342E+02  0.29688971246E+02  0.99980722303E+02  0.00000000000E+00 0. -1.
         22    1    3    3    0    0 -0.39602611097E+02 -0.17302842045E+02 -0.91848455223E+01  0.44182762881E+02  0.00000000000E+00 0. -1.
</event>
<event>
 7    1  0.6507405E-006  0.2683054E+03  0.7818608E-02  0.1199663E+00
          2   -1    0    0  502    0  0.00000000000E+00  0.00000000000E+00  0.36150110452E+03  0.36150110452E+03  0.00000000000E+00 0. -1.
          1   -1    0    0  501    0 -0.00000000000E+00 -0.00000000000E+00 -0.43166609603E+04  0.43166609603E+04  0.00000000000E+00 0. -1.
         25    2    1    2    0    0 -0.10589968664E+03  0.15911321643E+03 -0.60034190625E+03  0.64231485354E+03  0.12500482957E+03 0.  0.
          2    1    1    2  501    0 -0.55622331812E+02  0.63744755229E+02 -0.36391424986E+04  0.36401257345E+04  0.00000000000E+00 0. -1.
          1    1    1    2  502    0  0.16152201845E+03 -0.22285797165E+03  0.28432454908E+03  0.39572147678E+03  0.00000000000E+00 0. -1.
         22    1    3    3    0    0 -0.12117756652E+03  0.15165562451E+03 -0.59269157546E+03  0.62367197684E+03  0.00000000000E+00 0.  1.
         22    1    3    3    0    0  0.15277879876E+02  0.74575919113E+01 -0.76503307825E+01  0.18642876701E+02  0.00000000000E+00 0.  1.
</event>
<event>
 7    1  0.6507405E-006  0.5185264E+02  0.7818608E-02  0.1451514E+00
          2   -1    0    0  502    0  0.00000000000E+00  0.00000000000E+00  0.21442818499E+03  0.21442818499E+03  0.00000000000E+00 0. -1.
          1   -1    0    0  501    0 -0.00000000000E+00 -0.00000000000E+00 -0.83291836338E+02  0.83291836338E+02  0.00000000000E+00 0. -1.
         25    2    1    2    0    0  0.46545760220E+02 -0.36011229912E-01  0.13137848895E+02  0.13402957793E+03  0.12499926238E+03 0.  0.
          2    1    1    2  501    0 -0.45207829850E+02 -0.46009948005E+02  0.50258974596E+02  0.81771802736E+02  0.00000000000E+00 0. -1.
          1    1    1    2  502    0 -0.13379303697E+01  0.46045959235E+02  0.67739525157E+02  0.81918640663E+02  0.00000000000E+00 0. -1.
         22    1    3    3    0    0  0.11957639101E+02 -0.18659325989E+01 -0.55683616857E+02  0.56983611887E+02  0.00000000000E+00 0.  1.
         22    1    3    3    0    0  0.34588121119E+02  0.18299213690E+01  0.68821465753E+02  0.77045966041E+02  0.00000000000E+00 0.  1.
</event>
<event>
 7    1  0.6507405E-006  0.7786205E+02  0.7818608E-02  0.1408077E+00
          2   -1    0    0  502    0  0.00000000000E+00  0.00000000000E+00  0.22823807968E+04  0.22823807968E+04  0.00000000000E+00 0. -1.
          1   -1    0    0  501    0 -0.00000000000E+00 -0.00000000000E+00 -0.42621034875E+03  0.42621034875E+03  0.00000000000E+00 0. -1.
         25    2    1    2    0    0  0.97629897419E+02 -0.24372951034E+02  0.59775276549E+02  0.17124020773E+03  0.12499794977E+03 0.  0.
          2    1    1    2  501    0 -0.76314860109E+02 -0.12566504598E+02 -0.36622875769E+03  0.37430652929E+03  0.00000000000E+00 0. -1.
          1    1    1    2  502    0 -0.21315037310E+02  0.36939455631E+02  0.21626239291E+04  0.21630444085E+04  0.00000000000E+00 0. -1.
         22    1    3    3    0    0  0.47899416384E+02 -0.45224541760E+02 -0.25256159992E+02  0.70551306755E+02  0.00000000000E+00 0.  1.
         22    1    3    3    0    0  0.49730481035E+02  0.20851590726E+02  0.85031436542E+02  0.10068890098E+03  0.00000000000E+00 0.  1.
</event>
<event>
 7    1  0.6507405E-006  0.1036256E+03  0.7818608E-02  0.1281772E+00
          2   -1    0    0  502    0  0.00000000000E+00  0.00000000000E+00  0.81775373703E+03  0.81775373703E+03  0.00000000000E+00 0. -1.
          1   -1    0    0  501    0 -0.00000000000E+00 -0.00000000000E+00 -0.14469379898E+03  0.14469379898E+03  0.00000000000E+00 0. -1.
         25    2    1    2    0    0 -0.78895082947E+01 -0.90470246304E+02 -0.14942984500E+02  0.15522807818E+03  0.12500141465E+03 0.  0.
          2    1    1    2  501    0  0.10303789962E+03  0.89169823530E+02  0.26387624157E+02  0.13879615591E+03  0.00000000000E+00 0. -1.
          1    1    1    2  502    0 -0.95148391327E+02  0.13004227743E+01  0.66161529839E+03  0.66842330191E+03  0.00000000000E+00 0. -1.
         22    1    3    3    0    0 -0.44742782027E+02 -0.58356354899E+02  0.38331420198E+02  0.82925740726E+02  0.00000000000E+00 0. -1.
         22    1    3    3    0    0  0.36853273732E+02 -0.32113891406E+02 -0.53274404697E+02  0.72302337458E+02  0.00000000000E+00 0. -1.
</event>
<event>
 7    1  0.6507405E-006  0.4682317E+02  0.7818608E-02  0.1467046E+00
          2   -1    0    0  502    0  0.00000000000E+00  0.00000000000E+00  0.12585369320E+03  0.12585369320E+03  0.00000000000E+00 0. -1.
          1   -1    0    0  501    0 -0.00000000000E+00 -0.00000000000E+00 -0.30962532005E+03  0.30962532005E+03  0.00000000000E+00 0. -1.
         25    2    1    2    0    0 -0.46697393829E+02 -0.37467359305E+02 -0.88172444815E+02  0.16427046885E+03  0.12500382918E+03 0.  0.
          2    1    1    2  501    0  0.25371683347E+00  0.45565025242E+02 -0.17392189998E+03  0.17979172169E+03  0.00000000000E+00 0. -1.
          1    1    1    2  502    0  0.46443676996E+02 -0.80976659372E+01  0.78322717950E+02  0.91416822706E+02  0.00000000000E+00 0. -1.
         22    1    3    3    0    0 -0.75190457716E+02 -0.39265284538E+02 -0.10190511120E+03  0.13258966472E+03  0.00000000000E+00 0. -1.
         22    1    3    3    0    0  0.28493063887E+02  0.17979252334E+01  0.13732666382E+02  0.31680804137E+02  0.00000000000E+00 0. -1.
</event>
<event>
 7    1  0.6507405E-006  0.1138272E+03  0.7818608E-02  0.1418109E+00
          2   -1    0    0  502    0  0.00000000000E+00  0.00000000000E+00  0.85905090049E+02  0.85905090049E+02  0.00000000000E+00 0. -1.
          1   -1    0    0  501    0 -0.00000000000E+00 -0.00000000000E+00 -0.91525246109E+03  0.91525246109E+03  0.00000000000E+00 0. -1.
         25    2    1    2    0    0 -0.45037376272E+02  0.12611581406E+03 -0.22869041797E+03  0.29301548721E+03  0.12500081863E+03 0.  0.
          2    1    1    2  501    0  0.49247281555E+02 -0.99460578005E+02 -0.64595223943E+03  0.65541742191E+03  0.00000000000E+00 0. -1.
          1    1    1    2  502    0 -0.42099052833E+01 -0.26655236052E+02  0.45295286350E+02  0.52724642028E+02  0.00000000000E+00 0. -1.
         22    1    3    3    0    0 -0.86603191711E+02  0.77093024102E+02 -0.17129250708E+03  0.20684431383E+03  0.00000000000E+00 0.  1.
         22    1    3    3    0    0  0.41565815439E+02  0.49022789955E+02 -0.57397910885E+02  0.86171173383E+02  0.00000000000E+00 0.  1.
</event>
<event>
 7    1  0.6507405E-006  0.1000184E+03  0.7818608E-02  0.1417179E+00
          2   -1    0    0  502    0  0.00000000000E+00  0.00000000000E+00  0.79791817472E+03  0.79791817472E+03  0.00000000000E+00 0. -1.
          1   -1    0    0  501    0 -0.00000000000E+00 -0.00000000000E+00 -0.57320474751E+03  0.57320474751E+03  0.00000000000E+00 0. -1.
         25    2    1    2    0    0 -0.46668921664E+02  0.56958608038E+02  0.12469490078E+03  0.19129218090E+03  0.12498643491E+03 0.  0.
          2    1    1    2  501    0  0.76258390775E+02 -0.65974806532E+02 -0.53481800943E+03  0.54424104997E+03  0.00000000000E+00 0. -1.
          1    1    1    2  502    0 -0.29589469112E+02  0.90161984940E+01  0.63483653585E+03  0.63558969136E+03  0.00000000000E+00 0. -1.
         22    1    3    3    0    0 -0.57448482732E+02 -0.73046917950E+01  0.11027252303E+03  0.12455406868E+03  0.00000000000E+00 0.  1.
         22    1    3    3    0    0  0.10779561068E+02  0.64263299833E+02  0.14422377757E+02  0.66738112218E+02  0.00000000000E+00 0.  1.
</event>
<event>
 7    1  0.6507405E-006  0.5038204E+02  0.7818608E-02  0.1481513E+00
          2   -1    0    0  502    0  0.00000000000E+00  0.00000000000E+00  0.17368136756E+03  0.17368136756E+03  0.00000000000E+00 0. -1.
          1   -1    0    0  501    0 -0.00000000000E+00 -0.00000000000E+00 -0.35375395475E+03  0.35375395475E+03  0.00000000000E+00 0. -1.
         25    2    1    2    0    0  0.41420695304E+02 -0.43192738812E+02 -0.33448883726E+01  0.13860340871E+03  0.12497371700E+03 0.  0.
          2    1    1    2  501    0  0.88574580367E+01  0.37161048239E+02 -0.27534007638E+03  0.27797761732E+03  0.00000000000E+00 0. -1.
          1    1    1    2  502    0 -0.50278153340E+02  0.60316905732E+01  0.98612377566E+02  0.11085429628E+03  0.00000000000E+00 0. -1.
         22    1    3    3    0    0 -0.40831740077E+02  0.72367915095E+01  0.49691836085E+01  0.41764757090E+02  0.00000000000E+00 0. -1.
         22    1    3    3    0    0  0.82252435381E+02 -0.50429530321E+02 -0.83140719810E+01  0.96838651619E+02  0.00000000000E+00 0. -1.
</event>
<event>
 7    1  0.6507405E-006  0.1558236E+03  0.7818608E-02  0.1306912E+00
          2   -1    0    0  502    0  0.00000000000E+00  0.00000000000E+00  0.35162558970E+04  0.35162558970E+04  0.00000000000E+00 0. -1.
          1   -1    0    0  501    0 -0.00000000000E+00 -0.00000000000E+00 -0.11656524224E+04  0.11656524224E+04  0.00000000000E+00 0. -1.
         25    2    1    2    0    0 -0.18056349475E+03 -0.56538731117E+02 -0.26306819365E+02  0.22829442224E+03  0.12500596277E+03 0.  0.
          2    1    1    2  501    0  0.15347731228E+03  0.14407689764E+02 -0.10324455470E+04  0.10438901640E+04  0.00000000000E+00 0. -1.
          1    1    1    2  502    0  0.27086182470E+02  0.42131041353E+02  0.34093558410E+04  0.34097237331E+04  0.00000000000E+00 0. -1.
         22    1    3    3    0    0 -0.32911617237E+02 -0.50997018194E+02  0.32993523519E+02  0.69082870583E+02  0.00000000000E+00 0. -1.
         22    1    3    3    0    0 -0.14765187751E+03 -0.55417129238E+01 -0.59300342883E+02  0.15921155166E+03  0.00000000000E+00 0. -1.
</event>
<event>
 7    1  0.6507405E-006  0.7291168E+02  0.7818608E-02  0.1409748E+00
          2   -1    0    0  502    0  0.00000000000E+00  0.00000000000E+00  0.34709444916E+03  0.34709444916E+03  0.00000000000E+00 0. -1.
          1   -1    0    0  501    0 -0.00000000000E+00 -0.00000000000E+00 -0.21747201842E+03  0.21747201842E+03  0.00000000000E+00 0. -1.
         25    2    1    2    0    0 -0.91433831051E+00  0.78671756903E+02  0.13816289168E+03  0.20224968895E+03  0.12500348272E+03 0.  0.
          2    1    1    2  501    0  0.41846985299E+02 -0.60090237972E+02 -0.17510160162E+03  0.18979614793E+03  0.00000000000E+00 0. -1.
          1    1    1    2  502    0 -0.40932646988E+02 -0.18581518931E+02  0.16656114068E+03  0.17252063070E+03  0.00000000000E+00 0. -1.
         22    1    3    3    0    0  0.87079895804E+01  0.11136348286E+03  0.11874347709E+03  0.16302658602E+03  0.00000000000E+00 0.  1.
         22    1    3    3    0    0 -0.96223278909E+01 -0.32691725957E+02  0.19419414589E+02  0.39223102925E+02  0.00000000000E+00 0.  1.
</event>
<event>
 7    1  0.6507405E-006  0.6155669E+02  0.7818608E-02  0.1451051E+00
          2   -1    0    0  502    0  0.00000000000E+00  0.00000000000E+00  0.13121191277E+04  0.13121191277E+04  0.00000000000E+00 0. -1.
          1   -1    0    0  501    0 -0.00000000000E+00 -0.00000000000E+00 -0.31305804215E+02  0.31305804215E+02  0.00000000000E+00 0. -1.
         25    2    1    2    0    0 -0.24800941485E+02  0.48063773000E+02  0.57384369184E+03  0.58978597730E+03  0.12500281350E+03 0.  0.
          2    1    1    2  501    0 -0.11616455145E+02 -0.61839564884E+02  0.20660649487E+02  0.66226401475E+02  0.00000000000E+00 0. -1.
          1    1    1    2  502    0  0.36417396630E+02  0.13775791883E+02  0.68630898218E+03  0.68741255316E+03  0.00000000000E+00 0. -1.
         22    1    3    3    0    0  0.11921212226E+02  0.42101792903E+02  0.53199527451E+03  0.53379176499E+03  0.00000000000E+00 0.  1.
         22    1    3    3    0    0 -0.36722153711E+02  0.59619800974E+01  0.41848417332E+02  0.55994212318E+02  0.00000000000E+00 0.  1.
</event>
<event>
 7    1  0.6507405E-006  0.4186456E+03  0.7818608E-02  0.1095656E+00
          2   -1    0    0  502    0  0.00000000000E+00  0.00000000000E+00  0.34893581076E+04  0.34893581076E+04  0.00000000000E+00 0. -1.
          1   -1    0    0  501    0 -0.00000000000E+00 -0.00000000000E+00 -0.72448052347E+03  0.72448052347E+03  0.00000000000E+00 0. -1.
         25    2    1    2    0    0  0.26084570010E+03  0.28757570847E+03  0.13138760494E+04  0.13757309312E+04  0.12500021766E+03 0.  0.
          2    1    1    2  501    0 -0.39267536352E+03 -0.15445381336E+03 -0.62476108874E+03  0.75390738130E+03  0.00000000000E+00 0. -1.
          1    1    1    2  502    0  0.13182966342E+03 -0.13312189511E+03  0.20757626234E+04  0.20842003186E+04  0.00000000000E+00 0. -1.
         22    1    3    3    0    0  0.15517961990E+02  0.94258381139E+02  0.30361816300E+03  0.31829143636E+03  0.00000000000E+00 0. -1.
         22    1    3    3    0    0  0.24532773811E+03  0.19331732733E+03  0.10102578864E+04  0.10574394948E+04  0.00000000000E+00 0. -1.
</event>
<event>
 7    1  0.6507405E-006  0.4441038E+02  0.7818608E-02  0.1569401E+00
          2   -1    0    0  502    0  0.00000000000E+00  0.00000000000E+00  0.40976964763E+03  0.40976964763E+03  0.00000000000E+00 0. -1.
          1   -1    0    0  501    0 -0.00000000000E+00 -0.00000000000E+00 -0.12028226012E+03  0.12028226012E+03  0.00000000000E+00 0. -1.
         25    2    1    2    0    0  0.61991930041E+02  0.22881960297E+02  0.13921094194E+03  0.19840811146E+03  0.12497803343E+03 0.  0.
          2    1    1    2  501    0 -0.19969721941E+02 -0.13619903841E+02 -0.87103440415E+02  0.90395248255E+02  0.00000000000E+00 0. -1.
          1    1    1    2  502    0 -0.42022208099E+02 -0.92620564564E+01  0.23737988598E+03  0.24124854804E+03  0.00000000000E+00 0. -1.
         22    1    3    3    0    0  0.45045768369E+01  0.43155759631E+02  0.12963391554E+03  0.13670282682E+03  0.00000000000E+00 0.  1.
         22    1    3    3    0    0  0.57487353204E+02 -0.20273799334E+02  0.95770264018E+01  0.61705284640E+02  0.00000000000E+00 0.  1.
</event>
<event>
 7    1  0.6507405E-006  0.8459219E+02  0.7818608E-02  0.1344667E+00
          2   -1    0    0  502    0  0.00000000000E+00  0.00000000000E+00  0.59785101661E+03  0.59785101661E+03  0.00000000000E+00 0. -1.
          1   -1    0    0  501    0 -0.00000000000E+00 -0.00000000000E+00 -0.65217325178E+03  0.65217325178E+03  0.00000000000E+00 0. -1.
         25    2    1    2    0    0  0.73591969891E+01  0.10232511279E+03 -0.27877331150E+02  0.16409275476E+03  0.12499880034E+03 0.  0.
          2    1    1    2  501    0  0.49558128463E+02 -0.68830825808E+02 -0.55087167292E+03  0.55736279990E+03  0.00000000000E+00 0. -1.
          1    1    1    2  502    0 -0.56917325452E+02 -0.33494286977E+02  0.52442676890E+03  0.52856871373E+03  0.00000000000E+00 0. -1.
         22    1    3    3    0    0  0.50165977790E+01 -0.28348133801E+02  0.52548397962E+01  0.29264249257E+02  0.00000000000E+00 0. -1.
         22    1    3    3    0    0  0.23425992101E+01  0.13067324659E+03 -0.33132170947E+02  0.13482850550E+03  0.00000000000E+00 0. -1.
</event>
<event>
 7    1  0.6507405E-006  0.7481666E+02  0.7818608E-02  0.1469446E+00
          2   -1    0    0  502    0  0.00000000000E+00  0.00000000000E+00  0.46724995560E+03  0.46724995560E+03  0.00000000000E+00 0. -1.
          1   -1    0    0  501    0 -0.00000000000E+00 -0.00000000000E+00 -0.47412524825E+03  0.47412524825E+03  0.00000000000E+00 0. -1.
         25    2    1    2    0    0  0.85152997463E+02  0.18280599386E+02  0.12057848498E+03  0.19429058131E+03  0.12499778261E+03 0.  0.
          2    1    1    2  501    0 -0.11719505423E+02 -0.25461881786E+02 -0.43241603198E+03  0.43332352687E+03  0.00000000000E+00 0. -1.
          1    1    1    2  502    0 -0.73433492040E+02  0.71812824003E+01  0.30496225436E+03  0.31376109566E+03  0.00000000000E+00 0. -1.
         22    1    3    3    0    0  0.68635239038E+02  0.21811210252E+01 -0.28464609656E+01  0.68728856143E+02  0.00000000000E+00 0. -1.
         22    1    3    3    0    0  0.16517758425E+02  0.16099478361E+02  0.12342494594E+03  0.12556172517E+03  0.00000000000E+00 0. -1.
</event>
<event>
 7    1  0.6507405E-006  0.1272726E+03  0.7818608E-02  0.1310783E+00
          2   -1    0    0  502    0  0.00000000000E+00  0.00000000000E+00  0.11564836941E+03  0.11564836941E+03  0.00000000000E+00 0. -1.
          1   -1    0    0  501    0 -0.00000000000E+00 -0.00000000000E+00 -0.13394119595E+04  0.13394119595E+04  0.00000000000E+00 0. -1.
         25    2    1    2    0    0  0.93843265640E+02 -0.83764869858E+02 -0.11547476849E+03  0.21161883751E+03  0.12499999321E+03 0.  0.
          2    1    1    2  501    0 -0.46668732304E+02  0.11953456608E+03 -0.11586392697E+04  0.11657235694E+04  0.00000000000E+00 0. -1.
          1    1    1    2  502    0 -0.47174533336E+02 -0.35769696221E+02  0.50350448130E+02  0.77717921936E+02  0.00000000000E+00 0. -1.
         22    1    3    3    0    0  0.44969148688E+02  0.28089975720E+02 -0.20072281980E+02  0.56693629038E+02  0.00000000000E+00 0.  1.
         22    1    3    3    0    0  0.48874116952E+02 -0.11185484558E+03 -0.95402486513E+02  0.15492520847E+03  0.00000000000E+00 0.  1.
</event>
<event>
 7    1  0.6507405E-006  0.5283445E+02  0.7818608E-02  0.1514960E+00
          2   -1    0    0  502    0  0.00000000000E+00  0.00000000000E+00  0.22639659420E+03  0.22639659420E+03  0.00000000000E+00 0. -1.
          1   -1    0    0  501    0 -0.00000000000E+00 -0.00000000000E+00 -0.10264113243E+03  0.10264113243E+03  0.00000000000E+00 0. -1.
         25    2    1    2    0    0 -0.50878813299E+02  0.46891177120E+02  0.43582432838E+02  0.14937161319E+03  0.12500005696E+03 0.  0.
          2    1    1    2  501    0  0.21955885921E+02 -0.46164045453E+02 -0.34321756307E+02  0.61572420572E+02  0.00000000000E+00 0. -1.
          1    1    1    2  502    0  0.28922927378E+02 -0.72713166731E+00  0.11449478524E+03  0.11809369287E+03  0.00000000000E+00 0. -1.
         22    1    3    3    0    0  0.17129988560E+02  0.45046336964E+02 -0.23683770560E+02  0.53698509941E+02  0.00000000000E+00 0. -1.
         22    1    3    3    0    0 -0.68008801859E+02  0.18448401556E+01  0.67266203398E+02  0.95673103248E+02  0.00000000000E+00 0. -1.
</event>
<event>
 7    1  0.6507405E-006  0.1091154E+03  0.7818608E-02  0.1262389E+00
          2   -1    0    0  502    0  0.00000000000E+00  0.00000000000E+00  0.35846150022E+03  0.35846150022E+03  0.00000000000E+00 0. -1.
          1   -1    0    0  501    0 -0.00000000000E+00 -0.00000000000E+00 -0.12249201255E+04  0.12249201255E+04  0.00000000000E+00 0. -1.
         25    2    1    2    0    0 -0.87367433835E+02 -0.75520902504E+02  0.27751490987E+02  0.17243007528E+03  0.12500204158E+03 0.  0.
          2    1    1    2  501    0  0.10537990021E+03 -0.32097534873E+02 -0.11382815693E+04  0.11435996267E+04  0.00000000000E+00 0. -1.
          1    1    1    2  502    0 -0.18012466379E+02  0.10761843738E+03  0.24407145299E+03  0.26735192382E+03  0.00000000000E+00 0. -1.
         22    1    3    3    0    0 -0.49368537687E+02 -0.83391815100E+02  0.66546673570E+02  0.11755810096E+03  0.00000000000E+00 0.  1.
         22    1    3    3    0    0 -0.37998896148E+02  0.78709125958E+01 -0.38795182583E+02  0.54871974315E+02  0.00000000000E+00 0.  1.
</event>
<event>
 7    1  0.6507405E-006  0.1332834E+03  0.7818608E-02  0.1319446E+00
          2   -1    0    0  502    0  0.00000000000E+00  0.00000000000E+00  0.12091560197E+03  0.12091560197E+03  0.00000000000E+00 0. -1.
          1   -1    0    0  501    0 -0.00000000000E+00 -0.00000000000E+00 -0.17955034140E+04  0.17955034140E+04  0.00000000000E+00 0. -1.
         25    2    1    2    0    0 -0.13836952639E+03  0.78339605027E+02 -0.45415649550E+02  0.20729365300E+03  0.12499943119E+03 0.  0.
          2    1    1    2  501    0  0.25983280997E+02 -0.45378649177E+02 -0.15819976795E+04  0.15828616524E+04  0.00000000000E+00 0. -1.
          1    1    1    2  502    0  0.11238624539E+03 -0.32960955850E+02 -0.47174483000E+02  0.12626371059E+03  0.00000000000E+00 0. -1.
         22    1    3    3    0    0 -0.42425341106E+02  0.26769285781E+01 -0.70719152405E+02  0.82512265946E+02  0.00000000000E+00 0.  1.
         22    1    3    3    0    0 -0.95944185285E+02  0.75662676449E+02  0.25303502855E+02  0.12478138705E+03  0.00000000000E+00 0.  1.
</event>
<event>
 7    1  0.6507405E-006  0.6693467E+02  0.7818608E-02  0.1487770E+00
          2   -1    0    0  502    0  0.00000000000E+00  0.00000000000E+00  0.22758457724E+02  0.22758457724E+02  0.00000000000E+00 0. -1.
          1   -1    0    0  501    0 -0.00000000000E+00 -0.00000000000E+00 -0.95013805802E+03  0.95013805802E+03  0.00000000000E+00 0. -1.
         25    2    1    2    0    0  0.16270615677E+02  0.55809249502E+02 -0.30291298995E+03  0.33280479682E+03  0.12499339197E+03 0.  0.
          2    1    1    2  501    0 -0.21308044855E+02  0.17415229729E+02 -0.44965891188E+03  0.45050023311E+03  0.00000000000E+00 0. -1.
          1    1    1    2  502    0  0.50374291774E+01 -0.73224479232E+02 -0.17480769847E+03  0.18959148582E+03  0.00000000000E+00 0. -1.
         22    1    3    3    0    0  0.25891710416E+02  0.59011492190E+02 -0.31236476996E+03  0.31894276350E+03  0.00000000000E+00 0. -1.
         22    1    3    3    0    0 -0.96210947387E+01 -0.32022426875E+01  0.94517800085E+01  0.13862033311E+02  0.00000000000E+00 0. -1.
</event>
<event>
 7    1  0.6507405E-006  0.3890483E+02  0.7818608E-02  0.1557479E+00
          2   -1    0    0  502    0  0.00000000000E+00  0.00000000000E+00  0.14343897507E+03  0.14343897507E+03  0.00000000000E+00 0. -1.
          1   -1    0    0  501    0 -0.00000000000E+00 -0.00000000000E+00 -0.83911942523E+03  0.83911942523E+03  0.00000000000E+00 0. -1.
         25    2    1    2    0    0  0.37035157058E+02 -0.57201416922E+02 -0.21539694695E+03  0.25819500984E+03  0.12500085358E+03 0.  0.
          2    1    1    2  501    0 -0.17906504021E+02  0.23755701439E+02 -0.59890397590E+03  0.59964235056E+03  0.00000000000E+00 0. -1.
          1    1    1    2  502    0 -0.19128653037E+02  0.33445715483E+02  0.11862047270E+03  0.12472103990E+03  0.00000000000E+00 0. -1.
         22    1    3    3    0    0  0.17022393860E+02 -0.89337614182E+02 -0.92999677526E+02  0.13007655907E+03  0.00000000000E+00 0.  1.
         22    1    3    3    0    0  0.20012763199E+02  0.32136197260E+02 -0.12239726942E+03  0.12811845077E+03  0.00000000000E+00 0.  1.
</event>
<event>
 7    1  0.6507405E-006  0.1556592E+03  0.7818608E-02  0.1291172E+00
          2   -1    0    0  502    0  0.00000000000E+00  0.00000000000E+00  0.89991225135E+03  0.89991225135E+03  0.00000000000E+00 0. -1.
          1   -1    0    0  501    0 -0.00000000000E+00 -0.00000000000E+00 -0.14318883841E+04  0.14318883841E+04  0.00000000000E+00 0. -1.
         25    2    1    2    0    0 -0.13480467467E+03 -0.15038401132E+03 -0.79830006748E+03  0.83288400775E+03  0.12500048585E+03 0.  0.
          2    1    1    2  501    0  0.10729997126E+02  0.56979898943E+02 -0.60807501228E+03  0.61083308872E+03  0.00000000000E+00 0. -1.
          1    1    1    2  502    0  0.12407467755E+03  0.93404112373E+02  0.87439894697E+03  0.88808353902E+03  0.00000000000E+00 0. -1.
         22    1    3    3    0    0 -0.12714187752E+03 -0.85884844956E+02 -0.68781904920E+03  0.70472427803E+03  0.00000000000E+00 0.  1.
         22    1    3    3    0    0 -0.76627971517E+01 -0.64499166360E+02 -0.11048101828E+03  0.12815972972E+03  0.00000000000E+00 0.  1.
</event>
<event>
 7    1  0.6507405E-006  0.8061093E+02  0.7818608E-02  0.1431978E+00
          2   -1    0    0  502    0  0.00000000000E+00  0.00000000000E+00  0.30615527155E+04  0.30615527155E+04  0.00000000000E+00 0. -1.
          1   -1    0    0  501    0 -0.00000000000E+00 -0.00000000000E+00 -0.94522927310E+02  0.94522927310E+02  0.00000000000E+00 0. -1.
         25    2    1    2    0    0  0.76547530770E+02  0.84927008966E+02  0.11680577127E+03  0.20576616471E+03  0.12499602002E+03 0.  0.
          2    1    1    2  501    0 -0.21002555307E+02 -0.27088642559E+02 -0.43551917655E+02  0.55422661579E+02  0.00000000000E+00 0. -1.
          1    1    1    2  502    0 -0.55544975464E+02 -0.57838366407E+02  0.28937759346E+04  0.28948868165E+04  0.00000000000E+00 0. -1.
         22    1    3    3    0    0 -0.19918277327E+01 -0.26750203358E+02  0.11736290624E+01  0.26849919229E+02  0.00000000000E+00 0. -1.
         22    1    3    3    0    0  0.78539358503E+02  0.11167721232E+03  0.11563214221E+03  0.17891624549E+03  0.00000000000E+00 0. -1.
</event>
<event>
 7    1  0.6507405E-006  0.2185694E+03  0.7818608E-02  0.1246529E+00
          2   -1    0    0  502    0  0.00000000000E+00  0.00000000000E+00  0.64415199186E+03  0.64415199186E+03  0.00000000000E+00 0. -1.
          1   -1    0    0  501    0 -0.00000000000E+00 -0.00000000000E+00 -0.95492815075E+03  0.95492815075E+03  0.00000000000E+00 0. -1.
         25    2    1    2    0    0 -0.19424692168E+03 -0.12789856068E+03  0.23927028782E+02  0.26511466127E+03  0.12499348985E+03 0.  0.
          2    1    1    2  501    0  0.20783059102E+03  0.65720797267E+02 -0.81797552184E+03  0.84652036720E+03  0.00000000000E+00 0. -1.
          1    1    1    2  502    0 -0.13583669338E+02  0.62177763414E+02  0.48327233416E+03  0.48744511414E+03  0.00000000000E+00 0. -1.
         22    1    3    3    0    0 -0.20887753721E+03 -0.10958392813E+03  0.66096263965E+01  0.23597065499E+03  0.00000000000E+00 0.  1.
         22    1    3    3    0    0  0.14630615529E+02 -0.18314632552E+02  0.17317402385E+02  0.29144006273E+02  0.00000000000E+00 0.  1.
</event>
<event>
 7    1  0.6507405E-006  0.1086087E+03  0.7818608E-02  0.1320770E+00
          2   -1    0    0  502    0  0.00000000000E+00  0.00000000000E+00  0.10734130482E+04  0.10734130482E+04  0.00000000000E+00 0. -1.
          1   -1    0    0  501    0 -0.00000000000E+00 -0.00000000000E+00 -0.17253772462E+03  0.17253772462E+03  0.00000000000E+00 0. -1.
         25    2    1    2    0    0  0.80676267564E+02 -0.67361073440E+02 -0.29802934710E+02  0.16601042538E+03  0.12500028821E+03 0.  0.
          2    1    1    2  501    0 -0.50935785826E+02 -0.37778890106E+02 -0.57581717975E+02  0.85658350791E+02  0.00000000000E+00 0. -1.
          1    1    1    2  502    0 -0.29740481738E+02  0.10513996355E+03  0.98825997629E+03  0.99428199669E+03  0.00000000000E+00 0. -1.
         22    1    3    3    0    0  0.21507503573E+02 -0.22615657592E+02  0.48801816375E+02  0.57928041221E+02  0.00000000000E+00 0.  1.
         22    1    3    3    0    0  0.59168763991E+02 -0.44745415848E+02 -0.78604751085E+02  0.10808238416E+03  0.00000000000E+00 0.  1.
</event>
<event>
 7    1  0.6507405E-006  0.2064621E+03  0.7818608E-02  0.1203938E+00
          2   -1    0    0  502    0  0.00000000000E+00  0.00000000000E+00  0.85172619365E+03  0.85172619365E+03  0.00000000000E+00 0. -1.
          1   -1    0    0  501    0 -0.00000000000E+00 -0.00000000000E+00 -0.71237173031E+03  0.71237173031E+03  0.00000000000E+00 0. -1.
         25    2    1    2    0    0  0.93387044444E+02 -0.55196501784E+02  0.28814994468E+03  0.33229798282E+03  0.12499505947E+03 0.  0.
          2    1    1    2  501    0 -0.19439655051E+03  0.83753741612E+02 -0.66870151578E+03  0.70140318312E+03  0.00000000000E+00 0. -1.
          1    1    1    2  502    0  0.10100950607E+03 -0.28557239828E+02  0.51990603445E+03  0.53039675802E+03  0.00000000000E+00 0. -1.
         22    1    3    3    0    0  0.10771803003E+03 -0.33573365756E+02  0.13043304682E+03  0.17246195112E+03  0.00000000000E+00 0. -1.
         22    1    3    3    0    0 -0.14330985590E+02 -0.21623136027E+02  0.15771689786E+03  0.15983603170E+03  0.00000000000E+00 0. -1.
</event>
<event>
 7    1  0.6507405E-006  0.1072507E+03  0.7818608E-02  0.1299503E+00
          2   -1    0    0  502    0  0.00000000000E+00  0.00000000000E+00  0.17099858436E+03  0.17099858436E+03  0.00000000000E+00 0. -1.
          1   -1    0    0  501    0 -0.00000000000E+00 -0.00000000000E+00 -0.79565429075E+03  0.79565429075E+03  0.00000000000E+00 0. -1.
         25    2    1    2    0    0  0.42545119672E+02  0.64497547763E+02 -0.33810829462E+03  0.36866293010E+03  0.12500046506E+03 0.  0.
          2    1    1    2  501    0 -0.48946852979E+01 -0.13267964009E+03 -0.42164163854E+03  0.44205148591E+03  0.00000000000E+00 0. -1.
          1    1    1    2  502    0 -0.37650434374E+02  0.68182092324E+02  0.13509422677E+03  0.15593845910E+03  0.00000000000E+00 0. -1.
         22    1    3    3    0    0  0.83999826883E+02  0.50268505635E+02 -0.27436310776E+03  0.29130397950E+03  0.00000000000E+00 0. -1.
         22    1    3    3    0    0 -0.41454707211E+02  0.14229042128E+02 -0.63745186858E+02  0.77358950596E+02  0.00000000000E+00 0. -1.
</event>
<event>
 7    1  0.6507405E-006  0.5878533E+02  0.7818608E-02  0.1405694E+00
          2   -1    0    0  502    0  0.00000000000E+00  0.00000000000E+00  0.60291376754E+03  0.60291376754E+03  0.00000000000E+00 0. -1.
          1   -1    0    0  501    0 -0.00000000000E+00 -0.00000000000E+00 -0.26501157257E+03  0.26501157257E+03  0.00000000000E+00 0. -1.
         25    2    1    2    0    0 -0.26317443742E+01  0.28896001886E+01  0.18675385253E+03  0.22476010501E+03  0.12499931000E+03 0.  0.
          2    1    1    2  501    0 -0.11607454480E+02 -0.58653295708E+02 -0.24023970190E+03  0.24756828647E+03  0.00000000000E+00 0. -1.
          1    1    1    2  502    0  0.14239198854E+02  0.55763695519E+02  0.39138804433E+03  0.39559694864E+03  0.00000000000E+00 0. -1.
         22    1    3    3    0    0  0.60000924774E+02  0.94136744356E+01  0.75235839928E+02  0.96691053619E+02  0.00000000000E+00 0. -1.
         22    1    3    3    0    0 -0.62632669149E+02 -0.65240742470E+01  0.11151801260E+03  0.12806905139E+03  0.00000000000E+00 0. -1.
</event>
<event>
 7    1  0.6507405E-006  0.2157608E+03  0.7818608E-02  0.1206161E+00
          2   -1    0    0  502    0  0.00000000000E+00  0.00000000000E+00  0.15769837170E+04  0.15769837170E+04  0.00000000000E+00 0. -1.
          1   -1    0    0  501    0 -0.00000000000E+00 -0.00000000000E+00 -0.15963771342E+03  0.15963771342E+03  0.00000000000E+00 0. -1.
         25    2    1    2    0    0  0.16430605391E+03  0.67631726760E+02  0.35588302675E+03  0.41695037884E+03  0.12499743946E+03 0.  0.
          2    1    1    2  501    0  0.16395887772E+01  0.98055663851E+02 -0.96866465288E+02  0.13784307586E+03  0.00000000000E+00 0. -1.
          1    1    1    2  502    0 -0.16594564269E+03 -0.16568739061E+03  0.11583294421E+04  0.11818279757E+04  0.00000000000E+00 0. -1.
         22    1    3    3    0    0 -0.11059497191E+02  0.24809103309E+02  0.14530628255E+02  0.30804922375E+02  0.00000000000E+00 0.  1.
         22    1    3    3    0    0  0.17536555110E+03  0.42822623451E+02  0.34135239850E+03  0.38614545647E+03  0.00000000000E+00 0.  1.
</event>
<event>
 7    1  0.6507405E-006  0.1189061E+03  0.7818608E-02  0.1321002E+00
          2   -1    0    0  502    0  0.00000000000E+00  0.00000000000E+00  0.11623036516E+04  0.11623036516E+04  0.00000000000E+00 0. -1.
          1   -1    0    0  501    0 -0.00000000000E+00 -0.00000000000E+00 -0.11493704255E+03  0.11493704255E+03  0.00000000000E+00 0. -1.
         25    2    1    2    0    0 -0.55975743628E+02 -0.15889901092E+03  0.21903340639E+03  0.30328620171E+03  0.12499882994E+03 0.  0.
          2    1    1    2  501    0  0.18316294296E+01  0.57775903854E+02 -0.57023658275E+02  0.81197952779E+02  0.00000000000E+00 0. -1.
          1    1    1    2  502    0  0.54144114199E+02  0.10112310707E+03  0.88535686089E+03  0.89275653961E+03  0.00000000000E+00 0. -1.
         22    1    3    3    0    0 -0.41640862011E+02 -0.20639988311E+02  0.13039349723E+03  0.13842844587E+03  0.00000000000E+00 0. -1.
         22    1    3    3    0    0 -0.14334881617E+02 -0.13825902261E+03  0.88639909158E+02  0.16485775584E+03  0.00000000000E+00 0. -1.
</event>
<event>
 7    1  0.6507405E-006  0.5245855E+02  0.7818608E-02  0.1463157E+00
          2   -1    0    0  502    0  0.00000000000E+00  0.00000000000E+00  0.56865330820E+03  0.56865330820E+03  0.00000000000E+00 0. -1.
          1   -1    0    0  501    0 -0.00000000000E+00 -0.00000000000E+00 -0.97219944696E+02  0.97219944696E+02  0.00000000000E+00 0. -1.
         25    2    1    2    0    0  0.34463552060E+02  0.39904330151E+02  0.11091743271E+03  0.17523666286E+03  0.12500047658E+03 0.  0.
          2    1    1    2  501    0 -0.39720496380E+02  0.13108447504E+02 -0.56463110338E+02  0.70268286286E+02  0.00000000000E+00 0. -1.
          1    1    1    2  502    0  0.52569443192E+01 -0.53012777655E+02  0.41697904113E+03  0.42036830375E+03  0.00000000000E+00 0. -1.
         22    1    3    3    0    0 -0.17715320458E+02 -0.34092693657E+02  0.10094024678E+02  0.39724471978E+02  0.00000000000E+00 0.  1.
         22    1    3    3    0    0  0.52178872518E+02  0.73997023808E+02  0.10082340804E+03  0.13551219088E+03  0.00000000000E+00 0.  1.
</event>
<event>
 7    1  0.6507405E-006  0.5392712E+02  0.7818608E-02  0.1464952E+00
          2   -1    0    0  502    0  0.00000000000E+00  0.00000000000E+00  0.16423268297E+04  0.16423268297E+04  0.00000000000E+00 0. -1.
          1   -1    0    0  501    0 -0.00000000000E+00 -0.00000000000E+00 -0.59356769612E+03  0.59356769612E+03  0.00000000000E+00 0. -1.
         25    2    1    2    0    0 -0.33185086633E+02  0.93026206839E+01  0.11962745958E+03  0.17641698866E+03  0.12499774427E+03 0.  0.
          2    1    1    2  501    0  0.24261360337E+02 -0.48463101429E+02 -0.56360290157E+03  0.56620271676E+03  0.00000000000E+00 0. -1.
          1    1    1    2  502    0  0.89237262968E+01  0.39160480745E+02  0.14927345756E+04  0.14932748204E+04  0.00000000000E+00 0. -1.
         22    1    3    3    0    0  0.14771656756E+02 -0.77273815762E+01  0.12420683779E+03  0.12532060015E+03  0.00000000000E+00 0.  1.
         22    1    3    3    0    0 -0.47956743389E+02  0.17030002260E+02 -0.45793782032E+01  0.51096388504E+02  0.00000000000E+00 0.  1.
</event>
<event>
 7    1  0.6507405E-006  0.9307858E+02  0.7818608E-02  0.1302878E+00
          2   -1    0    0  502    0  0.00000000000E+00  0.00000000000E+00  0.27061037535E+03  0.27061037535E+03  0.00000000000E+00 0. -1.
          1   -1    0    0  501    0 -0.00000000000E+00 -0.00000000000E+00 -0.44796775962E+03  0.44796775962E+03  0.00000000000E+00 0. -1.
         25    2    1    2    0    0 -0.39617339438E+02  0.84325556422E+02 -0.63050737112E+02  0.16816920833E+03  0.12500061652E+03 0.  0.
          2    1    1    2  501    0  0.96247527232E+02 -0.18277503435E+02 -0.31595375107E+03  0.33079363120E+03  0.00000000000E+00 0. -1.
          1    1    1    2  502    0 -0.56630187794E+02 -0.66048052988E+02  0.20164710391E+03  0.21961529543E+03  0.00000000000E+00 0. -1.
         22    1    3    3    0    0 -0.24750704546E+02 -0.17409949082E+02 -0.57772479217E+02  0.65217812424E+02  0.00000000000E+00 0. -1.
         22    1    3    3    0    0 -0.14866634892E+02  0.10173550550E+03 -0.52782578955E+01  0.10295139591E+03  0.00000000000E+00 0. -1.
</event>
<event>
 7    1  0.6507405E-006  0.1730764E+03  0.7818608E-02  0.1384044E+00
          2   -1    0    0  502    0  0.00000000000E+00  0.00000000000E+00  0.91714057578E+02  0.91714057578E+02  0.00000000000E+00 0. -1.
          1   -1    0    0  501    0 -0.00000000000E+00 -0.00000000000E+00 -0.13526866632E+04  0.13526866632E+04  0.00000000000E+00 0. -1.
         25    2    1    2    0    0 -0.33664733620E+02  0.16135774478E+03 -0.34609639842E+03  0.40321041739E+03  0.12500515029E+03 0.  0.
          2    1    1    2  501    0  0.14853907049E+02 -0.17499386142E+03 -0.96768710928E+03  0.98349470337E+03  0.00000000000E+00 0. -1.
          1    1    1    2  502    0  0.18810826571E+02  0.13636116644E+02  0.52810902124E+02  0.57695599976E+02  0.00000000000E+00 0. -1.
         22    1    3    3    0    0 -0.50287539096E+02  0.12979364942E+03 -0.15298806108E+03  0.20683465583E+03  0.00000000000E+00 0. -1.
         22    1    3    3    0    0  0.16622805476E+02  0.31564095358E+02 -0.19310833734E+03  0.19637576156E+03  0.00000000000E+00 0. -1.
</event>
<event>
 7    1  0.6507405E-006  0.6756584E+02  0.7818608E-02  0.1485818E+00
          2   -1    0    0  502    0  0.00000000000E+00  0.00000000000E+00  0.20414957354E+03  0.20414957354E+03  0.00000000000E+00 0. -1.
          1   -1    0    0  501    0 -0.00000000000E+00 -0.00000000000E+00 -0.20888713598E+03  0.20888713598E+03  0.00000000000E+00 0. -1.
         25    2    1    2    0    0  0.18593341163E+02 -0.83100499382E+02  0.10673824382E+03  0.18512104503E+03  0.12500137314E+03 0.  0.
          2    1    1    2  501    0 -0.31826779494E+02  0.58837522817E+02 -0.15924676384E+03  0.17272616993E+03  0.00000000000E+00 0. -1.
          1    1    1    2  502    0  0.13233438331E+02  0.24262976565E+02  0.47770957586E+02  0.55189494567E+02  0.00000000000E+00 0. -1.
         22    1    3    3    0    0 -0.87363617215E+01 -0.11132586761E+03  0.73793733139E+02  0.13384800284E+03  0.00000000000E+00 0. -1.
         22    1    3    3    0    0  0.27329702884E+02  0.28225368224E+02  0.32944510677E+02  0.51273042185E+02  0.00000000000E+00 0. -1.
</event>
<event>
 7    1  0.6507405E-006  0.5206992E+02  0.7818608E-02  0.1492553E+00
          2   -1    0    0  502    0  0.00000000000E+00  0.00000000000E+00  0.10019926351E+04  0.10019926351E+04  0.00000000000E+00 0. -1.
          1   -1    0    0  501    0 -0.00000000000E+00 -0.00000000000E+00 -0.28699103853E+04  0.28699103853E+04  0.00000000000E+00 0. -1.
         25    2    1    2    0    0  0.18842871923E+02  0.51099278758E+02  0.10081508181E+03  0.16957513941E+03  0.12500342825E+03 0.  0.
          2    1    1    2  501    0 -0.43987277148E+02 -0.27892887828E+02 -0.28349533739E+04  0.28354318059E+04  0.00000000000E+00 0. -1.
          1    1    1    2  502    0  0.25144405225E+02 -0.23206390930E+02  0.86622054191E+03  0.86689607504E+03  0.00000000000E+00 0. -1.
         22    1    3    3    0    0 -0.21976240519E+02  0.88554994687E+01 -0.22693780977E+02  0.32808272024E+02  0.00000000000E+00 0. -1.
         22    1    3    3    0    0  0.40819112442E+02  0.42243779289E+02  0.12350886278E+03  0.13676686739E+03  0.00000000000E+00 0. -1.
</event>
<event>
 7    1  0.6507405E-006  0.9260607E+02  0.7818608E-02  0.1352827E+00
          2   -1    0    0  502    0  0.00000000000E+00  0.00000000000E+00  0.39201162502E+03  0.39201162502E+03  0.00000000000E+00 0. -1.
          1   -1    0    0  501    0 -0.00000000000E+00 -0.00000000000E+00 -0.12518509553E+04  0.12518509553E+04  0.00000000000E+00 0. -1.
         25    2    1    2    0    0  0.24687309748E+02  0.35461425521E+02  0.30920354555E+02  0.13582627677E+03  0.12500293266E+03 0.  0.
          2    1    1    2  501    0 -0.78823711537E+02 -0.50781015819E+02 -0.11949820968E+04  0.11986551217E+04  0.00000000000E+00 0. -1.
          1    1    1    2  502    0  0.54136401790E+02  0.15319590299E+02  0.30422241188E+03  0.30938118194E+03  0.00000000000E+00 0. -1.
         22    1    3    3    0    0 -0.47826670528E+01  0.23041096405E+02 -0.46469933939E+02  0.52088585967E+02  0.00000000000E+00 0.  1.
         22    1    3    3    0    0  0.29469976800E+02  0.12420329116E+02  0.77390288494E+02  0.83737690804E+02  0.00000000000E+00 0.  1.
</event>
<event>
 7    1  0.6507405E-006  0.9326897E+02  0.7818608E-02  0.1472061E+00
          2   -1    0    0  502    0  0.00000000000E+00  0.00000000000E+00  0.91666406085E+03  0.91666406085E+03  0.00000000000E+00 0. -1.
          1   -1    0    0  501    0 -0.00000000000E+00 -0.00000000000E+00 -0.14813725583E+03  0.14813725583E+03  0.00000000000E+00 0. -1.
         25    2    1    2    0    0 -0.86685311696E+02  0.60083588467E+02  0.16926416960E+03  0.23537186268E+03  0.12500069507E+03 0.  0.
          2    1    1    2  501    0  0.65238870845E+02 -0.65281735171E+02 -0.96376701743E+02  0.13344018831E+03  0.00000000000E+00 0. -1.
          1    1    1    2  502    0  0.21446440851E+02  0.51981467041E+01  0.69563933716E+03  0.69598926570E+03  0.00000000000E+00 0. -1.
         22    1    3    3    0    0 -0.12686316152E+02 -0.37232006613E+02  0.57913809018E+02  0.70008386705E+02  0.00000000000E+00 0. -1.
         22    1    3    3    0    0 -0.73998995544E+02  0.97315595080E+02  0.11135036058E+03  0.16536347598E+03  0.00000000000E+00 0. -1.
</event>
<event>
 7    1  0.6507405E-006  0.7430592E+02  0.7818608E-02  0.1355703E+00
          2   -1    0    0  502    0  0.00000000000E+00  0.00000000000E+00  0.42192813182E+03  0.42192813182E+03  0.00000000000E+00 0. -1.
          1   -1    0    0  501    0 -0.00000000000E+00 -0.00000000000E+00 -0.10435520772E+04  0.10435520772E+04  0.00000000000E+00 0. -1.
         25    2    1    2    0    0 -0.21069054700E+02 -0.35303088451E+02 -0.18564106061E+03  0.22754917385E+03  0.12500324002E+03 0.  0.
          2    1    1    2  501    0  0.79037046957E+02 -0.10606936595E+01 -0.83215089395E+03  0.83589657863E+03  0.00000000000E+00 0. -1.
          1    1    1    2  502    0 -0.57967992257E+02  0.36363782110E+02  0.39616800917E+03  0.40203445656E+03  0.00000000000E+00 0. -1.
         22    1    3    3    0    0 -0.11711605622E+02 -0.11818298615E+02  0.16735962225E+02  0.23599286430E+02  0.00000000000E+00 0.  1.
         22    1    3    3    0    0 -0.93574490788E+01 -0.23484789835E+02 -0.20237702284E+03  0.20394988742E+03  0.00000000000E+00 0.  1.
</event>
<event>
 7    1  0.6507405E-006  0.5519011E+02  0.7818608E-02  0.1508815E+00
          2   -1    0    0  502    0  0.00000000000E+00  0.00000000000E+00  0.14618396386E+04  0.14618396386E+04  0.00000000000E+00 0. -1.
          1   -1    0    0  501    0 -0.00000000000E+00 -0.00000000000E+00 -0.48465502754E+03  0.48465502754E+03  0.00000000000E+00 0. -1.
         25    2    1    2    0    0 -0.14890539203E+01 -0.55107399268E+02  0.94956997563E+03  0.95934737851E+03  0.12500084525E+03 0.  0.
          2    1    1    2  501    0 -0.26587948889E+02  0.48377950442E+02 -0.47776500012E+03  0.48094359384E+03  0.00000000000E+00 0. -1.
          1    1    1    2  502    0  0.28077002809E+02  0.67294488260E+01  0.50537963559E+03  0.50620369382E+03  0.00000000000E+00 0. -1.
         22    1    3    3    0    0 -0.17685053129E+02 -0.93380279008E+02  0.66785103010E+03  0.67457959947E+03  0.00000000000E+00 0. -1.
         22    1    3    3    0    0  0.16195999209E+02  0.38272879740E+02  0.28171894552E+03  0.28476777904E+03  0.00000000000E+00 0. -1.
</event>
<event>
 7    1  0.6507405E-006  0.4393199E+02  0.7818608E-02  0.1486505E+00
          2   -1    0    0  502    0  0.00000000000E+00  0.00000000000E+00  0.15425545940E+04  0.15425545940E+04  0.00000000000E+00 0. -1.
          1   -1    0    0  501    0 -0.00000000000E+00 -0.00000000000E+00 -0.24341795587E+03  0.24341795587E+03  0.00000000000E+00 0. -1.
         25    2    1    2    0    0  0.62118564122E+02  0.57724563749E+02  0.80579797948E+01  0.15126347329E+03  0.12499946418E+03 0.  0.
          2    1    1    2  501    0 -0.32423434912E+02 -0.27598436375E+02 -0.16886620858E+03  0.17415151226E+03  0.00000000000E+00 0. -1.
          1    1    1    2  502    0 -0.29695129209E+02 -0.30126127374E+02  0.14599448670E+04  0.14605575644E+04  0.00000000000E+00 0. -1.
         22    1    3    3    0    0  0.38590009307E+02 -0.11629426933E+02 -0.45312381155E+02  0.60643583956E+02  0.00000000000E+00 0. -1.
         22    1    3    3    0    0  0.23528554815E+02  0.69353990683E+02  0.53370360950E+02  0.90619889336E+02  0.00000000000E+00 0. -1.
</event>
<event>
 7    1  0.6507405E-006  0.1197760E+03  0.7818608E-02  0.1334457E+00
          2   -1    0    0  502    0  0.00000000000E+00  0.00000000000E+00  0.24620198972E+04  0.24620198972E+04  0.00000000000E+00 0. -1.
          1   -1    0    0  501    0 -0.00000000000E+00 -0.00000000000E+00 -0.12449871224E+03  0.12449871224E+03  0.00000000000E+00 0. -1.
         25    2    1    2    0    0 -0.86359037705E+02 -0.86361045680E+02  0.29053441936E+03  0.33904248224E+03  0.12499376914E+03 0.  0.
          2    1    1    2  501    0  0.11277803474E+03  0.42785916034E+02 -0.63540448134E+02  0.13633381195E+03  0.00000000000E+00 0. -1.
          1    1    1    2  502    0 -0.26418997034E+02  0.43575129646E+02  0.21105272138E+04  0.21111423153E+04  0.00000000000E+00 0. -1.
         22    1    3    3    0    0 -0.67524011799E+01 -0.48822250650E+02  0.22224097047E+03  0.22764062915E+03  0.00000000000E+00 0.  1.
         22    1    3    3    0    0 -0.79606636525E+02 -0.37538795030E+02  0.68293448885E+02  0.11140185309E+03  0.00000000000E+00 0.  1.
</event>
<event>
 7    1  0.6507405E-006  0.8241867E+02  0.7818608E-02  0.1424023E+00
          2   -1    0    0  502    0  0.00000000000E+00  0.00000000000E+00  0.37669489830E+03  0.37669489830E+03  0.00000000000E+00 0. -1.
          1   -1    0    0  501    0 -0.00000000000E+00 -0.00000000000E+00 -0.40590528784E+03  0.40590528784E+03  0.00000000000E+00 0. -1.
         25    2    1    2    0    0 -0.70301487757E+02 -0.87634773947E+02 -0.28147660876E+03  0.32783360345E+03  0.12499454984E+03 0.  0.
          2    1    1    2  501    0  0.76279110443E+01  0.34788490353E+02 -0.93165131382E+02  0.99740492245E+02  0.00000000000E+00 0. -1.
          1    1    1    2  502    0  0.62673576713E+02  0.52846283594E+02  0.34543135060E+03  0.35502609043E+03  0.00000000000E+00 0. -1.
         22    1    3    3    0    0 -0.60804448932E+02 -0.10926244188E+03 -0.27682953425E+03  0.30375986116E+03  0.00000000000E+00 0.  1.
         22    1    3    3    0    0 -0.94970388247E+01  0.21627667935E+02 -0.46470745100E+01  0.24073742299E+02  0.00000000000E+00 0.  1.
</event>
<event>
 7    1  0.6507405E-006  0.3604303E+03  0.7818608E-02  0.1260704E+00
          2   -1    0    0  502    0  0.00000000000E+00  0.00000000000E+00  0.13678713446E+04  0.13678713446E+04  0.00000000000E+00 0. -1.
          1   -1    0    0  501    0 -0.00000000000E+00 -0.00000000000E+00 -0.67710275014E+03  0.67710275014E+03  0.00000000000E+00 0. -1.
         25    2    1    2    0    0  0.14643779768E+03 -0.29891085207E+03  0.18618266012E+03  0.40134781633E+03  0.12499744266E+03 0.  0.
          2    1    1    2  501    0 -0.16597916792E+03  0.32615371583E+03 -0.51042614111E+03  0.62806064680E+03  0.00000000000E+00 0. -1.
          1    1    1    2  502    0  0.19541370236E+02 -0.27242863762E+02  0.10150120755E+04  0.10155656316E+04  0.00000000000E+00 0. -1.
         22    1    3    3    0    0  0.14508260536E+03 -0.25348828603E+03  0.19984309802E+03  0.35389622400E+03  0.00000000000E+00 0.  1.
         22    1    3    3    0    0  0.13551923212E+01 -0.45422566035E+02 -0.13660437901E+02  0.47451592335E+02  0.00000000000E+00 0.  1.
</event>
<event>
 7    1  0.6507405E-006  0.6732771E+02  0.7818608E-02  0.1380632E+00
          2   -1    0    0  502    0  0.00000000000E+00  0.00000000000E+00  0.42823828083E+02  0.42823828083E+02  0.00000000000E+00 0. -1.
          1   -1    0    0  501    0 -0.00000000000E+00 -0.00000000000E+00 -0.17911585199E+04  0.17911585199E+04  0.00000000000E+00 0. -1.
         25    2    1    2    0    0 -0.58000946093E+02 -0.60262431516E+01 -0.71274487285E+03  0.72596847545E+03  0.12499819284E+03 0.  0.
          2    1    1    2  501    0  0.14634058894E+02  0.59635298421E+02 -0.10372247442E+04  0.10390407569E+04  0.00000000000E+00 0. -1.
          1    1    1    2  502    0  0.43366887198E+02 -0.53609055270E+02  0.16349251580E+01  0.68973115722E+02  0.00000000000E+00 0. -1.
         22    1    3    3    0    0 -0.68601818055E+02 -0.14711828849E+02 -0.70799656497E+03  0.71146453416E+03  0.00000000000E+00 0. -1.
         22    1    3    3    0    0  0.10600871962E+02  0.86855856976E+01 -0.47483078788E+01  0.14503941291E+02  0.00000000000E+00 0. -1.
</event>
<event>
 7    1  0.6507405E-006  0.1432898E+03  0.7818608E-02  0.1286517E+00
          2   -1    0    0  502    0  0.00000000000E+00  0.00000000000E+00  0.26996986380E+04  0.26996986380E+04  0.00000000000E+00 0. -1.
          1   -1    0    0  501    0 -0.00000000000E+00 -0.00000000000E+00 -0.72370327228E+03  0.72370327228E+03  0.00000000000E+00 0. -1.
         25    2    1    2    0    0  0.22241768719E+02  0.20108614531E+03  0.38682763408E+02  0.24093459135E+03  0.12499114774E+03 0.  0.
          2    1    1    2  501    0  0.22809724561E+01 -0.14002832675E+03 -0.61427208802E+03  0.63003439053E+03  0.00000000000E+00 0. -1.
          1    1    1    2  502    0 -0.24522741175E+02 -0.61057818567E+02  0.25515846904E+04  0.25524329284E+04  0.00000000000E+00 0. -1.
         22    1    3    3    0    0  0.40699949069E+02  0.34342575024E+02  0.49658401810E+02  0.72813839233E+02  0.00000000000E+00 0. -1.
         22    1    3    3    0    0 -0.18458180350E+02  0.16674357029E+03 -0.10975638401E+02  0.16812075212E+03  0.00000000000E+00 0. -1.
</event>
<event>
 7    1  0.6507405E-006  0.9872717E+02  0.7818608E-02  0.1347499E+00
          2   -1    0    0  502    0  0.00000000000E+00  0.00000000000E+00  0.53750225547E+03  0.53750225547E+03  0.00000000000E+00 0. -1.
          1   -1    0    0  501    0 -0.00000000000E+00 -0.00000000000E+00 -0.56169680536E+03  0.56169680536E+03  0.00000000000E+00 0. -1.
         25    2    1    2    0    0 -0.87647308227E+02  0.17911880975E+02  0.35304798908E+03  0.38506019413E+03  0.12500233753E+03 0.  0.
          2    1    1    2  501    0 -0.25116256119E+02 -0.49185821139E+02 -0.52373883616E+03  0.52664261109E+03  0.00000000000E+00 0. -1.
          1    1    1    2  502    0  0.11276356435E+03  0.31273940164E+02  0.14649629719E+03  0.18749625561E+03  0.00000000000E+00 0. -1.
         22    1    3    3    0    0 -0.35852984895E+02  0.57571195917E+02  0.82704717552E+02  0.10695769926E+03  0.00000000000E+00 0.  1.
         22    1    3    3    0    0 -0.51794323332E+02 -0.39659314942E+02  0.27034327153E+03  0.27810249487E+03  0.00000000000E+00 0.  1.
</event>
<event>
 7    1  0.6507405E-006  0.9421672E+02  0.7818608E-02  0.1365704E+00
          2   -1    0    0  502    0  0.00000000000E+00  0.00000000000E+00  0.15048761773E+03  0.15048761773E+03  0.00000000000E+00 0. -1.
          1   -1    0    0  501    0 -0.00000000000E+00 -0.00000000000E+00 -0.45895510688E+03  0.45895510688E+03  0.00000000000E+00 0. -1.
         25    2    1    2    0    0 -0.94358324056E+01 -0.63071142967E+02 -0.81541804456E+02  0.16230151084E+03  0.12500284212E+03 0.  0.
          2    1    1    2  501    0  0.53729544386E+02  0.85442711362E+02 -0.32332867163E+03  0.33871632786E+03  0.00000000000E+00 0. -1.
          1    1    1    2  502    0 -0.44293711981E+02 -0.22371568396E+02  0.96402986935E+02  0.10842488591E+03  0.00000000000E+00 0. -1.
         22    1    3    3    0    0 -0.17391889101E+02 -0.83335411100E+02 -0.10170269412E+03  0.13262996094E+03  0.00000000000E+00 0.  1.
         22    1    3    3    0    0  0.79560566954E+01  0.20264268133E+02  0.20160889660E+02  0.29671549892E+02  0.00000000000E+00 0.  1.
</event>
<event>
 7    1  0.6507405E-006  0.7408204E+02  0.7818608E-02  0.1426327E+00
          2   -1    0    0  502    0  0.00000000000E+00  0.00000000000E+00  0.11093837154E+04  0.11093837154E+04  0.00000000000E+00 0. -1.
          1   -1    0    0  501    0 -0.00000000000E+00 -0.00000000000E+00 -0.86233386346E+03  0.86233386346E+03  0.00000000000E+00 0. -1.
         25    2    1    2    0    0  0.10465780610E+03  0.38361163713E+02 -0.15089238157E+03  0.22543315191E+03  0.12500703942E+03 0.  0.
          2    1    1    2  501    0 -0.38542442668E+02 -0.54948233517E+01 -0.67233611123E+03  0.67346236676E+03  0.00000000000E+00 0. -1.
          1    1    1    2  502    0 -0.66115363435E+02 -0.32866340362E+02  0.10702783447E+04  0.10728220602E+04  0.00000000000E+00 0. -1.
         22    1    3    3    0    0  0.27863540402E+02 -0.33262575536E+02 -0.22634371305E+01  0.43449959295E+02  0.00000000000E+00 0. -1.
         22    1    3    3    0    0  0.76794265701E+02  0.71623739250E+02 -0.14862894444E+03  0.18198319261E+03  0.00000000000E+00 0. -1.
</event>
<event>
 7    1  0.6507405E-006  0.5138455E+02  0.7818608E-02  0.1465628E+00
          2   -1    0    0  502    0  0.00000000000E+00  0.00000000000E+00  0.57777858609E+02  0.57777858609E+02  0.00000000000E+00 0. -1.
          1   -1    0    0  501    0 -0.00000000000E+00 -0.00000000000E+00 -0.14000764952E+04  0.14000764952E+04  0.00000000000E+00 0. -1.
         25    2    1    2    0    0  0.32116912632E+02 -0.79672244354E+02 -0.22588389125E+03  0.27208318597E+03  0.12500626048E+03 0.  0.
          2    1    1    2  501    0 -0.28703722300E+02  0.30587951041E+02 -0.11330546051E+04  0.11338307919E+04  0.00000000000E+00 0. -1.
          1    1    1    2  502    0 -0.34131903323E+01  0.49084293313E+02  0.16639859811E+02  0.51940375940E+02  0.00000000000E+00 0. -1.
         22    1    3    3    0    0 -0.35271247346E+02 -0.75655688067E+02 -0.13771234556E+03  0.16103581634E+03  0.00000000000E+00 0. -1.
         22    1    3    3    0    0  0.67388159978E+02 -0.40165562867E+01 -0.88171545695E+02  0.11104736962E+03  0.00000000000E+00 0. -1.
</event>
<event>
 7    1  0.6507405E-006  0.1073344E+03  0.7818608E-02  0.1335944E+00
          2   -1    0    0  502    0  0.00000000000E+00  0.00000000000E+00  0.12249730894E+04  0.12249730894E+04  0.00000000000E+00 0. -1.
          1   -1    0    0  501    0 -0.00000000000E+00 -0.00000000000E+00 -0.78161570583E+03  0.78161570583E+03  0.00000000000E+00 0. -1.
         25    2    1    2    0    0  0.73188873347E+02  0.10685517687E+03  0.10081736199E+04  0.10241160719E+04  0.12500016340E+03 0.  0.
          2    1    1    2  501    0 -0.41899506290E+01 -0.55975329300E+02 -0.76377230232E+03  0.76583217676E+03  0.00000000000E+00 0. -1.
          1    1    1    2  502    0 -0.68998922718E+02 -0.50879847569E+02  0.19895606604E+03  0.21664054662E+03  0.00000000000E+00 0. -1.
         22    1    3    3    0    0  0.65161737725E+01 -0.13756485178E+02  0.14807553495E+02  0.21235937596E+02  0.00000000000E+00 0. -1.
         22    1    3    3    0    0  0.66672699575E+02  0.12061166205E+03  0.99336606636E+03  0.10028801343E+04  0.00000000000E+00 0. -1.
</event>
<event>
 7    1  0.6507405E-006  0.6734808E+02  0.7818608E-02  0.1511024E+00
          2   -1    0    0  502    0  0.00000000000E+00  0.00000000000E+00  0.96385532248E+02  0.96385532248E+02  0.00000000000E+00 0. -1.
          1   -1    0    0  501    0 -0.00000000000E+00 -0.00000000000E+00 -0.36576690361E+04  0.36576690361E+04  0.00000000000E+00 0. -1.
         25    2    1    2    0    0  0.58564069865E+02  0.56524544183E+02 -0.94728946243E+03  0.95896191932E+03  0.12500345074E+03 0.  0.
          2    1    1    2  501    0 -0.35256020132E+02 -0.56408239837E+02 -0.27026273320E+04  0.27034458330E+04  0.00000000000E+00 0. -1.
          1    1    1    2  502    0 -0.23308049732E+02 -0.11630434534E+00  0.88633290507E+02  0.91646816067E+02  0.00000000000E+00 0. -1.
         22    1    3    3    0    0  0.17688885067E+02 -0.38560824240E+02 -0.37465655764E+03  0.37705088517E+03  0.00000000000E+00 0. -1.
         22    1    3    3    0    0  0.40875184798E+02  0.95085368423E+02 -0.57263290479E+03  0.58191103415E+03  0.00000000000E+00 0. -1.
</event>
<event>
 7    1  0.6507405E-006  0.3302263E+02  0.7818608E-02  0.1595385E+00
          2   -1    0    0  502    0  0.00000000000E+00  0.00000000000E+00  0.60745825677E+03  0.60745825677E+03  0.00000000000E+00 0. -1.
          1   -1    0    0  501    0 -0.00000000000E+00 -0.00000000000E+00 -0.25982546593E+03  0.25982546593E+03  0.00000000000E+00 0. -1.
         25    2    1    2    0    0  0.21334915743E+02 -0.82602172763E+01  0.13708450802E+02  0.12782525163E+03  0.12501185348E+03 0.  0.
          2    1    1    2  501    0 -0.27682227835E+02 -0.18705661586E+02 -0.20102999908E+03  0.20378731081E+03  0.00000000000E+00 0. -1.
          1    1    1    2  502    0  0.63473120919E+01  0.26965878862E+02  0.53495433912E+03  0.53567116027E+03  0.00000000000E+00 0. -1.
         22    1    3    3    0    0  0.68259737393E+02  0.19915105452E+02  0.16591364282E+02  0.73015591094E+02  0.00000000000E+00 0. -1.
         22    1    3    3    0    0 -0.46924821650E+02 -0.28175322728E+02 -0.28829134796E+01  0.54809660534E+02  0.00000000000E+00 0. -1.
</event>
<event>
 7    1  0.6507405E-006  0.9510194E+02  0.7818608E-02  0.1385068E+00
          2   -1    0    0  502    0  0.00000000000E+00  0.00000000000E+00  0.43550723982E+04  0.43550723982E+04  0.00000000000E+00 0. -1.
          1   -1    0    0  501    0 -0.00000000000E+00 -0.00000000000E+00 -0.24663649133E+04  0.24663649133E+04  0.00000000000E+00 0. -1.
         25    2    1    2    0    0 -0.52779321761E+02 -0.31729459869E+02  0.16853161603E+02  0.14036441730E+03  0.12500290060E+03 0.  0.
          2    1    1    2  501    0 -0.40406978410E+02  0.11211504663E+02 -0.24038941496E+04  0.24042598662E+04  0.00000000000E+00 0. -1.
          1    1    1    2  502    0  0.93186300171E+02  0.20517955206E+02  0.42757484729E+04  0.42768130280E+04  0.00000000000E+00 0. -1.
         22    1    3    3    0    0 -0.85618917089E+02 -0.47950997635E+02 -0.40058870111E+01  0.98213768222E+02  0.00000000000E+00 0. -1.
         22    1    3    3    0    0  0.32839595328E+02  0.16221537765E+02  0.20859048614E+02  0.42150649080E+02  0.00000000000E+00 0. -1.
</event>
<event>
 7    1  0.6507405E-006  0.9177338E+02  0.7818608E-02  0.1428874E+00
          2   -1    0    0  502    0  0.00000000000E+00  0.00000000000E+00  0.94589153928E+03  0.94589153928E+03  0.00000000000E+00 0. -1.
          1   -1    0    0  501    0 -0.00000000000E+00 -0.00000000000E+00 -0.30712969390E+02  0.30712969390E+02  0.00000000000E+00 0. -1.
         25    2    1    2    0    0  0.88688152034E+01 -0.78176467174E+02  0.53585415244E+03  0.55583726951E+03  0.12500072635E+03 0.  0.
          2    1    1    2  501    0  0.25465932359E+02 -0.17367012563E+02  0.29784977004E+01  0.30967697441E+02  0.00000000000E+00 0. -1.
          1    1    1    2  502    0 -0.34334747562E+02  0.95543479737E+02  0.37634591975E+03  0.38979954171E+03  0.00000000000E+00 0. -1.
         22    1    3    3    0    0  0.20562243678E+02 -0.10054886721E+02  0.92028504451E+01  0.24669800736E+02  0.00000000000E+00 0.  1.
         22    1    3    3    0    0 -0.11693428474E+02 -0.68121580453E+02  0.52665130200E+03  0.53116746878E+03  0.00000000000E+00 0.  1.
</event>
<event>
 7    1  0.6507405E-006  0.1578690E+03  0.7818608E-02  0.1299029E+00
          2   -1    0    0  502    0  0.00000000000E+00  0.00000000000E+00  0.31018831248E+04  0.31018831248E+04  0.00000000000E+00 0. -1.
          1   -1    0    0  501    0 -0.00000000000E+00 -0.00000000000E+00 -0.26254786682E+03  0.26254786682E+03  0.00000000000E+00 0. -1.
         25    2    1    2    0    0 -0.11075651368E+02  0.11133089020E+03  0.34033760672E+03  0.37943574237E+03  0.12499823549E+03 0.  0.
          2    1    1    2  501    0  0.92760289615E+01  0.52330110718E+02 -0.23761838695E+03  0.24348918460E+03  0.00000000000E+00 0. -1.
          1    1    1    2  502    0  0.17996224063E+01 -0.16366100092E+03  0.27366160382E+04  0.27415060647E+04  0.00000000000E+00 0. -1.
         22    1    3    3    0    0  0.56262618235E+02  0.37775568065E+02  0.14824068286E+03  0.16299624476E+03  0.00000000000E+00 0. -1.
         22    1    3    3    0    0 -0.67338269603E+02  0.73555322135E+02  0.19209692386E+03  0.21643949761E+03  0.00000000000E+00 0. -1.
</event>
<event>
 7    1  0.6507405E-006  0.1271677E+03  0.7818608E-02  0.1239985E+00
          2   -1    0    0  502    0  0.00000000000E+00  0.00000000000E+00  0.12153295432E+04  0.12153295432E+04  0.00000000000E+00 0. -1.
          1   -1    0    0  501    0 -0.00000000000E+00 -0.00000000000E+00 -0.53657023506E+03  0.53657023506E+03  0.00000000000E+00 0. -1.
         25    2    1    2    0    0 -0.96964749727E+02  0.17739805958E+03  0.25577331063E+03  0.34915658291E+03  0.12497239187E+03 0.  0.
          2    1    1    2  501    0 -0.78445661831E+01 -0.12570800353E+03 -0.47794600510E+03  0.49426351591E+03  0.00000000000E+00 0. -1.
          1    1    1    2  502    0  0.10480931591E+03 -0.51690056053E+02  0.90093200260E+03  0.90847967941E+03  0.00000000000E+00 0. -1.
         22    1    3    3    0    0 -0.66430853559E+02  0.20008602456E+02  0.12202305597E+03  0.14036747723E+03  0.00000000000E+00 0.  1.
         22    1    3    3    0    0 -0.30533896169E+02  0.15738945712E+03  0.13375025466E+03  0.20878910568E+03  0.00000000000E+00 0.  1.
</event>
<event>
 7    1  0.6507405E-006  0.1467112E+03  0.7818608E-02  0.1293421E+00
          2   -1    0    0  502    0  0.00000000000E+00  0.00000000000E+00  0.90394060700E+03  0.90394060700E+03  0.00000000000E+00 0. -1.
          1   -1    0    0  501    0 -0.00000000000E+00 -0.00000000000E+00 -0.96903019882E+02  0.96903019882E+02  0.00000000000E+00 0. -1.
         25    2    1    2    0    0  0.93829868390E+02 -0.17659508105E+02  0.44855501586E+03  0.47534948562E+03  0.12505850151E+03 0.  0.
          2    1    1    2  501    0 -0.14960869795E+03  0.40409885730E+02 -0.69537465306E+01  0.15512600026E+03  0.00000000000E+00 0. -1.
          1    1    1    2  502    0  0.55778829555E+02 -0.22750377624E+02  0.36543631779E+03  0.37036814100E+03  0.00000000000E+00 0. -1.
         22    1    3    3    0    0 -0.20432767255E+02  0.10847583154E+02  0.18976190043E+02  0.29920959653E+02  0.00000000000E+00 0.  1.
         22    1    3    3    0    0  0.11426263565E+03 -0.28507091260E+02  0.42957882582E+03  0.44542852597E+03  0.00000000000E+00 0.  1.
</event>
<event>
 7    1  0.6507405E-006  0.5396475E+02  0.7818608E-02  0.1465701E+00
          2   -1    0    0  502    0  0.00000000000E+00  0.00000000000E+00  0.40513532139E+03  0.40513532139E+03  0.00000000000E+00 0. -1.
          1   -1    0    0  501    0 -0.00000000000E+00 -0.00000000000E+00 -0.34364732639E+03  0.34364732639E+03  0.00000000000E+00 0. -1.
         25    2    1    2    0    0  0.10324137259E+02 -0.22789497720E+02 -0.23604024980E+02  0.12965369289E+03  0.12500792402E+03 0.  0.
          2    1    1    2  501    0  0.14667681613E+02  0.53918908592E+02 -0.26294153939E+03  0.26881339759E+03  0.00000000000E+00 0. -1.
          1    1    1    2  502    0 -0.24991818872E+02 -0.31129410872E+02  0.34803355938E+03  0.35031555730E+03  0.00000000000E+00 0. -1.
         22    1    3    3    0    0 -0.38802045698E+02  0.96198293560E+01  0.30051923578E+02  0.50012578197E+02  0.00000000000E+00 0.  1.
         22    1    3    3    0    0  0.49126182957E+02 -0.32409327076E+02 -0.53655948558E+02  0.79641114690E+02  0.00000000000E+00 0.  1.
</event>
<event>
 7    1  0.6507405E-006  0.1204705E+03  0.7818608E-02  0.1270656E+00
          2   -1    0    0  502    0  0.00000000000E+00  0.00000000000E+00  0.24711479658E+03  0.24711479658E+03  0.00000000000E+00 0. -1.
          1   -1    0    0  501    0 -0.00000000000E+00 -0.00000000000E+00 -0.23817441038E+03  0.23817441038E+03  0.00000000000E+00 0. -1.
         25    2    1    2    0    0  0.42309795209E+02  0.26176616118E+02  0.44591223461E+02  0.14173416438E+03  0.12499944856E+03 0.  0.
          2    1    1    2  501    0 -0.47344950657E+02  0.11077721386E+03 -0.12994926959E+03  0.17720030511E+03  0.00000000000E+00 0. -1.
          1    1    1    2  502    0  0.50351554481E+01 -0.13695382998E+03  0.94298432329E+02  0.16635473746E+03  0.00000000000E+00 0. -1.
         22    1    3    3    0    0  0.46968616516E+02  0.67581203012E+02  0.22505353482E+01  0.82330643429E+02  0.00000000000E+00 0.  1.
         22    1    3    3    0    0 -0.46588213078E+01 -0.41404586894E+02  0.42340688113E+02  0.59403520954E+02  0.00000000000E+00 0.  1.
</event>
<event>
 7    1  0.6507405E-006  0.7445981E+02  0.7818608E-02  0.1394395E+00
          2   -1    0    0  502    0  0.00000000000E+00  0.00000000000E+00  0.11528789967E+04  0.11528789967E+04  0.00000000000E+00 0. -1.
          1   -1    0    0  501    0 -0.00000000000E+00 -0.00000000000E+00 -0.11352599718E+03  0.11352599718E+03  0.00000000000E+00 0. -1.
         25    2    1    2    0    0 -0.94618203686E+02  0.18671577223E+02  0.46705211215E+03  0.49301232486E+03  0.12498897845E+03 0.  0.
          2    1    1    2  501    0  0.70032175432E+02  0.24509160710E+02 -0.85792269361E+02  0.11342626696E+03  0.00000000000E+00 0. -1.
          1    1    1    2  502    0  0.24586028254E+02 -0.43180737933E+02  0.65809315678E+03  0.65996640211E+03  0.00000000000E+00 0. -1.
         22    1    3    3    0    0 -0.45748290807E+02 -0.33840216942E+02  0.35792072020E+03  0.36241593279E+03  0.00000000000E+00 0.  1.
         22    1    3    3    0    0 -0.48869912880E+02  0.52511794165E+02  0.10913139195E+03  0.13059639206E+03  0.00000000000E+00 0.  1.
</event>
<event>
 7    1  0.6507405E-006  0.4739458E+02  0.7818608E-02  0.1572794E+00
          2   -1    0    0  502    0  0.00000000000E+00  0.00000000000E+00  0.12447448129E+04  0.12447448129E+04  0.00000000000E+00 0. -1.
          1   -1    0    0  501    0 -0.00000000000E+00 -0.00000000000E+00 -0.24656549164E+04  0.24656549164E+04  0.00000000000E+00 0. -1.
         25    2    1    2    0    0  0.49457169269E+02  0.41984207746E+02  0.18245145341E+03  0.23048468007E+03  0.12500387835E+03 0.  0.
          2    1    1    2  501    0 -0.27550592921E+02 -0.38543136674E+02 -0.24412900369E+04  0.24417497114E+04  0.00000000000E+00 0. -1.
          1    1    1    2  502    0 -0.21906576348E+02 -0.34410710720E+01  0.10379284800E+04  0.10381653378E+04  0.00000000000E+00 0. -1.
         22    1    3    3    0    0 -0.36696282760E+02  0.40489305837E+02  0.72919807336E+02  0.91122441569E+02  0.00000000000E+00 0.  1.
         22    1    3    3    0    0  0.86153452029E+02  0.14949019090E+01  0.10953164608E+03  0.13936223850E+03  0.00000000000E+00 0.  1.
</event>
<event>
 7    1  0.6507405E-006  0.8167069E+02  0.7818608E-02  0.1330259E+00
          2   -1    0    0  502    0  0.00000000000E+00  0.00000000000E+00  0.57133181628E+02  0.57133181628E+02  0.00000000000E+00 0. -1.
          1   -1    0    0  501    0 -0.00000000000E+00 -0.00000000000E+00 -0.20185912266E+04  0.20185912266E+04  0.00000000000E+00 0. -1.
         25    2    1    2    0    0  0.11220105750E+02 -0.79310902794E+02 -0.11318650401E+03  0.18669129110E+03  0.12500537352E+03 0.  0.
          2    1    1    2  501    0  0.72245211389E+02  0.28147678067E+02 -0.17450436557E+04  0.17467653027E+04  0.00000000000E+00 0. -1.
          1    1    1    2  502    0 -0.83465317139E+02  0.51163224727E+02 -0.10322788522E+03  0.14226781441E+03  0.00000000000E+00 0. -1.
         22    1    3    3    0    0 -0.21235164779E+02 -0.12681632160E+02 -0.10974535018E+03  0.11249799066E+03  0.00000000000E+00 0. -1.
         22    1    3    3    0    0  0.32455270529E+02 -0.66629270634E+02 -0.34411538346E+01  0.74193300439E+02  0.00000000000E+00 0. -1.
</event>
<event>
 7    1  0.6507405E-006  0.5690774E+02  0.7818608E-02  0.1559210E+00
          2   -1    0    0  502    0  0.00000000000E+00  0.00000000000E+00  0.52267087438E+03  0.52267087438E+03  0.00000000000E+00 0. -1.
          1   -1    0    0  501    0 -0.00000000000E+00 -0.00000000000E+00 -0.15290519230E+03  0.15290519230E+03  0.00000000000E+00 0. -1.
         25    2    1    2    0    0  0.31944419079E+01 -0.42362019834E+02  0.37933873051E+03  0.40165681271E+03  0.12500231016E+03 0.  0.
          2    1    1    2  501    0 -0.19897672656E+02  0.53570093732E+02 -0.13515332661E+03  0.14673818185E+03  0.00000000000E+00 0. -1.
          1    1    1    2  502    0  0.16703230748E+02 -0.11208073898E+02  0.12558027818E+03  0.12718107212E+03  0.00000000000E+00 0. -1.
         22    1    3    3    0    0 -0.35743254255E+02  0.28079468881E+02  0.83559731774E+02  0.95122371561E+02  0.00000000000E+00 0. -1.
         22    1    3    3    0    0  0.38937696163E+02 -0.70441488715E+02  0.29577899874E+03  0.30653444115E+03  0.00000000000E+00 0. -1.
</event>
<event>
 7    1  0.6507405E-006  0.1519391E+03  0.7818608E-02  0.1361225E+00
          2   -1    0    0  502    0  0.00000000000E+00  0.00000000000E+00  0.17997432912E+04  0.17997432912E+04  0.00000000000E+00 0. -1.
          1   -1    0    0  501    0 -0.00000000000E+00 -0.00000000000E+00 -0.81795080714E+03  0.81795080714E+03  0.00000000000E+00 0. -1.
         25    2    1    2    0    0  0.73730387377E+02  0.10721037119E+03  0.73900035975E+02  0.19496971024E+03  0.12498695484E+03 0.  0.
          2    1    1    2  501    0 -0.66197380480E+02 -0.13825418134E+03 -0.74950506365E+03  0.76501905354E+03  0.00000000000E+00 0. -1.
          1    1    1    2  502    0 -0.75330068975E+01  0.31043810144E+02  0.16573975117E+04  0.16577053346E+04  0.00000000000E+00 0. -1.
         22    1    3    3    0    0  0.75149041968E+02  0.94377237377E+01  0.59108683275E+02  0.96074375234E+02  0.00000000000E+00 0. -1.
         22    1    3    3    0    0 -0.14186545913E+01  0.97772647454E+02  0.14791352700E+02  0.98895335005E+02  0.00000000000E+00 0. -1.
</event>
<event>
 7    1  0.6507405E-006  0.9782407E+02  0.7818608E-02  0.1307333E+00
          2   -1    0    0  502    0  0.00000000000E+00  0.00000000000E+00  0.16932490997E+04  0.16932490997E+04  0.00000000000E+00 0. -1.
          1   -1    0    0  501    0 -0.00000000000E+00 -0.00000000000E+00 -0.10513898430E+04  0.10513898430E+04  0.00000000000E+00 0. -1.
         25    2    1    2    0    0 -0.17694534976E+03 -0.56445445753E+01  0.70657945597E+03  0.73906765724E+03  0.12499982679E+03 0.  0.
          2    1    1    2  501    0  0.97550913067E+02  0.20160058736E+01 -0.10312117036E+04  0.10358174658E+04  0.00000000000E+00 0. -1.
          1    1    1    2  502    0  0.79394436688E+02  0.36285387017E+01  0.96649150428E+03  0.96975381964E+03  0.00000000000E+00 0. -1.
         22    1    3    3    0    0 -0.19660759427E+03 -0.83471057638E+01  0.64761648418E+03  0.67685399525E+03  0.00000000000E+00 0. -1.
         22    1    3    3    0    0  0.19662244517E+02  0.27025611885E+01  0.58962971792E+02  0.62213661996E+02  0.00000000000E+00 0. -1.
</event>
<event>
 7    1  0.6507405E-006  0.8934661E+02  0.7818608E-02  0.1425668E+00
          2   -1    0    0  502    0  0.00000000000E+00  0.00000000000E+00  0.61644256766E+03  0.61644256766E+03  0.00000000000E+00 0. -1.
          1   -1    0    0  501    0 -0.00000000000E+00 -0.00000000000E+00 -0.20981016479E+03  0.20981016479E+03  0.00000000000E+00 0. -1.
         25    2    1    2    0    0  0.16942693955E+02  0.56296533538E+02  0.16128350859E+03  0.21235134182E+03  0.12499747063E+03 0.  0.
          2    1    1    2  501    0 -0.28068116810E+02 -0.86772570777E+02 -0.17232479234E+03  0.19496956757E+03  0.00000000000E+00 0. -1.
          1    1    1    2  502    0  0.11125422855E+02  0.30476037239E+02  0.41767368662E+03  0.41893182306E+03  0.00000000000E+00 0. -1.
         22    1    3    3    0    0  0.25053758452E+02  0.86212578794E+01  0.16183328144E+03  0.16398788944E+03  0.00000000000E+00 0.  1.
         22    1    3    3    0    0 -0.81110644972E+01  0.47675275659E+02 -0.54977285440E+00  0.48363452385E+02  0.00000000000E+00 0.  1.
</event>
<event>
 7    1  0.6507405E-006  0.2564221E+02  0.7818608E-02  0.1694553E+00
          2   -1    0    0  502    0  0.00000000000E+00  0.00000000000E+00  0.81102118150E+03  0.81102118150E+03  0.00000000000E+00 0. -1.
          1   -1    0    0  501    0 -0.00000000000E+00 -0.00000000000E+00 -0.11393572210E+03  0.11393572210E+03  0.00000000000E+00 0. -1.
         25    2    1    2    0    0 -0.38512297656E+02  0.90449167272E+00  0.76314276918E+02  0.15142888229E+03  0.12499128912E+03 0.  0.
          2    1    1    2  501    0  0.15813687654E+02 -0.12723229686E+02 -0.74790547733E+02  0.77495672918E+02  0.00000000000E+00 0. -1.
          1    1    1    2  502    0  0.22698610002E+02  0.11818738013E+02  0.69556173022E+03  0.69603234839E+03  0.00000000000E+00 0. -1.
         22    1    3    3    0    0 -0.55913098190E+02 -0.45729555490E+02  0.17391146750E+02  0.74296155888E+02  0.00000000000E+00 0. -1.
         22    1    3    3    0    0  0.17400800534E+02  0.46634047162E+02  0.58923130168E+02  0.77132726406E+02  0.00000000000E+00 0. -1.
</event>
<event>
 7    1  0.6507405E-006  0.4689566E+02  0.7818608E-02  0.1580142E+00
          2   -1    0    0  502    0  0.00000000000E+00  0.00000000000E+00  0.74155018535E+03  0.74155018535E+03  0.00000000000E+00 0. -1.
          1   -1    0    0  501    0 -0.00000000000E+00 -0.00000000000E+00 -0.66523440577E+03  0.66523440577E+03  0.00000000000E+00 0. -1.
         25    2    1    2    0    0 -0.40703792246E+02  0.45526211576E+02 -0.13284968741E+03  0.19236067050E+03  0.12499661382E+03 0.  0.
          2    1    1    2  501    0  0.55036243694E+00 -0.21405385719E+02 -0.50162995487E+03  0.50208675053E+03  0.00000000000E+00 0. -1.
          1    1    1    2  502    0  0.40153429809E+02 -0.24120825856E+02  0.71079542185E+03  0.71233717009E+03  0.00000000000E+00 0. -1.
         22    1    3    3    0    0 -0.69910240266E+02  0.40857227872E+01 -0.12176204023E+03  0.14046397853E+03  0.00000000000E+00 0.  1.
         22    1    3    3    0    0  0.29206448019E+02  0.41440488788E+02 -0.11087647180E+02  0.51896691965E+02  0.00000000000E+00 0.  1.
</event>
<event>
 7    1  0.6507405E-006  0.3534698E+02  0.7818608E-02  0.1604601E+00
          2   -1    0    0  502    0  0.00000000000E+00  0.00000000000E+00  0.30372337919E+02  0.30372337919E+02  0.00000000000E+00 0. -1.
          1   -1    0    0  501    0 -0.00000000000E+00 -0.00000000000E+00 -0.10166220528E+04  0.10166220528E+04  0.00000000000E+00 0. -1.
         25    2    1    2    0    0  0.50009235523E+02 -0.17291616498E+02 -0.43658887794E+03  0.45720215688E+03  0.12499616104E+03 0.  0.
          2    1    1    2  501    0 -0.15189892344E+02  0.19203947330E+02 -0.55409846673E+03  0.55463919376E+03  0.00000000000E+00 0. -1.
          1    1    1    2  502    0 -0.34819343178E+02 -0.19123308323E+01  0.44376297907E+01  0.35153040078E+02  0.00000000000E+00 0. -1.
         22    1    3    3    0    0  0.22708156357E+02 -0.13785286615E+02 -0.42733944383E+03  0.42816433148E+03  0.00000000000E+00 0.  1.
         22    1    3    3    0    0  0.27301079165E+02 -0.35063298833E+01 -0.92494341053E+01  0.29037825403E+02  0.00000000000E+00 0.  1.
</event>
<event>
 7    1  0.6507405E-006  0.4503791E+02  0.7818608E-02  0.1535800E+00
          2   -1    0    0  502    0  0.00000000000E+00  0.00000000000E+00  0.20484849110E+04  0.20484849110E+04  0.00000000000E+00 0. -1.
          1   -1    0    0  501    0 -0.00000000000E+00 -0.00000000000E+00 -0.96614428541E+02  0.96614428541E+02  0.00000000000E+00 0. -1.
         25    2    1    2    0    0  0.42777391429E+02 -0.56037045988E+02  0.13338086923E+04  0.13415073387E+04  0.12500502575E+03 0.  0.
          2    1    1    2  501    0 -0.35663728707E+02  0.27350549426E+02 -0.86993544338E+02  0.97917469614E+02  0.00000000000E+00 0. -1.
          1    1    1    2  502    0 -0.71136627215E+01  0.28686496562E+02  0.70505533447E+03  0.70567453117E+03  0.00000000000E+00 0. -1.
         22    1    3    3    0    0 -0.31583640563E+02 -0.74658039733E+01  0.77542667739E+03  0.77610553186E+03  0.00000000000E+00 0. -1.
         22    1    3    3    0    0  0.74361031992E+02 -0.48571242014E+02  0.55838201490E+03  0.56540180685E+03  0.00000000000E+00 0. -1.
</event>
<event>
 7    1  0.6507405E-006  0.5004295E+02  0.7818608E-02  0.1452821E+00
          2   -1    0    0  502    0  0.00000000000E+00  0.00000000000E+00  0.12738863895E+03  0.12738863895E+03  0.00000000000E+00 0. -1.
          1   -1    0    0  501    0 -0.00000000000E+00 -0.00000000000E+00 -0.24775706485E+04  0.24775706485E+04  0.00000000000E+00 0. -1.
         25    2    1    2    0    0 -0.39412435236E+01  0.95619827513E+01 -0.44009678285E+02  0.13291424533E+03  0.12498951922E+03 0.  0.
          2    1    1    2  501    0 -0.35434185371E+02 -0.35725677117E+02 -0.23820843575E+04  0.23826157458E+04  0.00000000000E+00 0. -1.
          1    1    1    2  502    0  0.39375428895E+02  0.26163694365E+02  0.75912026311E+02  0.89429296330E+02  0.00000000000E+00 0. -1.
         22    1    3    3    0    0 -0.76370002716E+01  0.39841010979E+02  0.31575074951E+02  0.51406373993E+02  0.00000000000E+00 0. -1.
         22    1    3    3    0    0  0.36957567480E+01 -0.30279028228E+02 -0.75584753236E+02  0.81507871339E+02  0.00000000000E+00 0. -1.
</event>
<event>
 7    1  0.6507405E-006  0.1097563E+03  0.7818608E-02  0.1405413E+00
          2   -1    0    0  502    0  0.00000000000E+00  0.00000000000E+00  0.11571236595E+04  0.11571236595E+04  0.00000000000E+00 0. -1.
          1   -1    0    0  501    0 -0.00000000000E+00 -0.00000000000E+00 -0.53412658862E+03  0.53412658862E+03  0.00000000000E+00 0. -1.
         25    2    1    2    0    0 -0.67695700187E+02 -0.95828760316E+02  0.62239448918E+02  0.18238967219E+03  0.12500553745E+03 0.  0.
          2    1    1    2  501    0  0.37622966096E+02  0.10290245668E+03 -0.46748563303E+03  0.48015332995E+03  0.00000000000E+00 0. -1.
          1    1    1    2  502    0  0.30072734091E+02 -0.70736963632E+01  0.10282432550E+04  0.10287072460E+04  0.00000000000E+00 0. -1.
         22    1    3    3    0    0 -0.38394301032E+02  0.15778542562E+02 -0.14321323076E+02  0.43911103969E+02  0.00000000000E+00 0. -1.
         22    1    3    3    0    0 -0.29301399155E+02 -0.11160730288E+03  0.76560771993E+02  0.13847856822E+03  0.00000000000E+00 0. -1.
</event>
<event>
 7    1  0.6507405E-006  0.4219716E+02  0.7818608E-02  0.1497238E+00
          2   -1    0    0  502    0  0.00000000000E+00  0.00000000000E+00  0.50900512599E+03  0.50900512599E+03  0.00000000000E+00 0. -1.
          1   -1    0    0  501    0 -0.00000000000E+00 -0.00000000000E+00 -0.59041544872E+03  0.59041544872E+03  0.00000000000E+00 0. -1.
         25    2    1    2    0    0  0.29185376382E+02 -0.97376330016E+01  0.25685964984E+03  0.28731316965E+03  0.12500148019E+03 0.  0.
          2    1    1    2  501    0 -0.24212466291E+02 -0.34559473175E+02 -0.57230835894E+03  0.57386188097E+03  0.00000000000E+00 0. -1.
          1    1    1    2  502    0 -0.49729100917E+01  0.44297106177E+02  0.23403838638E+03  0.23824552409E+03  0.00000000000E+00 0. -1.
         22    1    3    3    0    0  0.55158166245E+02 -0.31931553439E+01  0.38558319320E+02  0.67374798949E+02  0.00000000000E+00 0. -1.
         22    1    3    3    0    0 -0.25972789863E+02 -0.65444776577E+01  0.21830133052E+03  0.21993837070E+03  0.00000000000E+00 0. -1.
</event>
<event>
 7    1  0.6507405E-006  0.1253520E+03  0.7818608E-02  0.1273148E+00
          2   -1    0    0  502    0  0.00000000000E+00  0.00000000000E+00  0.10871492254E+04  0.10871492254E+04  0.00000000000E+00 0. -1.
          1   -1    0    0  501    0 -0.00000000000E+00 -0.00000000000E+00 -0.17174360879E+03  0.17174360879E+03  0.00000000000E+00 0. -1.
         25    2    1    2    0    0  0.22485411771E+02 -0.10314433971E+03  0.24744237594E+03  0.29664651088E+03  0.12500829753E+03 0.  0.
          2    1    1    2  501    0 -0.83766637484E+02 -0.16726749165E+02 -0.12860107475E+03  0.15438545955E+03  0.00000000000E+00 0. -1.
          1    1    1    2  502    0  0.61281225713E+02  0.11987108888E+03  0.79656431539E+03  0.80786086372E+03  0.00000000000E+00 0. -1.
         22    1    3    3    0    0 -0.77432226961E+01  0.25025553849E+02  0.16990704712E+02  0.31223707175E+02  0.00000000000E+00 0. -1.
         22    1    3    3    0    0  0.30228634467E+02 -0.12816989356E+03  0.23045167123E+03  0.26542280371E+03  0.00000000000E+00 0. -1.
</event>
<event>
 7    1  0.6507405E-006  0.8612946E+02  0.7818608E-02  0.1381341E+00
          2   -1    0    0  502    0  0.00000000000E+00  0.00000000000E+00  0.74405231483E+03  0.74405231483E+03  0.00000000000E+00 0. -1.
          1   -1    0    0  501    0 -0.00000000000E+00 -0.00000000000E+00 -0.10176928277E+04  0.10176928277E+04  0.00000000000E+00 0. -1.
         25    2    1    2    0    0  0.93582904076E+02 -0.36947706243E+01 -0.40118132588E+02  0.16125920181E+03  0.12499461724E+03 0.  0.
          2    1    1    2  501    0 -0.20965811762E+02 -0.42871654161E+02 -0.91365693573E+03  0.91490247579E+03  0.00000000000E+00 0. -1.
          1    1    1    2  502    0 -0.72617092314E+02  0.46566424785E+02  0.68013455539E+03  0.68558346498E+03  0.00000000000E+00 0. -1.
         22    1    3    3    0    0  0.11670023018E+03  0.22033154110E+02 -0.43563932147E+02  0.12649988058E+03  0.00000000000E+00 0. -1.
         22    1    3    3    0    0 -0.23117326102E+02 -0.25727924734E+02  0.34457995588E+01  0.34759321222E+02  0.00000000000E+00 0. -1.
</event>
<event>
 7    1  0.6507405E-006  0.8453467E+02  0.7818608E-02  0.1359348E+00
          2   -1    0    0  502    0  0.00000000000E+00  0.00000000000E+00  0.36228896457E+04  0.36228896457E+04  0.00000000000E+00 0. -1.
          1   -1    0    0  501    0 -0.00000000000E+00 -0.00000000000E+00 -0.18604937068E+03  0.18604937068E+03  0.00000000000E+00 0. -1.
         25    2    1    2    0    0  0.10907278464E+03 -0.14967502403E+02  0.10462872241E+04  0.10594633524E+04  0.12499896528E+03 0.  0.
          2    1    1    2  501    0 -0.77315997386E+02 -0.33958521446E+02 -0.16917681962E+03  0.18908130772E+03  0.00000000000E+00 0. -1.
          1    1    1    2  502    0 -0.31756787257E+02  0.48926023850E+02  0.25597298705E+04  0.25603943562E+04  0.00000000000E+00 0. -1.
         22    1    3    3    0    0  0.72099458096E+02 -0.12922075530E+02  0.98596521683E+03  0.98868231535E+03  0.00000000000E+00 0. -1.
         22    1    3    3    0    0  0.36973326547E+02 -0.20454268733E+01  0.60322007291E+02  0.70781037084E+02  0.00000000000E+00 0. -1.
</event>
<event>
 7    1  0.6507405E-006  0.4311377E+02  0.7818608E-02  0.1557962E+00
          2   -1    0    0  502    0  0.00000000000E+00  0.00000000000E+00  0.93646913005E+03  0.93646913005E+03  0.00000000000E+00 0. -1.
          1   -1    0    0  501    0 -0.00000000000E+00 -0.00000000000E+00 -0.33267835354E+03  0.33267835354E+03  0.00000000000E+00 0. -1.
         25    2    1    2    0    0 -0.39060526578E+01 -0.24081575623E+02  0.53737444154E+02  0.13822591334E+03  0.12499404259E+03 0.  0.
          2    1    1    2  501    0  0.29471647758E+02  0.31994341893E+02 -0.28859069011E+03  0.29185065076E+03  0.00000000000E+00 0. -1.
          1    1    1    2  502    0 -0.25565595101E+02 -0.79127662698E+01  0.83864402246E+03  0.83907091949E+03  0.00000000000E+00 0. -1.
         22    1    3    3    0    0  0.13906633444E+02  0.23027257071E+02 -0.30134170038E+02  0.40394519750E+02  0.00000000000E+00 0. -1.
         22    1    3    3    0    0 -0.17812686101E+02 -0.47108832694E+02  0.83871614192E+02  0.97831393587E+02  0.00000000000E+00 0. -1.
</event>
<event>
 7    1  0.6507405E-006  0.7107618E+02  0.7818608E-02  0.1375384E+00
          2   -1    0    0  502    0  0.00000000000E+00  0.00000000000E+00  0.22265356575E+03  0.22265356575E+03  0.00000000000E+00 0. -1.
          1   -1    0    0  501    0 -0.00000000000E+00 -0.00000000000E+00 -0.14769401645E+04  0.14769401645E+04  0.00000000000E+00 0. -1.
         25    2    1    2    0    0 -0.98519670925E+02  0.51241768849E+02 -0.26619941553E+03  0.31435622018E+03  0.12500343957E+03 0.  0.
          2    1    1    2  501    0  0.38244210582E+02 -0.58551659715E+02 -0.11809623088E+04  0.11830312301E+04  0.00000000000E+00 0. -1.
          1    1    1    2  502    0  0.60275460344E+02  0.73098908657E+01  0.19287512556E+03  0.20220628003E+03  0.00000000000E+00 0. -1.
         22    1    3    3    0    0 -0.59643108273E+02  0.91818913355E+02 -0.19518454865E+03  0.22379683029E+03  0.00000000000E+00 0.  1.
         22    1    3    3    0    0 -0.38876562653E+02 -0.40577144506E+02 -0.71014866871E+02  0.90559389887E+02  0.00000000000E+00 0.  1.
</event>
<event>
 7    1  0.6507405E-006  0.7440286E+02  0.7818608E-02  0.1384725E+00
          2   -1    0    0  502    0  0.00000000000E+00  0.00000000000E+00  0.53872006547E+03  0.53872006547E+03  0.00000000000E+00 0. -1.
          1   -1    0    0  501    0 -0.00000000000E+00 -0.00000000000E+00 -0.46445557758E+02  0.46445557758E+02  0.00000000000E+00 0. -1.
         25    2    1    2    0    0 -0.23542822884E+02  0.43040199751E+02  0.28025860134E+03  0.31076809032E+03  0.12500079613E+03 0.  0.
          2    1    1    2  501    0 -0.51933342226E+02  0.13849481860E+02  0.14871577076E+02  0.55767768355E+02  0.00000000000E+00 0. -1.
          1    1    1    2  502    0  0.75476165111E+02 -0.56889681610E+02  0.19714432929E+03  0.21862976454E+03  0.00000000000E+00 0. -1.
         22    1    3    3    0    0 -0.19921588411E+02 -0.28707814509E+02  0.20010152288E+03  0.20312958366E+03  0.00000000000E+00 0.  1.
         22    1    3    3    0    0 -0.36212344728E+01  0.71748014260E+02  0.80157078458E+02  0.10763850666E+03  0.00000000000E+00 0.  1.
</event>
<event>
 7    1  0.6507405E-006  0.6933938E+02  0.7818608E-02  0.1517263E+00
          2   -1    0    0  502    0  0.00000000000E+00  0.00000000000E+00  0.10814947276E+04  0.10814947276E+04  0.00000000000E+00 0. -1.
          1   -1    0    0  501    0 -0.00000000000E+00 -0.00000000000E+00 -0.19890946874E+03  0.19890946874E+03  0.00000000000E+00 0. -1.
         25    2    1    2    0    0  0.53527832095E+02  0.84043020056E+01 -0.50924289264E+02  0.14544276332E+03  0.12499781224E+03 0.  0.
          2    1    1    2  501    0  0.15699627144E+02 -0.14990123977E+02 -0.98372456458E+02  0.10073888176E+03  0.00000000000E+00 0. -1.
          1    1    1    2  502    0 -0.69227459239E+02  0.65858219719E+01  0.10318820046E+04  0.10342225512E+04  0.00000000000E+00 0. -1.
         22    1    3    3    0    0  0.48333659864E+02  0.12689412085E+01  0.34605811209E+02  0.59458515429E+02  0.00000000000E+00 0.  1.
         22    1    3    3    0    0  0.51941722307E+01  0.71353607971E+01 -0.85530100472E+02  0.85984247893E+02  0.00000000000E+00 0.  1.
</event>
<event>
 7    1  0.6507405E-006  0.7968703E+02  0.7818608E-02  0.1492175E+00
          2   -1    0    0  502    0  0.00000000000E+00  0.00000000000E+00  0.11484780155E+03  0.11484780155E+03  0.00000000000E+00 0. -1.
          1   -1    0    0  501    0 -0.00000000000E+00 -0.00000000000E+00 -0.25998720987E+03  0.25998720987E+03  0.00000000000E+00 0. -1.
         25    2    1    2    0    0  0.44036942499E+02  0.62914446360E+02 -0.12347484268E+03  0.19175319263E+03  0.12500308093E+03 0.  0.
          2    1    1    2  501    0  0.18609108939E+02 -0.12498678657E+02 -0.80422819730E+02  0.83488597047E+02  0.00000000000E+00 0. -1.
          1    1    1    2  502    0 -0.62646051438E+02 -0.50415767703E+02  0.58758254094E+02  0.99593221747E+02  0.00000000000E+00 0. -1.
         22    1    3    3    0    0  0.49802389848E+02  0.96206311828E+02 -0.11261640213E+03  0.15626383619E+03  0.00000000000E+00 0. -1.
         22    1    3    3    0    0 -0.57654473489E+01 -0.33291865468E+02 -0.10858440550E+02  0.35489356442E+02  0.00000000000E+00 0. -1.
</event>
<event>
 7    1  0.6507405E-006  0.5229851E+02  0.7818608E-02  0.1472700E+00
          2   -1    0    0  502    0  0.00000000000E+00  0.00000000000E+00  0.91802083288E+02  0.91802083288E+02  0.00000000000E+00 0. -1.
          1   -1    0    0  501    0 -0.00000000000E+00 -0.00000000000E+00 -0.10261345704E+04  0.10261345704E+04  0.00000000000E+00 0. -1.
         25    2    1    2    0    0 -0.50073999496E+02 -0.46629433469E+01 -0.45167172710E+02  0.14210528751E+03  0.12499876312E+03 0.  0.
          2    1    1    2  501    0  0.68688698221E+01  0.38568806817E+02 -0.91450712559E+03  0.91534584556E+03  0.00000000000E+00 0. -1.
          1    1    1    2  502    0  0.43205129674E+02 -0.33905863470E+02  0.25341811197E+02  0.60485520602E+02  0.00000000000E+00 0. -1.
         22    1    3    3    0    0  0.35320910017E+02  0.20252047127E+02  0.32187492936E+01  0.40842042607E+02  0.00000000000E+00 0. -1.
         22    1    3    3    0    0 -0.85394909513E+02 -0.24914990474E+02 -0.48385922004E+02  0.10126324491E+03  0.00000000000E+00 0. -1.
</event>
<event>
 7    1  0.6507405E-006  0.1105790E+03  0.7818608E-02  0.1342512E+00
          2   -1    0    0  502    0  0.00000000000E+00  0.00000000000E+00  0.20609798002E+04  0.20609798002E+04  0.00000000000E+00 0. -1.
          1   -1    0    0  501    0 -0.00000000000E+00 -0.00000000000E+00 -0.99915037551E+02  0.99915037551E+02  0.00000000000E+00 0. -1.
         25    2    1    2    0    0 -0.15000990605E+03  0.10473261354E+02  0.22755345689E+03  0.30002966419E+03  0.12499825012E+03 0.  0.
          2    1    1    2  501    0  0.10372629290E+03  0.12038686538E+02 -0.20233929973E+02  0.10636487077E+03  0.00000000000E+00 0. -1.
          1    1    1    2  502    0  0.46283613145E+02 -0.22511947892E+02  0.17537452358E+04  0.17545003028E+04  0.00000000000E+00 0. -1.
         22    1    3    3    0    0 -0.62577561269E+02 -0.45872681347E+02  0.44386353685E+02  0.89389051130E+02  0.00000000000E+00 0.  1.
         22    1    3    3    0    0 -0.87432344776E+02  0.56345942701E+02  0.18316710321E+03  0.21064061306E+03  0.00000000000E+00 0.  1.
</event>
<event>
 7    1  0.6507405E-006  0.1305720E+03  0.7818608E-02  0.1257272E+00
          2   -1    0    0  502    0  0.00000000000E+00  0.00000000000E+00  0.68610160201E+03  0.68610160201E+03  0.00000000000E+00 0. -1.
          1   -1    0    0  501    0 -0.00000000000E+00 -0.00000000000E+00 -0.99753929596E+03  0.99753929596E+03  0.00000000000E+00 0. -1.
         25    2    1    2    0    0  0.49288099816E+02 -0.58371576147E+02  0.61089235295E+01  0.14663144534E+03  0.12500761629E+03 0.  0.
          2    1    1    2  501    0 -0.52089162284E+02 -0.80314678741E+02 -0.91686434661E+03  0.92184812119E+03  0.00000000000E+00 0. -1.
          1    1    1    2  502    0  0.28010624678E+01  0.13868625489E+03  0.59931772913E+03  0.61516133144E+03  0.00000000000E+00 0. -1.
         22    1    3    3    0    0  0.23728214189E+02  0.36619840939E+02  0.18671815794E+02  0.47462380935E+02  0.00000000000E+00 0. -1.
         22    1    3    3    0    0  0.25559885627E+02 -0.94991417085E+02 -0.12562892265E+02  0.99169064406E+02  0.00000000000E+00 0. -1.
</event>
<event>
 7    1  0.6507405E-006  0.7234257E+02  0.7818608E-02  0.1362019E+00
          2   -1    0    0  502    0  0.00000000000E+00  0.00000000000E+00  0.20107524967E+04  0.20107524967E+04  0.00000000000E+00 0. -1.
          1   -1    0    0  501    0 -0.00000000000E+00 -0.00000000000E+00 -0.86488617033E+02  0.86488617033E+02  0.00000000000E+00 0. -1.
         25    2    1    2    0    0  0.10698379299E+03 -0.40106931060E+02  0.24112245394E+03  0.29465126427E+03  0.12500092745E+03 0.  0.
          2    1    1    2  501    0 -0.68801290206E+02 -0.14519180039E+02 -0.38156489696E+02  0.80002136402E+02  0.00000000000E+00 0. -1.
          1    1    1    2  502    0 -0.38182502784E+02  0.54626111099E+02  0.17212979154E+04  0.17225877130E+04  0.00000000000E+00 0. -1.
         22    1    3    3    0    0  0.73847131517E+02 -0.78147385484E+02  0.10846787594E+03  0.15272751161E+03  0.00000000000E+00 0. -1.
         22    1    3    3    0    0  0.33136661472E+02  0.38040454424E+02  0.13265457800E+03  0.14192375267E+03  0.00000000000E+00 0. -1.
</event>
<event>
 7    1  0.6507405E-006  0.7836125E+02  0.7818608E-02  0.1403701E+00
          2   -1    0    0  502    0  0.00000000000E+00  0.00000000000E+00  0.14821269548E+04  0.14821269548E+04  0.00000000000E+00 0. -1.
          1   -1    0    0  501    0 -0.00000000000E+00 -0.00000000000E+00 -0.11322422610E+03  0.11322422610E+03  0.00000000000E+00 0. -1.
         25    2    1    2    0    0  0.44830620061E+02  0.79959502304E+01  0.44698270796E+02  0.14036122135E+03  0.12501846796E+03 0.  0.
          2    1    1    2  501    0 -0.86809652000E+02 -0.20692985176E+02 -0.34426023323E+02  0.95651797671E+02  0.00000000000E+00 0. -1.
          1    1    1    2  502    0  0.41979031939E+02  0.12697034945E+02  0.13586304812E+04  0.13593381619E+04  0.00000000000E+00 0. -1.
         22    1    3    3    0    0  0.65895840202E+02 -0.24253800263E+02 -0.12579632419E+02  0.71335515242E+02  0.00000000000E+00 0.  1.
         22    1    3    3    0    0 -0.21065220141E+02  0.32249750493E+02  0.57277903215E+02  0.69025706104E+02  0.00000000000E+00 0.  1.
</event>
<event>
 7    1  0.6507405E-006  0.5620548E+02  0.7818608E-02  0.1531863E+00
          2   -1    0    0  502    0  0.00000000000E+00  0.00000000000E+00  0.39995838094E+04  0.39995838094E+04  0.00000000000E+00 0. -1.
          1   -1    0    0  501    0 -0.00000000000E+00 -0.00000000000E+00 -0.26478007720E+02  0.26478007720E+02  0.00000000000E+00 0. -1.
         25    2    1    2    0    0  0.61568767720E+02  0.12376016483E+02  0.21125590192E+04  0.21171853669E+04  0.12499755788E+03 0.  0.
          2    1    1    2  501    0 -0.68979807020E+01 -0.23303498410E+02 -0.17534256593E+02  0.29968071846E+02  0.00000000000E+00 0. -1.
          1    1    1    2  502    0 -0.54670787018E+02  0.10927481927E+02  0.18780810391E+04  0.18789083783E+04  0.00000000000E+00 0. -1.
         22    1    3    3    0    0  0.76261105763E+02  0.27686028250E+02  0.20393500512E+04  0.20409632294E+04  0.00000000000E+00 0.  1.
         22    1    3    3    0    0 -0.14692338042E+02 -0.15310011767E+02  0.73208967969E+02  0.76222137523E+02  0.00000000000E+00 0.  1.
</event>
<event>
 7    1  0.6507405E-006  0.1109767E+03  0.7818608E-02  0.1274492E+00
          2   -1    0    0  502    0  0.00000000000E+00  0.00000000000E+00  0.25142559839E+04  0.25142559839E+04  0.00000000000E+00 0. -1.
          1   -1    0    0  501    0 -0.00000000000E+00 -0.00000000000E+00 -0.27607411120E+03  0.27607411120E+03  0.00000000000E+00 0. -1.
         25    2    1    2    0    0  0.21803386327E+02  0.47502728928E+02  0.19373250062E+03  0.23640873129E+03  0.12499963810E+03 0.  0.
          2    1    1    2  501    0 -0.78144907548E+02  0.54456555591E+02 -0.24429914403E+03  0.26221024922E+03  0.00000000000E+00 0. -1.
          1    1    1    2  502    0  0.56341521222E+02 -0.10195928452E+03  0.22887485161E+04  0.22917111146E+04  0.00000000000E+00 0. -1.
         22    1    3    3    0    0 -0.43183571484E+02 -0.12996419796E+02  0.48844817556E+02  0.66479650839E+02  0.00000000000E+00 0.  1.
         22    1    3    3    0    0  0.64986957811E+02  0.60499148724E+02  0.14488768306E+03  0.16992908046E+03  0.00000000000E+00 0.  1.
</event>
<event>
 7    1  0.6507405E-006  0.5339247E+02  0.7818608E-02  0.1525434E+00
          2   -1    0    0  502    0  0.00000000000E+00  0.00000000000E+00  0.19482661018E+04  0.19482661018E+04  0.00000000000E+00 0. -1.
          1   -1    0    0  501    0 -0.00000000000E+00 -0.00000000000E+00 -0.76006136810E+02  0.76006136810E+02  0.00000000000E+00 0. -1.
         25    2    1    2    0    0  0.51172277738E+02  0.33941795516E+02  0.83781146614E+03  0.84930875271E+03  0.12500662840E+03 0.  0.
          2    1    1    2  501    0  0.14267796719E+01 -0.26655595615E+02 -0.67059077454E+02  0.72176702244E+02  0.00000000000E+00 0. -1.
          1    1    1    2  502    0 -0.52599057409E+02 -0.72861999012E+01  0.11015075764E+04  0.11027867837E+04  0.00000000000E+00 0. -1.
         22    1    3    3    0    0 -0.95899726895E+01  0.38699338942E+02  0.83407977290E+02  0.92447266516E+02  0.00000000000E+00 0.  1.
         22    1    3    3    0    0  0.60762250427E+02 -0.47575434258E+01  0.75440348885E+03  0.75686148619E+03  0.00000000000E+00 0.  1.
</event>
<event>
 7    1  0.6507405E-006  0.8811837E+02  0.7818608E-02  0.1391426E+00
          2   -1    0    0  502    0  0.00000000000E+00  0.00000000000E+00  0.27368986934E+04  0.27368986934E+04  0.00000000000E+00 0. -1.
          1   -1    0    0  501    0 -0.00000000000E+00 -0.00000000000E+00 -0.41518659636E+03  0.41518659636E+03  0.00000000000E+00 0. -1.
         25    2    1    2    0    0  0.14387441568E+02  0.92733174992E+02  0.12277700088E+04  0.12376802996E+04  0.12500755738E+03 0.  0.
          2    1    1    2  501    0  0.37619380987E+02 -0.20821210646E+02 -0.40779118123E+03  0.41005168958E+03  0.00000000000E+00 0. -1.
          1    1    1    2  502    0 -0.52006822555E+02 -0.71911964346E+02  0.15017332695E+04  0.15043533005E+04  0.00000000000E+00 0. -1.
         22    1    3    3    0    0 -0.46156353505E+02  0.12061045837E+02  0.59633130386E+03  0.59823649317E+03  0.00000000000E+00 0. -1.
         22    1    3    3    0    0  0.60543795073E+02  0.80672129155E+02  0.63143870493E+03  0.63944380647E+03  0.00000000000E+00 0. -1.
</event>
<event>
 7    1  0.6507405E-006  0.1635942E+03  0.7818608E-02  0.1238194E+00
          2   -1    0    0  502    0  0.00000000000E+00  0.00000000000E+00  0.31386203488E+03  0.31386203488E+03  0.00000000000E+00 0. -1.
          1   -1    0    0  501    0 -0.00000000000E+00 -0.00000000000E+00 -0.86152116046E+03  0.86152116046E+03  0.00000000000E+00 0. -1.
         25    2    1    2    0    0 -0.50439792023E+02  0.20651928944E+03 -0.36180874412E+03  0.43786367355E+03  0.12499855902E+03 0.  0.
          2    1    1    2  501    0 -0.22282514377E+02 -0.14933705383E+03 -0.44099170046E+03  0.46612417441E+03  0.00000000000E+00 0. -1.
          1    1    1    2  502    0  0.72722306401E+02 -0.57182235617E+02  0.25514131900E+03  0.27139534738E+03  0.00000000000E+00 0. -1.
         22    1    3    3    0    0  0.22486433504E+02  0.19899548654E+01 -0.10575484495E+02  0.24928708037E+02  0.00000000000E+00 0.  1.
         22    1    3    3    0    0 -0.72926225527E+02  0.20452933458E+03 -0.35123325963E+03  0.41293496551E+03  0.00000000000E+00 0.  1.
</event>
<event>
 7    1  0.6507405E-006  0.7683836E+02  0.7818608E-02  0.1466013E+00
          2   -1    0    0  502    0  0.00000000000E+00  0.00000000000E+00  0.20309359670E+04  0.20309359670E+04  0.00000000000E+00 0. -1.
          1   -1    0    0  501    0 -0.00000000000E+00 -0.00000000000E+00 -0.25893688399E+04  0.25893688399E+04  0.00000000000E+00 0. -1.
         25    2    1    2    0    0  0.41830936957E+02  0.26604442401E+02 -0.13561364954E+03  0.19097856509E+03  0.12499650690E+03 0.  0.
          2    1    1    2  501    0 -0.63717615214E+02 -0.44025527283E+02 -0.24253569255E+04  0.24265931669E+04  0.00000000000E+00 0. -1.
          1    1    1    2  502    0  0.21886678256E+02  0.17421084882E+02  0.20025377021E+04  0.20027330749E+04  0.00000000000E+00 0. -1.
         22    1    3    3    0    0  0.17947134332E+01  0.34373098408E+01  0.24249662114E+02  0.24557732140E+02  0.00000000000E+00 0. -1.
         22    1    3    3    0    0  0.40036223524E+02  0.23167132560E+02 -0.15986331166E+03  0.16642083295E+03  0.00000000000E+00 0. -1.
</event>
<event>
 7    1  0.6507405E-006  0.1507990E+03  0.7818608E-02  0.1262960E+00
          2   -1    0    0  502    0  0.00000000000E+00  0.00000000000E+00  0.16263297200E+04  0.16263297200E+04  0.00000000000E+00 0. -1.
          1   -1    0    0  501    0 -0.00000000000E+00 -0.00000000000E+00 -0.18535875873E+04  0.18535875873E+04  0.00000000000E+00 0. -1.
         25    2    1    2    0    0 -0.18464245746E+03 -0.38140551777E+02  0.71320219640E+03  0.74821764893E+03  0.12499895376E+03 0.  0.
          2    1    1    2  501    0  0.14750618423E+03 -0.30885704267E+02 -0.18312636169E+04  0.18374543357E+04  0.00000000000E+00 0. -1.
          1    1    1    2  502    0  0.37136273226E+02  0.69026256044E+02  0.89080355319E+03  0.89424532271E+03  0.00000000000E+00 0. -1.
         22    1    3    3    0    0 -0.33995670543E+02 -0.23747219187E+02  0.38004273345E+03  0.38229846362E+03  0.00000000000E+00 0. -1.
         22    1    3    3    0    0 -0.15064678692E+03 -0.14393332591E+02  0.33315946295E+03  0.36591918532E+03  0.00000000000E+00 0. -1.
</event>
<event>
 7    1  0.6507405E-006  0.1143939E+03  0.7818608E-02  0.1425370E+00
          2   -1    0    0  502    0  0.00000000000E+00  0.00000000000E+00  0.23222037330E+04  0.23222037330E+04  0.00000000000E+00 0. -1.
          1   -1    0    0  501    0 -0.00000000000E+00 -0.00000000000E+00 -0.15706289675E+03  0.15706289675E+03  0.00000000000E+00 0. -1.
         25    2    1    2    0    0 -0.35592379854E+02  0.13423145435E+03  0.14290900530E+04  0.14412523469E+04  0.12500018777E+03 0.  0.
          2    1    1    2  501    0  0.24574623360E+02 -0.11134850976E+03 -0.12923906972E+03  0.17235179106E+03  0.00000000000E+00 0. -1.
          1    1    1    2  502    0  0.11017756495E+02 -0.22882944587E+02  0.86528985299E+03  0.86566249185E+03  0.00000000000E+00 0. -1.
         22    1    3    3    0    0 -0.18408948029E+02  0.13926091550E+03  0.82330313949E+03  0.83520090485E+03  0.00000000000E+00 0.  1.
         22    1    3    3    0    0 -0.17183431825E+02 -0.50294611538E+01  0.60578691349E+03  0.60605144202E+03  0.00000000000E+00 0.  1.
</event>
<event>
 7    1  0.6507405E-006  0.5854928E+02  0.7818608E-02  0.1481211E+00
          2   -1    0    0  502    0  0.00000000000E+00  0.00000000000E+00  0.26602643239E+04  0.26602643239E+04  0.00000000000E+00 0. -1.
          1   -1    0    0  501    0 -0.00000000000E+00 -0.00000000000E+00 -0.18794522181E+03  0.18794522181E+03  0.00000000000E+00 0. -1.
         25    2    1    2    0    0  0.61165865353E+02 -0.10564423842E+02  0.13521721348E+04  0.13593555046E+04  0.12500014239E+03 0.  0.
          2    1    1    2  501    0 -0.43985199983E+02  0.38672684298E+02 -0.17948777626E+03  0.18880184363E+03  0.00000000000E+00 0. -1.
          1    1    1    2  502    0 -0.17180665370E+02 -0.28108260457E+02  0.12996347435E+04  0.13000521975E+04  0.00000000000E+00 0. -1.
         22    1    3    3    0    0  0.17273347130E+02 -0.12895467470E+02  0.32786648572E+02  0.39238067319E+02  0.00000000000E+00 0.  1.
         22    1    3    3    0    0  0.43892518223E+02  0.23310436281E+01  0.13193854862E+04  0.13201174373E+04  0.00000000000E+00 0.  1.
</event>
<event>
 7    1  0.6507405E-006  0.2296641E+03  0.7818608E-02  0.1299138E+00
          2   -1    0    0  502    0  0.00000000000E+00  0.00000000000E+00  0.49091887380E+03  0.49091887380E+03  0.00000000000E+00 0. -1.
          1   -1    0    0  501    0 -0.00000000000E+00 -0.00000000000E+00 -0.36413879936E+04  0.36413879936E+04  0.00000000000E+00 0. -1.
         25    2    1    2    0    0 -0.15131423603E+03 -0.17313993558E+03  0.26903588067E+03  0.37533786971E+03  0.12499910415E+03 0.  0.
          2    1    1    2  501    0  0.17662259231E+03  0.14684562254E+03 -0.35825417140E+04  0.35898975346E+04  0.00000000000E+00 0. -1.
          1    1    1    2  502    0 -0.25308356284E+02  0.26294313037E+02  0.16303671352E+03  0.16707146301E+03  0.00000000000E+00 0. -1.
         22    1    3    3    0    0 -0.25438808905E+02 -0.12359401056E+03  0.12146919309E+03  0.17514958554E+03  0.00000000000E+00 0.  1.
         22    1    3    3    0    0 -0.12587542712E+03 -0.49545925023E+02  0.14756668757E+03  0.20018828417E+03  0.00000000000E+00 0.  1.
</event>
<event>
 7    1  0.6507405E-006  0.3440326E+02  0.7818608E-02  0.1568052E+00
          2   -1    0    0  502    0  0.00000000000E+00  0.00000000000E+00  0.11331642097E+02  0.11331642097E+02  0.00000000000E+00 0. -1.
          1   -1    0    0  501    0 -0.00000000000E+00 -0.00000000000E+00 -0.13251045675E+04  0.13251045675E+04  0.00000000000E+00 0. -1.
         25    2    1    2    0    0 -0.37353776347E+02 -0.10459249243E+02 -0.54825112195E+03  0.56365745244E+03  0.12500292183E+03 0.  0.
          2    1    1    2  501    0  0.28747132023E+02 -0.19809034351E+02 -0.69105171665E+03  0.69193299569E+03  0.00000000000E+00 0. -1.
          1    1    1    2  502    0  0.86066443240E+01  0.30268283594E+02 -0.74470086753E+02  0.80845761417E+02  0.00000000000E+00 0. -1.
         22    1    3    3    0    0  0.39736030090E+02 -0.23191631317E+02 -0.12376127034E+03  0.13203657026E+03  0.00000000000E+00 0. -1.
         22    1    3    3    0    0 -0.77089806437E+02  0.12732382074E+02 -0.42448985162E+03  0.43162088218E+03  0.00000000000E+00 0. -1.
</event>
<event>
 7    1  0.6507405E-006  0.1094841E+03  0.7818608E-02  0.1301945E+00
          2   -1    0    0  502    0  0.00000000000E+00  0.00000000000E+00  0.60533247619E+02  0.60533247619E+02  0.00000000000E+00 0. -1.
          1   -1    0    0  501    0 -0.00000000000E+00 -0.00000000000E+00 -0.18195627997E+04  0.18195627997E+04  0.00000000000E+00 0. -1.
         25    2    1    2    0    0  0.20680230224E+02 -0.70384406109E+02 -0.43982968576E+03  0.46309768811E+03  0.12501071838E+03 0.  0.
          2    1    1    2  501    0  0.39811218093E+02  0.11404541823E+03 -0.13352386702E+04  0.13406914622E+04  0.00000000000E+00 0. -1.
          1    1    1    2  502    0 -0.60491448317E+02 -0.43661012118E+02  0.16038803869E+02  0.76306896989E+02  0.00000000000E+00 0. -1.
         22    1    3    3    0    0  0.18216043661E+02 -0.25503204133E+02 -0.13036194016E+02  0.33943777369E+02  0.00000000000E+00 0.  1.
         22    1    3    3    0    0  0.24641865631E+01 -0.44881201976E+02 -0.42679349175E+03  0.42915391074E+03  0.00000000000E+00 0.  1.
</event>
<event>
 7    1  0.6507405E-006  0.3470378E+02  0.7818608E-02  0.1619870E+00
          2   -1    0    0  502    0  0.00000000000E+00  0.00000000000E+00  0.66914847776E+03  0.66914847776E+03  0.00000000000E+00 0. -1.
          1   -1    0    0  501    0 -0.00000000000E+00 -0.00000000000E+00 -0.10926855574E+04  0.10926855574E+04  0.00000000000E+00 0. -1.
         25    2    1    2    0    0 -0.30559372610E+02 -0.22502117608E+02 -0.27667259741E+03  0.30596248130E+03  0.12500037302E+03 0.  0.
          2    1    1    2  501    0  0.20159391096E+02 -0.10613415986E+02 -0.80074569068E+03  0.80106972654E+03  0.00000000000E+00 0. -1.
          1    1    1    2  502    0  0.10399981515E+02  0.33115533594E+02  0.65388120849E+03  0.65480182727E+03  0.00000000000E+00 0. -1.
         22    1    3    3    0    0  0.34981264024E+02 -0.81384346026E-01 -0.19831559552E+03  0.20137718560E+03  0.00000000000E+00 0. -1.
         22    1    3    3    0    0 -0.65540636634E+02 -0.22420733262E+02 -0.78357001891E+02  0.10458529570E+03  0.00000000000E+00 0. -1.
</event>
<event>
 7    1  0.6507405E-006  0.1397043E+03  0.7818608E-02  0.1309514E+00
          2   -1    0    0  502    0  0.00000000000E+00  0.00000000000E+00  0.50981065630E+03  0.50981065630E+03  0.00000000000E+00 0. -1.
          1   -1    0    0  501    0 -0.00000000000E+00 -0.00000000000E+00 -0.35734672908E+03  0.35734672908E+03  0.00000000000E+00 0. -1.
         25    2    1    2    0    0 -0.81624079569E+02 -0.53177745317E+02  0.58127611678E+02  0.16879737149E+03  0.12499348150E+03 0.  0.
          2    1    1    2  501    0  0.10482980763E+03  0.10255535529E+03 -0.28212569501E+03  0.31796508810E+03  0.00000000000E+00 0. -1.
          1    1    1    2  502    0 -0.23205728056E+02 -0.49377609972E+02  0.37646201056E+03  0.38039492580E+03  0.00000000000E+00 0. -1.
         22    1    3    3    0    0 -0.10528719666E+03 -0.65038930613E+02  0.24763842519E+02  0.12620897025E+03  0.00000000000E+00 0. -1.
         22    1    3    3    0    0  0.23663117091E+02  0.11861185296E+02  0.33363769159E+02  0.42588401233E+02  0.00000000000E+00 0. -1.
</event>
<event>
 7    1  0.6507405E-006  0.1823857E+03  0.7818608E-02  0.1349287E+00
          2   -1    0    0  502    0  0.00000000000E+00  0.00000000000E+00  0.88180325419E+03  0.88180325419E+03  0.00000000000E+00 0. -1.
          1   -1    0    0  501    0 -0.00000000000E+00 -0.00000000000E+00 -0.16158142661E+04  0.16158142661E+04  0.00000000000E+00 0. -1.
         25    2    1    2    0    0 -0.13637875503E+03  0.12332001427E+03 -0.20332422827E+03  0.30128324107E+03  0.12499543513E+03 0.  0.
          2    1    1    2  501    0  0.22400418118E+02  0.19105476786E+02 -0.13533595772E+04  0.13536797787E+04  0.00000000000E+00 0. -1.
          1    1    1    2  502    0  0.11397833691E+03 -0.14242549105E+03  0.82267279364E+03  0.84265450048E+03  0.00000000000E+00 0. -1.
         22    1    3    3    0    0 -0.13499132827E+03  0.12013921815E+03 -0.21974116158E+03  0.28450354750E+03  0.00000000000E+00 0.  1.
         22    1    3    3    0    0 -0.13874267615E+01  0.31807961125E+01  0.16416933309E+02  0.16779693567E+02  0.00000000000E+00 0.  1.
</event>
<event>
 7    1  0.6507405E-006  0.6088407E+02  0.7818608E-02  0.1479768E+00
          2   -1    0    0  502    0  0.00000000000E+00  0.00000000000E+00  0.87250465920E+03  0.87250465920E+03  0.00000000000E+00 0. -1.
          1   -1    0    0  501    0 -0.00000000000E+00 -0.00000000000E+00 -0.30314380168E+03  0.30314380168E+03  0.00000000000E+00 0. -1.
         25    2    1    2    0    0  0.14929585461E+01  0.92384394018E+02 -0.66767630514E+01  0.15558642860E+03  0.12500180965E+03 0.  0.
          2    1    1    2  501    0 -0.19185159888E+01 -0.31946595597E+02 -0.21970684414E+03  0.22202559095E+03  0.00000000000E+00 0. -1.
          1    1    1    2  502    0  0.42555744271E+00 -0.60437798421E+02  0.79574446471E+03  0.79803644133E+03  0.00000000000E+00 0. -1.
         22    1    3    3    0    0 -0.46023922616E+02  0.15628867768E+01  0.19163548559E+02  0.49878709500E+02  0.00000000000E+00 0. -1.
         22    1    3    3    0    0  0.47516881162E+02  0.90821507241E+02 -0.25840311610E+02  0.10570771910E+03  0.00000000000E+00 0. -1.
</event>
<event>
 7    1  0.6507405E-006  0.2072034E+03  0.7818608E-02  0.1251022E+00
          2   -1    0    0  502    0  0.00000000000E+00  0.00000000000E+00  0.22157144430E+04  0.22157144430E+04  0.00000000000E+00 0. -1.
          1   -1    0    0  501    0 -0.00000000000E+00 -0.00000000000E+00 -0.91954521599E+03  0.91954521599E+03  0.00000000000E+00 0. -1.
         25    2    1    2    0    0 -0.22805143698E+03 -0.46569943902E+02 -0.25752129744E+03  0.36894423317E+03  0.12500564375E+03 0.  0.
          2    1    1    2  501    0  0.43557656146E+02 -0.47139613078E+02 -0.59964001051E+03  0.60306513308E+03  0.00000000000E+00 0. -1.
          1    1    1    2  502    0  0.18449378083E+03  0.93709556980E+02  0.21533305349E+04  0.21632502927E+04  0.00000000000E+00 0. -1.
         22    1    3    3    0    0 -0.22322035357E+03 -0.13194513090E+02 -0.24795398220E+03  0.33389009975E+03  0.00000000000E+00 0.  1.
         22    1    3    3    0    0 -0.48310834142E+01 -0.33375430812E+02 -0.95673152362E+01  0.35054133418E+02  0.00000000000E+00 0.  1.
</event>
<event>
 7    1  0.6507405E-006  0.6633598E+02  0.7818608E-02  0.1409938E+00
          2   -1    0    0  502    0  0.00000000000E+00  0.00000000000E+00  0.48576174087E+03  0.48576174087E+03  0.00000000000E+00 0. -1.
          1   -1    0    0  501    0 -0.00000000000E+00 -0.00000000000E+00 -0.20344414222E+03  0.20344414222E+03  0.00000000000E+00 0. -1.
         25    2    1    2    0    0  0.20600323021E+02  0.37337695298E+02  0.24823145525E+03  0.28118114643E+03  0.12500201972E+03 0.  0.
          2    1    1    2  501    0 -0.26489342939E+02  0.41621011134E+02 -0.17638412333E+03  0.18315390473E+03  0.00000000000E+00 0. -1.
          1    1    1    2  502    0  0.58890199178E+01 -0.78958706432E+02  0.21047026672E+03  0.22487083193E+03  0.00000000000E+00 0. -1.
         22    1    3    3    0    0 -0.11996468873E+02 -0.69039416308E+01  0.21804273104E+03  0.21848160617E+03  0.00000000000E+00 0. -1.
         22    1    3    3    0    0  0.32596791895E+02  0.44241636929E+02  0.30188724216E+02  0.62699540267E+02  0.00000000000E+00 0. -1.
</event>
<event>
 7    1  0.6507405E-006  0.6680813E+02  0.7818608E-02  0.1440072E+00
          2   -1    0    0  502    0  0.00000000000E+00  0.00000000000E+00  0.90917605491E+03  0.90917605491E+03  0.00000000000E+00 0. -1.
          1   -1    0    0  501    0 -0.00000000000E+00 -0.00000000000E+00 -0.53396165157E+03  0.53396165157E+03  0.00000000000E+00 0. -1.
         25    2    1    2    0    0  0.10942698965E+02 -0.95561572131E+02 -0.25199321568E+03  0.29728339375E+03  0.12500031489E+03 0.  0.
          2    1    1    2  501    0 -0.22107410187E+02  0.58279684065E+02 -0.25514264070E+03  0.26264619979E+03  0.00000000000E+00 0. -1.
          1    1    1    2  502    0  0.11164711222E+02  0.37281888066E+02  0.88235025972E+03  0.88320811295E+03  0.00000000000E+00 0. -1.
         22    1    3    3    0    0  0.12381925887E+02  0.16426290804E+02 -0.13023449199E+03  0.13184899704E+03  0.00000000000E+00 0. -1.
         22    1    3    3    0    0 -0.14392269215E+01 -0.11198786293E+03 -0.12175872369E+03  0.16543439671E+03  0.00000000000E+00 0. -1.
</event>
<event>
 7    1  0.6507405E-006  0.1453344E+03  0.7818608E-02  0.1385082E+00
          2   -1    0    0  502    0  0.00000000000E+00  0.00000000000E+00  0.13859474579E+04  0.13859474579E+04  0.00000000000E+00 0. -1.
          1   -1    0    0  501    0 -0.00000000000E+00 -0.00000000000E+00 -0.53312372002E+03  0.53312372002E+03  0.00000000000E+00 0. -1.
         25    2    1    2    0    0  0.29131948008E+02  0.16893032425E+03  0.15683112819E+03  0.26382904185E+03  0.12499454273E+03 0.  0.
          2    1    1    2  501    0 -0.25001135589E+02 -0.14180639160E+03 -0.46865209157E+03  0.49027430324E+03  0.00000000000E+00 0. -1.
          1    1    1    2  502    0 -0.41308124194E+01 -0.27123932645E+02  0.11646447012E+04  0.11649678328E+04  0.00000000000E+00 0. -1.
         22    1    3    3    0    0  0.69687128436E+01  0.14366500174E+03  0.50707120647E+02  0.15251035298E+03  0.00000000000E+00 0.  1.
         22    1    3    3    0    0  0.22163235165E+02  0.25265322507E+02  0.10612400754E+03  0.11131868887E+03  0.00000000000E+00 0.  1.
</event>
<event>
 7    1  0.6507405E-006  0.3611430E+02  0.7818608E-02  0.1624493E+00
          2   -1    0    0  502    0  0.00000000000E+00  0.00000000000E+00  0.19560671525E+04  0.19560671525E+04  0.00000000000E+00 0. -1.
          1   -1    0    0  501    0 -0.00000000000E+00 -0.00000000000E+00 -0.70515474060E+02  0.70515474060E+02  0.00000000000E+00 0. -1.
         25    2    1    2    0    0  0.53963603155E+02 -0.12358413648E+02  0.40206670759E+03  0.42467218468E+03  0.12499610489E+03 0.  0.
          2    1    1    2  501    0 -0.21210898296E+02 -0.20410332595E+01 -0.57081181184E+02  0.60928886980E+02  0.00000000000E+00 0. -1.
          1    1    1    2  502    0 -0.32752704859E+02  0.14399446908E+02  0.15405661520E+04  0.15409815548E+04  0.00000000000E+00 0. -1.
         22    1    3    3    0    0  0.81003485160E+02  0.23409118738E+02  0.18925747089E+03  0.20719059278E+03  0.00000000000E+00 0. -1.
         22    1    3    3    0    0 -0.27039882005E+02 -0.35767532386E+02  0.21280923670E+03  0.21748159190E+03  0.00000000000E+00 0. -1.
</event>
<event>
 7    1  0.6507405E-006  0.3693881E+03  0.7818608E-02  0.1147885E+00
          2   -1    0    0  502    0  0.00000000000E+00  0.00000000000E+00  0.62508514923E+03  0.62508514923E+03  0.00000000000E+00 0. -1.
          1   -1    0    0  501    0 -0.00000000000E+00 -0.00000000000E+00 -0.12915988072E+04  0.12915988072E+04  0.00000000000E+00 0. -1.
         25    2    1    2    0    0 -0.30026083651E+03 -0.51616274100E+02  0.12701064247E+03  0.35295523555E+03  0.12499954123E+03 0.  0.
          2    1    1    2  501    0  0.37768981105E+03 -0.27495359307E+02 -0.11393412061E+04  0.12006264915E+04  0.00000000000E+00 0. -1.
          1    1    1    2  502    0 -0.77428974541E+02  0.79111633407E+02  0.34581690574E+03  0.36310222932E+03  0.00000000000E+00 0. -1.
         22    1    3    3    0    0 -0.17362117679E+03  0.28922260253E+02  0.43926307245E+02  0.18141204656E+03  0.00000000000E+00 0.  1.
         22    1    3    3    0    0 -0.12663965972E+03 -0.80538534353E+02  0.83084335224E+02  0.17154318899E+03  0.00000000000E+00 0.  1.
</event>
<event>
 7    1  0.6507405E-006  0.6906669E+02  0.7818608E-02  0.1417821E+00
          2   -1    0    0  502    0  0.00000000000E+00  0.00000000000E+00  0.26453502777E+02  0.26453502777E+02  0.00000000000E+00 0. -1.
          1   -1    0    0  501    0 -0.00000000000E+00 -0.00000000000E+00 -0.14232667769E+04  0.14232667769E+04  0.00000000000E+00 0. -1.
         25    2    1    2    0    0  0.59306902938E+02  0.76726060978E+02 -0.67010682544E+03  0.68852926296E+03  0.12500076514E+03 0.  0.
          2    1    1    2  501    0 -0.54207617445E+00 -0.44570137033E+02 -0.67525538739E+03  0.67672492873E+03  0.00000000000E+00 0. -1.
          1    1    1    2  502    0 -0.58764826764E+02 -0.32155923944E+02 -0.51451061259E+02  0.84466087952E+02  0.00000000000E+00 0. -1.
         22    1    3    3    0    0  0.83059220135E+02  0.34785666400E+02 -0.25108398909E+03  0.26674340894E+03  0.00000000000E+00 0. -1.
         22    1    3    3    0    0 -0.23752317197E+02  0.41940394578E+02 -0.41902283635E+03  0.42178585402E+03  0.00000000000E+00 0. -1.
</event>
<event>
 7    1  0.6507405E-006  0.5008713E+02  0.7818608E-02  0.1481768E+00
          2   -1    0    0  502    0  0.00000000000E+00  0.00000000000E+00  0.24983373786E+04  0.24983373786E+04  0.00000000000E+00 0. -1.
          1   -1    0    0  501    0 -0.00000000000E+00 -0.00000000000E+00 -0.32013533151E+02  0.32013533151E+02  0.00000000000E+00 0. -1.
         25    2    1    2    0    0  0.28464929710E+02  0.58695834116E+01  0.69359903968E+03  0.70537169203E+03  0.12499956734E+03 0.  0.
          2    1    1    2  501    0 -0.41263007388E+02  0.30290400706E+02 -0.64817420996E+00  0.51191447366E+02  0.00000000000E+00 0. -1.
          1    1    1    2  502    0  0.12798077678E+02 -0.36159984118E+02  0.17733729800E+04  0.17737877724E+04  0.00000000000E+00 0. -1.
         22    1    3    3    0    0  0.15660559732E+02  0.35107772156E+02  0.61893350223E+02  0.72860109791E+02  0.00000000000E+00 0. -1.
         22    1    3    3    0    0  0.12804369979E+02 -0.29238188745E+02  0.63170568946E+03  0.63251158224E+03  0.00000000000E+00 0. -1.
</event>
<event>
 7    1  0.6507405E-006  0.3937243E+02  0.7818608E-02  0.1548011E+00
          2   -1    0    0  502    0  0.00000000000E+00  0.00000000000E+00  0.28845931547E+03  0.28845931547E+03  0.00000000000E+00 0. -1.
          1   -1    0    0  501    0 -0.00000000000E+00 -0.00000000000E+00 -0.23300995044E+04  0.23300995044E+04  0.00000000000E+00 0. -1.
         25    2    1    2    0    0  0.85845226810E+01  0.16669649378E+02 -0.66072884568E+03  0.67271014213E+03  0.12499902628E+03 0.  0.
          2    1    1    2  501    0  0.30016073155E+02 -0.86280590628E+01 -0.16618566041E+04  0.16621500476E+04  0.00000000000E+00 0. -1.
          1    1    1    2  502    0 -0.38600595836E+02 -0.80415903148E+01  0.28094526084E+03  0.28369863018E+03  0.00000000000E+00 0. -1.
         22    1    3    3    0    0  0.25850885177E+02  0.48663456824E+02 -0.13622441805E+03  0.14694724349E+03  0.00000000000E+00 0.  1.
         22    1    3    3    0    0 -0.17266362496E+02 -0.31993807446E+02 -0.52450442763E+03  0.52576289865E+03  0.00000000000E+00 0.  1.
</event>
<event>
 7    1  0.6507405E-006  0.1485705E+03  0.7818608E-02  0.1300863E+00
          2   -1    0    0  502    0  0.00000000000E+00  0.00000000000E+00  0.15337295561E+03  0.15337295561E+03  0.00000000000E+00 0. -1.
          1   -1    0    0  501    0 -0.00000000000E+00 -0.00000000000E+00 -0.42260585470E+03  0.42260585470E+03  0.00000000000E+00 0. -1.
         25    2    1    2    0    0 -0.11082787822E+03 -0.13313474497E+02 -0.67143612023E+02  0.18053692290E+03  0.12500099480E+03 0.  0.
          2    1    1    2  501    0  0.16409727558E+03 -0.23526542290E+01 -0.26489361311E+03  0.31161206186E+03  0.00000000000E+00 0. -1.
          1    1    1    2  502    0 -0.53269397352E+02  0.15666128726E+02  0.62804326035E+02  0.83829825552E+02  0.00000000000E+00 0. -1.
         22    1    3    3    0    0 -0.89351167927E+02 -0.25809102773E+02 -0.10180387455E+03  0.13789042704E+03  0.00000000000E+00 0. -1.
         22    1    3    3    0    0 -0.21476710297E+02  0.12495628277E+02  0.34660262525E+02  0.42646495864E+02  0.00000000000E+00 0. -1.
</event>
<event>
 7    1  0.6507405E-006  0.1658647E+03  0.7818608E-02  0.1219550E+00
          2   -1    0    0  502    0  0.00000000000E+00  0.00000000000E+00  0.22533258438E+03  0.22533258438E+03  0.00000000000E+00 0. -1.
          1   -1    0    0  501    0 -0.00000000000E+00 -0.00000000000E+00 -0.28065631397E+04  0.28065631397E+04  0.00000000000E+00 0. -1.
         25    2    1    2    0    0  0.24226538857E+02  0.24122879210E+03 -0.18100610983E+04  0.18304988604E+04  0.12500657167E+03 0.  0.
          2    1    1    2  501    0 -0.58406522821E+01 -0.13211295027E+03 -0.96725005139E+03  0.97624823010E+03  0.00000000000E+00 0. -1.
          1    1    1    2  502    0 -0.18385886574E+02 -0.10911584183E+03  0.19608059433E+03  0.22514863365E+03  0.00000000000E+00 0. -1.
         22    1    3    3    0    0 -0.38185273868E+02  0.16784043606E+03 -0.13081125071E+04  0.13193888200E+04  0.00000000000E+00 0.  1.
         22    1    3    3    0    0  0.62411812725E+02  0.73388356043E+02 -0.50194859122E+03  0.51111004040E+03  0.00000000000E+00 0.  1.
</event>
<event>
 7    1  0.6507405E-006  0.7188341E+02  0.7818608E-02  0.1455530E+00
          2   -1    0    0  502    0  0.00000000000E+00  0.00000000000E+00  0.26963197703E+03  0.26963197703E+03  0.00000000000E+00 0. -1.
          1   -1    0    0  501    0 -0.00000000000E+00 -0.00000000000E+00 -0.54498343484E+03  0.54498343484E+03  0.00000000000E+00 0. -1.
         25    2    1    2    0    0  0.28316941177E+02 -0.29459396385E+02 -0.28173732032E+03  0.31091930570E+03  0.12500076721E+03 0.  0.
          2    1    1    2  501    0  0.15104228234E+02 -0.28511347103E+02 -0.24242230140E+03  0.24456002707E+03  0.00000000000E+00 0. -1.
          1    1    1    2  502    0 -0.43421169411E+02  0.57970743488E+02  0.24880816392E+03  0.25913607909E+03  0.00000000000E+00 0. -1.
         22    1    3    3    0    0 -0.33170488856E+02 -0.55229738923E+02 -0.15081741377E+03  0.16400151734E+03  0.00000000000E+00 0.  1.
         22    1    3    3    0    0  0.61487430033E+02  0.25770342537E+02 -0.13091990655E+03  0.14691778836E+03  0.00000000000E+00 0.  1.
</event>
<event>
 7    1  0.6507405E-006  0.9385484E+02  0.7818608E-02  0.1359175E+00
          2   -1    0    0  502    0  0.00000000000E+00  0.00000000000E+00  0.28076906588E+04  0.28076906588E+04  0.00000000000E+00 0. -1.
          1   -1    0    0  501    0 -0.00000000000E+00 -0.00000000000E+00 -0.23726006263E+03  0.23726006263E+03  0.00000000000E+00 0. -1.
         25    2    1    2    0    0 -0.27383841271E+02  0.11612723643E+03  0.17625242175E+03  0.24683084173E+03  0.12500055382E+03 0.  0.
          2    1    1    2  501    0  0.57654789529E+02 -0.73094869163E+02 -0.19096099676E+03  0.21244537401E+03  0.00000000000E+00 0. -1.
          1    1    1    2  502    0 -0.30270948258E+02 -0.43032367268E+02  0.25851391711E+04  0.25856745056E+04  0.00000000000E+00 0. -1.
         22    1    3    3    0    0  0.38940364434E+02  0.59372108374E+02  0.12979243505E+03  0.14794416322E+03  0.00000000000E+00 0. -1.
         22    1    3    3    0    0 -0.66324205705E+02  0.56755128058E+02  0.46459986698E+02  0.98886678512E+02  0.00000000000E+00 0. -1.
</event>
<event>
 7    1  0.6507405E-006  0.1306566E+03  0.7818608E-02  0.1343816E+00
          2   -1    0    0  502    0  0.00000000000E+00  0.00000000000E+00  0.37885281075E+03  0.37885281075E+03  0.00000000000E+00 0. -1.
          1   -1    0    0  501    0 -0.00000000000E+00 -0.00000000000E+00 -0.32154396668E+04  0.32154396668E+04  0.00000000000E+00 0. -1.
         25    2    1    2    0    0  0.17073836507E+03 -0.83802743669E+01 -0.10870477248E+03  0.23803867498E+03  0.12499545959E+03 0.  0.
          2    1    1    2  501    0 -0.12862971662E+03  0.17439487792E+02 -0.30391997998E+04  0.30419706052E+04  0.00000000000E+00 0. -1.
          1    1    1    2  502    0 -0.42108648447E+02 -0.90592134256E+01  0.31131771631E+03  0.31428319731E+03  0.00000000000E+00 0. -1.
         22    1    3    3    0    0  0.17292056731E+03  0.25466501190E+02 -0.10504971655E+03  0.20392525158E+03  0.00000000000E+00 0. -1.
         22    1    3    3    0    0 -0.21822022464E+01 -0.33846775557E+02 -0.36550559354E+01  0.34113423401E+02  0.00000000000E+00 0. -1.
</event>
<event>
 7    1  0.6507405E-006  0.5702582E+02  0.7818608E-02  0.1447151E+00
          2   -1    0    0  502    0  0.00000000000E+00  0.00000000000E+00  0.51115236742E+03  0.51115236742E+03  0.00000000000E+00 0. -1.
          1   -1    0    0  501    0 -0.00000000000E+00 -0.00000000000E+00 -0.55259067421E+03  0.55259067421E+03  0.00000000000E+00 0. -1.
         25    2    1    2    0    0  0.59076831581E+02 -0.30476699191E+02 -0.30831460085E+03  0.33926600328E+03  0.12499850662E+03 0.  0.
          2    1    1    2  501    0 -0.22305058434E+02  0.53257054844E+02 -0.22419171505E+03  0.23150756925E+03  0.00000000000E+00 0. -1.
          1    1    1    2  502    0 -0.36771773147E+02 -0.22780355653E+02  0.49106800911E+03  0.49296946911E+03  0.00000000000E+00 0. -1.
         22    1    3    3    0    0  0.96023100777E+02 -0.27279563595E+02 -0.18149251853E+03  0.20713315706E+03  0.00000000000E+00 0. -1.
         22    1    3    3    0    0 -0.36946269196E+02 -0.31971355954E+01 -0.12682208233E+03  0.13213284622E+03  0.00000000000E+00 0. -1.
</event>
<event>
 7    1  0.6507405E-006  0.1009882E+03  0.7818608E-02  0.1337993E+00
          2   -1    0    0  502    0  0.00000000000E+00  0.00000000000E+00  0.24792135572E+04  0.24792135572E+04  0.00000000000E+00 0. -1.
          1   -1    0    0  501    0 -0.00000000000E+00 -0.00000000000E+00 -0.21242752107E+04  0.21242752107E+04  0.00000000000E+00 0. -1.
         25    2    1    2    0    0 -0.30685293618E+02  0.10232720441E+03  0.88429053576E+03  0.89944783442E+03  0.12499684473E+03 0.  0.
          2    1    1    2  501    0  0.76569409455E+02 -0.65869120877E+02 -0.21149500179E+04  0.21173604307E+04  0.00000000000E+00 0. -1.
          1    1    1    2  502    0 -0.45884115836E+02 -0.36458083534E+02  0.15855978286E+04  0.15866805028E+04  0.00000000000E+00 0. -1.
         22    1    3    3    0    0 -0.31369540681E+02 -0.22956830403E+02  0.18824654352E+03  0.19221817108E+03  0.00000000000E+00 0.  1.
         22    1    3    3    0    0  0.68424706285E+00  0.12528403481E+03  0.69604399224E+03  0.70722966334E+03  0.00000000000E+00 0.  1.
</event>
<event>
 7    1  0.6507405E-006  0.3398980E+02  0.7818608E-02  0.1569726E+00
          2   -1    0    0  502    0  0.00000000000E+00  0.00000000000E+00  0.38423442728E+03  0.38423442728E+03  0.00000000000E+00 0. -1.
          1   -1    0    0  501    0 -0.00000000000E+00 -0.00000000000E+00 -0.22139061616E+04  0.22139061616E+04  0.00000000000E+00 0. -1.
         25    2    1    2    0    0 -0.17352321875E+02 -0.78702906639E+01 -0.16319965838E+04  0.16368875954E+04  0.12500042446E+03 0.  0.
          2    1    1    2  501    0 -0.80490633381E+01  0.30473479452E+02 -0.57827701345E+03  0.57913532499E+03  0.00000000000E+00 0. -1.
          1    1    1    2  502    0  0.25401385213E+02 -0.22603188788E+02  0.38060186289E+03  0.38211766846E+03  0.00000000000E+00 0. -1.
         22    1    3    3    0    0 -0.23712106354E+02  0.23287021609E+02 -0.15226055536E+04  0.15229682273E+04  0.00000000000E+00 0. -1.
         22    1    3    3    0    0  0.63597844788E+01 -0.31157312273E+02 -0.10939103017E+03  0.11391936819E+03  0.00000000000E+00 0. -1.
</event>
<event>
 7    1  0.6507405E-006  0.1097478E+03  0.7818608E-02  0.1269007E+00
          2   -1    0    0  502    0  0.00000000000E+00  0.00000000000E+00  0.17793838556E+04  0.17793838556E+04  0.00000000000E+00 0. -1.
          1   -1    0    0  501    0 -0.00000000000E+00 -0.00000000000E+00 -0.16248978350E+03  0.16248978350E+03  0.00000000000E+00 0. -1.
         25    2    1    2    0    0 -0.29515596629E+02  0.85383586099E+02  0.12836755941E+04  0.12929081202E+04  0.12500739730E+03 0.  0.
          2    1    1    2  501    0 -0.22985414486E+02  0.98909237972E+02 -0.11982353885E+03  0.15706383129E+03  0.00000000000E+00 0. -1.
          1    1    1    2  502    0  0.52501011115E+02 -0.18429282407E+03  0.45304201687E+03  0.49190168756E+03  0.00000000000E+00 0. -1.
         22    1    3    3    0    0 -0.55356745071E+02  0.85234935079E+02  0.12194611062E+04  0.12236889935E+04  0.00000000000E+00 0.  1.
         22    1    3    3    0    0  0.25841148443E+02  0.14865101945E+00  0.64214487879E+02  0.69219126717E+02  0.00000000000E+00 0.  1.
</event>
<event>
 7    1  0.6507405E-006  0.1109847E+03  0.7818608E-02  0.1336000E+00
          2   -1    0    0  502    0  0.00000000000E+00  0.00000000000E+00  0.25289284866E+03  0.25289284866E+03  0.00000000000E+00 0. -1.
          1   -1    0    0  501    0 -0.00000000000E+00 -0.00000000000E+00 -0.82910175465E+03  0.82910175465E+03  0.00000000000E+00 0. -1.
         25    2    1    2    0    0 -0.70798159632E+02 -0.18433295329E+02 -0.32040193521E+02  0.14834283196E+03  0.12500742382E+03 0.  0.
          2    1    1    2  501    0 -0.48349293930E+02  0.24625466950E+02 -0.71951887968E+03  0.72156183801E+03  0.00000000000E+00 0. -1.
          1    1    1    2  502    0  0.11914745356E+03 -0.61921716209E+01  0.17535016722E+03  0.21208993334E+03  0.00000000000E+00 0. -1.
         22    1    3    3    0    0 -0.10537203800E+03 -0.29716971546E-01 -0.19066432287E+02  0.10708312713E+03  0.00000000000E+00 0.  1.
         22    1    3    3    0    0  0.34573878372E+02 -0.18403578357E+02 -0.12973761234E+02  0.41259704829E+02  0.00000000000E+00 0.  1.
</event>
<event>
 7    1  0.6507405E-006  0.2183609E+03  0.7818608E-02  0.1176193E+00
          2   -1    0    0  502    0  0.00000000000E+00  0.00000000000E+00  0.66967635232E+03  0.66967635232E+03  0.00000000000E+00 0. -1.
          1   -1    0    0  501    0 -0.00000000000E+00 -0.00000000000E+00 -0.86367690243E+03  0.86367690243E+03  0.00000000000E+00 0. -1.
         25    2    1    2    0    0 -0.18592322184E+03  0.58396114168E+02 -0.13502032006E+03  0.26801587290E+03  0.12499788290E+03 0.  0.
          2    1    1    2  501    0  0.54202458275E+02  0.12347374270E+03 -0.63391780874E+03  0.64810142714E+03  0.00000000000E+00 0. -1.
          1    1    1    2  502    0  0.13172076357E+03 -0.18186985687E+03  0.57493757869E+03  0.61723595470E+03  0.00000000000E+00 0. -1.
         22    1    3    3    0    0 -0.14943090142E+03 -0.11270627738E+02 -0.67475044730E+02  0.16434568144E+03  0.00000000000E+00 0.  1.
         22    1    3    3    0    0 -0.36492320428E+02  0.69666741907E+02 -0.67545275328E+02  0.10367019146E+03  0.00000000000E+00 0.  1.
</event>
<event>
 7    1  0.6507405E-006  0.7631651E+02  0.7818608E-02  0.1345937E+00
          2   -1    0    0  502    0  0.00000000000E+00  0.00000000000E+00  0.26818384435E+04  0.26818384435E+04  0.00000000000E+00 0. -1.
          1   -1    0    0  501    0 -0.00000000000E+00 -0.00000000000E+00 -0.74158880517E+02  0.74158880517E+02  0.00000000000E+00 0. -1.
         25    2    1    2    0    0  0.75645056426E+02 -0.12213466070E+03  0.53721247585E+03  0.56996618222E+03  0.12500061902E+03 0.  0.
          2    1    1    2  501    0 -0.49025951179E+02  0.54796466845E+02 -0.33513887400E+02  0.80804562472E+02  0.00000000000E+00 0. -1.
          1    1    1    2  502    0 -0.26619105247E+02  0.67338193852E+02  0.21039809746E+04  0.21052265794E+04  0.00000000000E+00 0. -1.
         22    1    3    3    0    0  0.28026281215E+02 -0.99301438961E+02  0.16916368983E+03  0.19814793003E+03  0.00000000000E+00 0. -1.
         22    1    3    3    0    0  0.47618775210E+02 -0.22833221736E+02  0.36804878602E+03  0.37181825219E+03  0.00000000000E+00 0. -1.
</event>
<event>
 7    1  0.6507405E-006  0.5363921E+02  0.7818608E-02  0.1535376E+00
          2   -1    0    0  502    0  0.00000000000E+00  0.00000000000E+00  0.80251337939E+03  0.80251337939E+03  0.00000000000E+00 0. -1.
          1   -1    0    0  501    0 -0.00000000000E+00 -0.00000000000E+00 -0.10310651858E+03  0.10310651858E+03  0.00000000000E+00 0. -1.
         25    2    1    2    0    0  0.57186614868E+02  0.46418994401E+02  0.20125259733E+03  0.24809778348E+03  0.12499948109E+03 0.  0.
          2    1    1    2  501    0 -0.47396251803E+02 -0.23540645571E+02 -0.70595259351E+02  0.88228438283E+02  0.00000000000E+00 0. -1.
          1    1    1    2  502    0 -0.97903630649E+01 -0.22878348829E+02  0.56874952283E+03  0.56929367621E+03  0.00000000000E+00 0. -1.
         22    1    3    3    0    0 -0.72171872653E+01  0.28637031415E+02  0.17309006755E+03  0.17559139741E+03  0.00000000000E+00 0. -1.
         22    1    3    3    0    0  0.64403802134E+02  0.17781962986E+02  0.28162529778E+02  0.72506386066E+02  0.00000000000E+00 0. -1.
</event>
<event>
 7    1  0.6507405E-006  0.1251890E+03  0.7818608E-02  0.1321208E+00
          2   -1    0    0  502    0  0.00000000000E+00  0.00000000000E+00  0.98769966630E+02  0.98769966630E+02  0.00000000000E+00 0. -1.
          1   -1    0    0  501    0 -0.00000000000E+00 -0.00000000000E+00 -0.15772000807E+04  0.15772000807E+04  0.00000000000E+00 0. -1.
         25    2    1    2    0    0  0.48608220973E+02 -0.11511333244E+03 -0.45237529194E+03  0.48567753407E+03  0.12500169558E+03 0.  0.
          2    1    1    2  501    0 -0.94607077085E+02  0.85322823917E+02 -0.10949062512E+04  0.11022931471E+04  0.00000000000E+00 0. -1.
          1    1    1    2  502    0  0.45998856112E+02  0.29790508520E+02  0.68851429038E+02  0.87999366146E+02  0.00000000000E+00 0. -1.
         22    1    3    3    0    0  0.15444983361E+02 -0.98605965853E+02 -0.43203956207E+03  0.44341838844E+03  0.00000000000E+00 0.  1.
         22    1    3    3    0    0  0.33163237611E+02 -0.16507366584E+02 -0.20335729866E+02  0.42259145633E+02  0.00000000000E+00 0.  1.
</event>
<event>
 7    1  0.6507405E-006  0.1646266E+03  0.7818608E-02  0.1300145E+00
          2   -1    0    0  502    0  0.00000000000E+00  0.00000000000E+00  0.17222960760E+04  0.17222960760E+04  0.00000000000E+00 0. -1.
          1   -1    0    0  501    0 -0.00000000000E+00 -0.00000000000E+00 -0.73081084893E+03  0.73081084893E+03  0.00000000000E+00 0. -1.
         25    2    1    2    0    0  0.73180115553E+02 -0.17384770222E+03 -0.54122919686E+02  0.23266500256E+03  0.12500144039E+03 0.  0.
          2    1    1    2  501    0  0.26085248182E+02  0.43174115269E+02 -0.58220098424E+03  0.58438209286E+03  0.00000000000E+00 0. -1.
          1    1    1    2  502    0 -0.99265363735E+02  0.13067358695E+03  0.16278091310E+04  0.16360598295E+04  0.00000000000E+00 0. -1.
         22    1    3    3    0    0  0.45514682010E+02 -0.15995989304E+03 -0.86846679093E+02  0.18761956009E+03  0.00000000000E+00 0.  1.
         22    1    3    3    0    0  0.27665433543E+02 -0.13887809178E+02  0.32723759407E+02  0.45045442462E+02  0.00000000000E+00 0.  1.
</event>
<event>
 7    1  0.6507405E-006  0.4704879E+02  0.7818608E-02  0.1463283E+00
          2   -1    0    0  502    0  0.00000000000E+00  0.00000000000E+00  0.12073746129E+04  0.12073746129E+04  0.00000000000E+00 0. -1.
          1   -1    0    0  501    0 -0.00000000000E+00 -0.00000000000E+00 -0.76300811943E+02  0.76300811943E+02  0.00000000000E+00 0. -1.
         25    2    1    2    0    0 -0.91327380888E+01 -0.62759123527E+01  0.43716663021E+03  0.45482234145E+03  0.12500362289E+03 0.  0.
          2    1    1    2  501    0 -0.34438735235E+02  0.32055615962E+02 -0.58315574675E+02  0.74928601008E+02  0.00000000000E+00 0. -1.
          1    1    1    2  502    0  0.43571473324E+02 -0.25779703610E+02  0.75222274543E+03  0.75392448239E+03  0.00000000000E+00 0. -1.
         22    1    3    3    0    0  0.42648978650E+01 -0.44156244647E+02  0.55519673750E+02  0.71066148540E+02  0.00000000000E+00 0.  1.
         22    1    3    3    0    0 -0.13397635954E+02  0.37880332294E+02  0.38164695646E+03  0.38375619291E+03  0.00000000000E+00 0.  1.
</event>
<event>
 7    1  0.6507405E-006  0.1838093E+03  0.7818608E-02  0.1214173E+00
          2   -1    0    0  502    0  0.00000000000E+00  0.00000000000E+00  0.17912933080E+04  0.17912933080E+04  0.00000000000E+00 0. -1.
          1   -1    0    0  501    0 -0.00000000000E+00 -0.00000000000E+00 -0.94491784107E+03  0.94491784107E+03  0.00000000000E+00 0. -1.
         25    2    1    2    0    0 -0.17182762540E+03  0.19023083315E+02  0.32438332393E+03  0.38825155794E+03  0.12501248277E+03 0.  0.
          2    1    1    2  501    0  0.16346995328E+03  0.86327764931E+02 -0.90164698650E+03  0.92040327948E+03  0.00000000000E+00 0. -1.
          1    1    1    2  502    0  0.83576721185E+01 -0.10535084825E+03  0.14236391295E+04  0.14275563117E+04  0.00000000000E+00 0. -1.
         22    1    3    3    0    0 -0.12864794822E+03  0.65452090018E+02  0.26297889569E+03  0.29998695013E+03  0.00000000000E+00 0.  1.
         22    1    3    3    0    0 -0.43179677182E+02 -0.46429006703E+02  0.61404428244E+02  0.88264607816E+02  0.00000000000E+00 0.  1.
</event>
<event>
 7    1  0.7995911E-006  0.1230759E+03  0.7818608E-02  0.1304033E+00
          2   -1    0    0  502    0  0.00000000000E+00  0.00000000000E+00  0.15379986901E+04  0.15379986901E+04  0.00000000000E+00 0. -1.
          1   -1    0    0  501    0 -0.00000000000E+00 -0.00000000000E+00 -0.14587719354E+04  0.14587719354E+04  0.00000000000E+00 0. -1.
         25    2    1    2    0    0 -0.15529398545E+03  0.10520408036E+03 -0.30315781240E+03  0.37777360362E+03  0.12499646366E+03 0.  0.
          2    1    1    2  501    0  0.51951812231E+02 -0.39237594966E+02 -0.11148509256E+04  0.11167502702E+04  0.00000000000E+00 0. -1.
          1    1    1    2  502    0  0.10334217322E+03 -0.65966485389E+02  0.14972354927E+04  0.15022467516E+04  0.00000000000E+00 0. -1.
         22    1    3    3    0    0 -0.29475056494E+02 -0.26850234964E+02 -0.81403180249E+02  0.90643211701E+02  0.00000000000E+00 0.  1.
         22    1    3    3    0    0 -0.12581892896E+03  0.13205431532E+03 -0.22175463215E+03  0.28713039192E+03  0.00000000000E+00 0.  1.
</event>
<event>
 7    1  0.1008711E-005  0.9462709E+02  0.7818608E-02  0.1361196E+00
          2   -1    0    0  502    0  0.00000000000E+00  0.00000000000E+00  0.24693629034E+04  0.24693629034E+04  0.00000000000E+00 0. -1.
          1   -1    0    0  501    0 -0.00000000000E+00 -0.00000000000E+00 -0.12517006724E+04  0.12517006724E+04  0.00000000000E+00 0. -1.
         25    2    1    2    0    0  0.33432681605E+02  0.54248819180E+02 -0.11039769911E+03  0.17855224624E+03  0.12503029267E+03 0.  0.
          2    1    1    2  501    0 -0.84349538688E+02 -0.47951478884E+02 -0.11048291058E+04  0.11090813956E+04  0.00000000000E+00 0. -1.
          1    1    1    2  502    0  0.50916857083E+02 -0.62973402962E+01  0.24328890359E+04  0.24334299340E+04  0.00000000000E+00 0. -1.
         22    1    3    3    0    0  0.38030176215E+02  0.41883458381E+02  0.99861282064E+01  0.57447725329E+02  0.00000000000E+00 0.  1.
         22    1    3    3    0    0 -0.45974946100E+01  0.12365360800E+02 -0.12038382732E+03  0.12110452091E+03  0.00000000000E+00 0.  1.
</event>
<event>
 7    1  0.6507405E-006  0.1174754E+03  0.7818608E-02  0.1366038E+00
          2   -1    0    0  502    0  0.00000000000E+00  0.00000000000E+00  0.13759924771E+04  0.13759924771E+04  0.00000000000E+00 0. -1.
          1   -1    0    0  501    0 -0.00000000000E+00 -0.00000000000E+00 -0.22387834822E+04  0.22387834822E+04  0.00000000000E+00 0. -1.
         25    2    1    2    0    0 -0.10902274350E+03  0.86155760935E+02 -0.46061931263E+01  0.18696473602E+03  0.12500328698E+03 0.  0.
          2    1    1    2  501    0  0.70098127692E+02 -0.93899580661E+02 -0.21410890923E+04  0.21442932122E+04  0.00000000000E+00 0. -1.
          1    1    1    2  502    0  0.38924615805E+02  0.77438197261E+01  0.12829042803E+04  0.12835180111E+04  0.00000000000E+00 0. -1.
         22    1    3    3    0    0 -0.58085934458E+02 -0.17260765502E+02  0.28586923468E+02  0.67000910448E+02  0.00000000000E+00 0.  1.
         22    1    3    3    0    0 -0.50936809039E+02  0.10341652644E+03 -0.33193116594E+02  0.11996382557E+03  0.00000000000E+00 0.  1.
</event>
<event>
 7    1  0.6507405E-006  0.2855801E+02  0.7818608E-02  0.1634236E+00
          2   -1    0    0  502    0  0.00000000000E+00  0.00000000000E+00  0.30333934680E+03  0.30333934680E+03  0.00000000000E+00 0. -1.
          1   -1    0    0  501    0 -0.00000000000E+00 -0.00000000000E+00 -0.46825614995E+03  0.46825614995E+03  0.00000000000E+00 0. -1.
         25    2    1    2    0    0 -0.14928810812E+02  0.13974146984E+02 -0.71962943074E+02  0.14567733060E+03  0.12500029320E+03 0.  0.
          2    1    1    2  501    0 -0.62202209399E+01 -0.28163082880E+02 -0.35824663274E+03  0.35940575991E+03  0.00000000000E+00 0. -1.
          1    1    1    2  502    0  0.21149031752E+02  0.14188935896E+02  0.26529277267E+03  0.26651240623E+03  0.00000000000E+00 0. -1.
         22    1    3    3    0    0 -0.56483137017E+02 -0.29390937845E+02 -0.21417240074E+02  0.67177899395E+02  0.00000000000E+00 0.  1.
         22    1    3    3    0    0  0.41554326205E+02  0.43365084829E+02 -0.50545703000E+02  0.78499431210E+02  0.00000000000E+00 0.  1.
</event>
<event>
 7    1  0.6507405E-006  0.1492491E+03  0.7818608E-02  0.1381828E+00
          2   -1    0    0  502    0  0.00000000000E+00  0.00000000000E+00  0.63881831911E+03  0.63881831911E+03  0.00000000000E+00 0. -1.
          1   -1    0    0  501    0 -0.00000000000E+00 -0.00000000000E+00 -0.47375031182E+03  0.47375031182E+03  0.00000000000E+00 0. -1.
         25    2    1    2    0    0  0.10424842564E+03  0.99354558035E+02 -0.26380995461E+03  0.32551539041E+03  0.12500205916E+03 0.  0.
          2    1    1    2  501    0  0.20962197196E+02 -0.17694389570E+02 -0.16877460112E+03  0.17098938890E+03  0.00000000000E+00 0. -1.
          1    1    1    2  502    0 -0.12521062284E+03 -0.81660168465E+02  0.59765256302E+03  0.61606385161E+03  0.00000000000E+00 0. -1.
         22    1    3    3    0    0  0.31727794222E+02  0.68760424767E+02 -0.34769789603E+02  0.83328189764E+02  0.00000000000E+00 0. -1.
         22    1    3    3    0    0  0.72520631418E+02  0.30594133268E+02 -0.22904016501E+03  0.24218720065E+03  0.00000000000E+00 0. -1.
</event>
<event>
 7    1  0.6507405E-006  0.1168653E+03  0.7818608E-02  0.1340735E+00
          2   -1    0    0  502    0  0.00000000000E+00  0.00000000000E+00  0.32929973191E+04  0.32929973191E+04  0.00000000000E+00 0. -1.
          1   -1    0    0  501    0 -0.00000000000E+00 -0.00000000000E+00 -0.11521071452E+04  0.11521071452E+04  0.00000000000E+00 0. -1.
         25    2    1    2    0    0  0.12277735622E+03 -0.94459699862E+02 -0.52258866366E+03  0.55921408240E+03  0.12499825786E+03 0.  0.
          2    1    1    2  501    0 -0.77882247362E+02  0.73722661769E+02 -0.60631326632E+03  0.61572433136E+03  0.00000000000E+00 0. -1.
          1    1    1    2  502    0 -0.44895108856E+02  0.20737038093E+02  0.32697921039E+04  0.32701660506E+04  0.00000000000E+00 0. -1.
         22    1    3    3    0    0  0.91139168932E+02 -0.12243717700E+03 -0.45061822836E+03  0.47576674764E+03  0.00000000000E+00 0. -1.
         22    1    3    3    0    0  0.31638187286E+02  0.27977477137E+02 -0.71970435300E+02  0.83447334763E+02  0.00000000000E+00 0. -1.
</event>
<event>
 7    1  0.6507405E-006  0.1581723E+03  0.7818608E-02  0.1241283E+00
          2   -1    0    0  502    0  0.00000000000E+00  0.00000000000E+00  0.21199216890E+03  0.21199216890E+03  0.00000000000E+00 0. -1.
          1   -1    0    0  501    0 -0.00000000000E+00 -0.00000000000E+00 -0.58165288685E+03  0.58165288685E+03  0.00000000000E+00 0. -1.
         25    2    1    2    0    0  0.45288534598E+02  0.78644204951E+02 -0.17086341954E+02  0.15542470107E+03  0.12501572814E+03 0.  0.
          2    1    1    2  501    0 -0.12978673386E+03 -0.11683183673E+03 -0.46252327555E+03  0.49439058930E+03  0.00000000000E+00 0. -1.
          1    1    1    2  502    0  0.84498199260E+02  0.38187631776E+02  0.10994889955E+03  0.14382976539E+03  0.00000000000E+00 0. -1.
         22    1    3    3    0    0  0.35213295750E+02 -0.96933884692E+01  0.36483202799E+02  0.51623270568E+02  0.00000000000E+00 0.  1.
         22    1    3    3    0    0  0.10075238848E+02  0.88337593421E+02 -0.53569544753E+02  0.10380143050E+03  0.00000000000E+00 0.  1.
</event>
<event>
 7    1  0.6507405E-006  0.1087053E+03  0.7818608E-02  0.1361825E+00
          2   -1    0    0  502    0  0.00000000000E+00  0.00000000000E+00  0.69990552877E+03  0.69990552877E+03  0.00000000000E+00 0. -1.
          1   -1    0    0  501    0 -0.00000000000E+00 -0.00000000000E+00 -0.53308248394E+03  0.53308248394E+03  0.00000000000E+00 0. -1.
         25    2    1    2    0    0  0.67666583431E+02 -0.10983237567E+03  0.12254554332E+03  0.21744510928E+03  0.12499219217E+03 0.  0.
          2    1    1    2  501    0 -0.44100035391E+02  0.53690761608E+01 -0.47918437277E+03  0.48123934088E+03  0.00000000000E+00 0. -1.
          1    1    1    2  502    0 -0.23566548040E+02  0.10446329950E+03  0.52346187429E+03  0.53430356256E+03  0.00000000000E+00 0. -1.
         22    1    3    3    0    0  0.76267871115E+02 -0.12108093766E+03  0.63200867663E+02  0.15643443132E+03  0.00000000000E+00 0. -1.
         22    1    3    3    0    0 -0.86012876840E+01  0.11248561990E+02  0.59344675656E+02  0.61010677962E+02  0.00000000000E+00 0. -1.
</event>
<event>
 7    1  0.6507405E-006  0.6215070E+02  0.7818608E-02  0.1430852E+00
          2   -1    0    0  502    0  0.00000000000E+00  0.00000000000E+00  0.39334659623E+04  0.39334659623E+04  0.00000000000E+00 0. -1.
          1   -1    0    0  501    0 -0.00000000000E+00 -0.00000000000E+00 -0.63448822402E+01  0.63448822402E+01  0.00000000000E+00 0. -1.
         25    2    1    2    0    0  0.11519450716E+02 -0.18829747099E+02  0.79555646241E+03  0.80561813675E+03  0.12499296085E+03 0.  0.
          2    1    1    2  501    0  0.53264610283E+01 -0.44520498321E+02  0.55980411291E+03  0.56159691130E+03  0.00000000000E+00 0. -1.
          1    1    1    2  502    0 -0.16845911744E+02  0.63350245419E+02  0.25717605048E+04  0.25725957965E+04  0.00000000000E+00 0. -1.
         22    1    3    3    0    0  0.67085144719E+02 -0.23053923697E+02  0.47118381387E+03  0.47649353247E+03  0.00000000000E+00 0.  1.
         22    1    3    3    0    0 -0.55565694003E+02  0.42241765984E+01  0.32437264854E+03  0.32912460428E+03  0.00000000000E+00 0.  1.
</event>
<event>
 7    1  0.6507405E-006  0.4850584E+02  0.7818608E-02  0.1515911E+00
          2   -1    0    0  502    0  0.00000000000E+00  0.00000000000E+00  0.32555499420E+04  0.32555499420E+04  0.00000000000E+00 0. -1.
          1   -1    0    0  501    0 -0.00000000000E+00 -0.00000000000E+00 -0.57087090491E+03  0.57087090491E+03  0.00000000000E+00 0. -1.
         25    2    1    2    0    0  0.18117117955E+02  0.75596643672E+02  0.18717201781E+04  0.18775001157E+04  0.12500870621E+03 0.  0.
          2    1    1    2  501    0 -0.25579775563E+01 -0.48422895847E+02 -0.56676802661E+03  0.56883856768E+03  0.00000000000E+00 0. -1.
          1    1    1    2  502    0 -0.15559140399E+02 -0.27173747825E+02  0.13797268856E+04  0.13800821636E+04  0.00000000000E+00 0. -1.
         22    1    3    3    0    0  0.71522180395E+02  0.43614020414E+02  0.11893052443E+04  0.11922518899E+04  0.00000000000E+00 0. -1.
         22    1    3    3    0    0 -0.53405062440E+02  0.31982623258E+02  0.68241493387E+03  0.68524822572E+03  0.00000000000E+00 0. -1.
</event>
<event>
 7    1  0.6507405E-006  0.1125975E+03  0.7818608E-02  0.1438284E+00
          2   -1    0    0  502    0  0.00000000000E+00  0.00000000000E+00  0.14313431020E+04  0.14313431020E+04  0.00000000000E+00 0. -1.
          1   -1    0    0  501    0 -0.00000000000E+00 -0.00000000000E+00 -0.32201393494E+03  0.32201393494E+03  0.00000000000E+00 0. -1.
         25    2    1    2    0    0  0.31669564877E+02 -0.97485603650E+02 -0.14549007276E+03  0.21748190188E+03  0.12499844846E+03 0.  0.
          2    1    1    2  501    0 -0.18386352143E+02 -0.14477836608E+02 -0.13725835164E+03  0.13923907783E+03  0.00000000000E+00 0. -1.
          1    1    1    2  502    0 -0.13283212734E+02  0.11196344026E+03  0.13920775915E+04  0.13966360573E+04  0.00000000000E+00 0. -1.
         22    1    3    3    0    0  0.73420395575E+02 -0.46414335617E+02 -0.11677491144E+03  0.14553770982E+03  0.00000000000E+00 0. -1.
         22    1    3    3    0    0 -0.41750830697E+02 -0.51071268033E+02 -0.28715161314E+02  0.71944192064E+02  0.00000000000E+00 0. -1.
</event>
<event>
 7    1  0.6507405E-006  0.1150456E+03  0.7818608E-02  0.1334725E+00
          2   -1    0    0  502    0  0.00000000000E+00  0.00000000000E+00  0.79245676710E+03  0.79245676710E+03  0.00000000000E+00 0. -1.
          1   -1    0    0  501    0 -0.00000000000E+00 -0.00000000000E+00 -0.89287744056E+03  0.89287744056E+03  0.00000000000E+00 0. -1.
         25    2    1    2    0    0 -0.44416139205E+02 -0.15461262811E+03 -0.92694647269E+02  0.22381464384E+03  0.12499135559E+03 0.  0.
          2    1    1    2  501    0  0.14014574453E+02  0.11128490347E+03 -0.72936653285E+03  0.73794056487E+03  0.00000000000E+00 0. -1.
          1    1    1    2  502    0  0.30401564752E+02  0.43327724643E+02  0.72164050666E+03  0.72357899894E+03  0.00000000000E+00 0. -1.
         22    1    3    3    0    0 -0.55897101858E+02 -0.13621271852E+02 -0.58592074171E+01  0.57830401646E+02  0.00000000000E+00 0.  1.
         22    1    3    3    0    0  0.11480962652E+02 -0.14099135626E+03 -0.86835439852E+02  0.16598424220E+03  0.00000000000E+00 0.  1.
</event>
<event>
 7    1  0.6507405E-006  0.3528192E+02  0.7818608E-02  0.1627012E+00
          2   -1    0    0  502    0  0.00000000000E+00  0.00000000000E+00  0.80524197949E+02  0.80524197949E+02  0.00000000000E+00 0. -1.
          1   -1    0    0  501    0 -0.00000000000E+00 -0.00000000000E+00 -0.13450948599E+04  0.13450948599E+04  0.00000000000E+00 0. -1.
         25    2    1    2    0    0  0.14090213221E+02 -0.30192412462E+01 -0.13506153932E+03  0.18459340455E+03  0.12500182268E+03 0.  0.
          2    1    1    2  501    0 -0.32806001554E+02  0.13588767836E+02 -0.11829196028E+04  0.11834524389E+04  0.00000000000E+00 0. -1.
          1    1    1    2  502    0  0.18715788333E+02 -0.10569526589E+02  0.53410480186E+02  0.57573214423E+02  0.00000000000E+00 0. -1.
         22    1    3    3    0    0  0.21659662417E+02  0.59189988958E+02 -0.71967845570E+02  0.95665911195E+02  0.00000000000E+00 0.  1.
         22    1    3    3    0    0 -0.75694491954E+01 -0.62209230204E+02 -0.63093693754E+02  0.88927493360E+02  0.00000000000E+00 0.  1.
</event>
<event>
 7    1  0.6507405E-006  0.4741855E+02  0.7818608E-02  0.1480506E+00
          2   -1    0    0  502    0  0.00000000000E+00  0.00000000000E+00  0.85974442049E+03  0.85974442049E+03  0.00000000000E+00 0. -1.
          1   -1    0    0  501    0 -0.00000000000E+00 -0.00000000000E+00 -0.91723740451E+02  0.91723740451E+02  0.00000000000E+00 0. -1.
         25    2    1    2    0    0  0.17709888249E+02 -0.85193473021E+02  0.19516227664E+03  0.24755796585E+03  0.12500025698E+03 0.  0.
          2    1    1    2  501    0 -0.89534782673E+01  0.39886345177E+02 -0.58224763134E+02  0.71142169960E+02  0.00000000000E+00 0. -1.
          1    1    1    2  502    0 -0.87564099813E+01  0.45307127844E+02  0.63108316653E+03  0.63276802513E+03  0.00000000000E+00 0. -1.
         22    1    3    3    0    0  0.65402021698E+02 -0.62184717159E+02  0.16092120160E+03  0.18449931332E+03  0.00000000000E+00 0. -1.
         22    1    3    3    0    0 -0.47692133450E+02 -0.23008755861E+02  0.34241075044E+02  0.63058652535E+02  0.00000000000E+00 0. -1.
</event>
<event>
 7    1  0.6507405E-006  0.3289028E+02  0.7818608E-02  0.1569590E+00
          2   -1    0    0  502    0  0.00000000000E+00  0.00000000000E+00  0.33703499590E+03  0.33703499590E+03  0.00000000000E+00 0. -1.
          1   -1    0    0  501    0 -0.00000000000E+00 -0.00000000000E+00 -0.70256559885E+03  0.70256559885E+03  0.00000000000E+00 0. -1.
         25    2    1    2    0    0 -0.36805227946E+01  0.44267994541E+02  0.68930927362E+02  0.14949536336E+03  0.12499675727E+03 0.  0.
          2    1    1    2  501    0 -0.22202092880E+02 -0.23871135161E+02 -0.66068771971E+03  0.66149151695E+03  0.00000000000E+00 0. -1.
          1    1    1    2  502    0  0.25882615675E+02 -0.20396859380E+02  0.22622618939E+03  0.22861371444E+03  0.00000000000E+00 0. -1.
         22    1    3    3    0    0  0.18265684090E+02  0.68902307292E+02  0.86524281227E+02  0.11210537189E+03  0.00000000000E+00 0. -1.
         22    1    3    3    0    0 -0.21946206884E+02 -0.24634312751E+02 -0.17593353866E+02  0.37389991462E+02  0.00000000000E+00 0. -1.
</event>
<event>
 7    1  0.6507405E-006  0.6214545E+02  0.7818608E-02  0.1417663E+00
          2   -1    0    0  502    0  0.00000000000E+00  0.00000000000E+00  0.94784886636E+03  0.94784886636E+03  0.00000000000E+00 0. -1.
          1   -1    0    0  501    0 -0.00000000000E+00 -0.00000000000E+00 -0.70228271283E+03  0.70228271283E+03  0.00000000000E+00 0. -1.
         25    2    1    2    0    0 -0.34861976143E+02 -0.28319487506E+02  0.30307699607E+03  0.33090513344E+03  0.12500076413E+03 0.  0.
          2    1    1    2  501    0  0.32241993641E+02 -0.37688772340E+02 -0.68574114575E+03  0.68753247828E+03  0.00000000000E+00 0. -1.
          1    1    1    2  502    0  0.26199825029E+01  0.66008259845E+02  0.62823030321E+03  0.63169396748E+03  0.00000000000E+00 0. -1.
         22    1    3    3    0    0 -0.20836795980E+02  0.41254577320E+02  0.20313134437E+03  0.20832295908E+03  0.00000000000E+00 0.  1.
         22    1    3    3    0    0 -0.14025180163E+02 -0.69574064825E+02  0.99945651707E+02  0.12258217436E+03  0.00000000000E+00 0.  1.
</event>
<event>
 7    1  0.6507405E-006  0.1637264E+03  0.7818608E-02  0.1316229E+00
          2   -1    0    0  502    0  0.00000000000E+00  0.00000000000E+00  0.22631032265E+03  0.22631032265E+03  0.00000000000E+00 0. -1.
          1   -1    0    0  501    0 -0.00000000000E+00 -0.00000000000E+00 -0.58531711703E+03  0.58531711703E+03  0.00000000000E+00 0. -1.
         25    2    1    2    0    0 -0.89259928276E+02  0.93561652309E+02 -0.43743013483E+03  0.47296144431E+03  0.12500514939E+03 0.  0.
          2    1    1    2  501    0 -0.50960292148E+01  0.43516171045E+02 -0.91115171080E+02  0.10110193399E+03  0.00000000000E+00 0. -1.
          1    1    1    2  502    0  0.94355957491E+02 -0.13707782335E+03  0.16953851152E+03  0.23756406138E+03  0.00000000000E+00 0. -1.
         22    1    3    3    0    0  0.22483161168E+02  0.47541552445E+02 -0.80754435537E+02  0.96368929661E+02  0.00000000000E+00 0. -1.
         22    1    3    3    0    0 -0.11174308944E+03  0.46020099865E+02 -0.35667569929E+03  0.37659251465E+03  0.00000000000E+00 0. -1.
</event>
<event>
 7    1  0.6507405E-006  0.8365199E+02  0.7818608E-02  0.1452072E+00
          2   -1    0    0  502    0  0.00000000000E+00  0.00000000000E+00  0.66242709968E+02  0.66242709968E+02  0.00000000000E+00 0. -1.
          1   -1    0    0  501    0 -0.00000000000E+00 -0.00000000000E+00 -0.27179261193E+04  0.27179261193E+04  0.00000000000E+00 0. -1.
         25    2    1    2    0    0 -0.58198598884E+02  0.73075685567E+02 -0.12522057477E+04  0.12618921186E+04  0.12500140672E+03 0.  0.
          2    1    1    2  501    0 -0.10959719535E+02 -0.26240641417E+02 -0.14322648627E+04  0.14325471453E+04  0.00000000000E+00 0. -1.
          1    1    1    2  502    0  0.69158318419E+02 -0.46835044150E+02  0.32787200953E+02  0.89729565437E+02  0.00000000000E+00 0. -1.
         22    1    3    3    0    0  0.17790044605E+02  0.73084195857E+02 -0.46709641890E+03  0.47311399253E+03  0.00000000000E+00 0. -1.
         22    1    3    3    0    0 -0.75988643489E+02 -0.85102897199E-02 -0.78510932876E+03  0.78877812604E+03  0.00000000000E+00 0. -1.
</event>
<event>
 7    1  0.6507405E-006  0.2378697E+03  0.7818608E-02  0.1362571E+00
          2   -1    0    0  502    0  0.00000000000E+00  0.00000000000E+00  0.49323265772E+03  0.49323265772E+03  0.00000000000E+00 0. -1.
          1   -1    0    0  501    0 -0.00000000000E+00 -0.00000000000E+00 -0.43747363877E+03  0.43747363877E+03  0.00000000000E+00 0. -1.
         25    2    1    2    0    0  0.20579168510E+03 -0.83104655696E+02 -0.19164198430E+03  0.31875992152E+03  0.12499854386E+03 0.  0.
          2    1    1    2  501    0  0.20075685711E+02  0.20081931842E+01 -0.14802534064E+03  0.14939400078E+03  0.00000000000E+00 0. -1.
          1    1    1    2  502    0 -0.22586737081E+03  0.81096462512E+02  0.39542634388E+03  0.46255237419E+03  0.00000000000E+00 0. -1.
         22    1    3    3    0    0  0.74723587840E+02  0.30513419701E+02 -0.70717699889E+02  0.10731111983E+03  0.00000000000E+00 0.  1.
         22    1    3    3    0    0  0.13106809726E+03 -0.11361807540E+03 -0.12092428441E+03  0.21144880169E+03  0.00000000000E+00 0.  1.
</event>
<event>
 7    1  0.6507405E-006  0.5073636E+02  0.7818608E-02  0.1551090E+00
          2   -1    0    0  502    0  0.00000000000E+00  0.00000000000E+00  0.10223083565E+04  0.10223083565E+04  0.00000000000E+00 0. -1.
          1   -1    0    0  501    0 -0.00000000000E+00 -0.00000000000E+00 -0.84928207323E+03  0.84928207323E+03  0.00000000000E+00 0. -1.
         25    2    1    2    0    0  0.37692354810E+02  0.51628193564E+01 -0.23854063363E+03  0.27198420795E+03  0.12500562854E+03 0.  0.
          2    1    1    2  501    0  0.43135540827E+01  0.23366586308E+02 -0.59314059917E+03  0.59361635294E+03  0.00000000000E+00 0. -1.
          1    1    1    2  502    0 -0.42005908892E+02 -0.28529405665E+02  0.10047075160E+04  0.10059898688E+04  0.00000000000E+00 0. -1.
         22    1    3    3    0    0  0.60084210610E+02  0.38066491109E+02 -0.73771542599E+02  0.10247639049E+03  0.00000000000E+00 0.  1.
         22    1    3    3    0    0 -0.22391855800E+02 -0.32903671753E+02 -0.16476909103E+03  0.16950781746E+03  0.00000000000E+00 0.  1.
</event>
<event>
 7    1  0.6507405E-006  0.9687230E+02  0.7818608E-02  0.1395418E+00
          2   -1    0    0  502    0  0.00000000000E+00  0.00000000000E+00  0.20221394667E+03  0.20221394667E+03  0.00000000000E+00 0. -1.
          1   -1    0    0  501    0 -0.00000000000E+00 -0.00000000000E+00 -0.19760806053E+03  0.19760806053E+03  0.00000000000E+00 0. -1.
         25    2    1    2    0    0  0.70444483745E+02  0.33339762289E+02  0.76934617269E+02  0.16619199076E+03  0.12500750945E+03 0.  0.
          2    1    1    2  501    0  0.36990573999E+02  0.81744044672E+01 -0.10686957773E+03  0.11338531694E+03  0.00000000000E+00 0. -1.
          1    1    1    2  502    0 -0.10743505774E+03 -0.41514166756E+02  0.34540846610E+02  0.12024469950E+03  0.00000000000E+00 0. -1.
         22    1    3    3    0    0 -0.19818808311E+02 -0.28693866044E+02  0.33538583959E+02  0.48383465414E+02  0.00000000000E+00 0.  1.
         22    1    3    3    0    0  0.90263292056E+02  0.62033628333E+02  0.43396033310E+02  0.11780852535E+03  0.00000000000E+00 0.  1.
</event>
<event>
 7    1  0.6507405E-006  0.1262787E+03  0.7818608E-02  0.1334408E+00
          2   -1    0    0  502    0  0.00000000000E+00  0.00000000000E+00  0.23221171627E+04  0.23221171627E+04  0.00000000000E+00 0. -1.
          1   -1    0    0  501    0 -0.00000000000E+00 -0.00000000000E+00 -0.23476840206E+02  0.23476840206E+02  0.00000000000E+00 0. -1.
         25    2    1    2    0    0 -0.97393499299E+02  0.34823660101E+02  0.50185837349E+03  0.52743216074E+03  0.12499870455E+03 0.  0.
          2    1    1    2  501    0  0.14514802163E+03 -0.42419861469E+02  0.54906787020E+03  0.56951112273E+03  0.00000000000E+00 0. -1.
          1    1    1    2  502    0 -0.47754522333E+02  0.75962013682E+01  0.12477140788E+04  0.12486507194E+04  0.00000000000E+00 0. -1.
         22    1    3    3    0    0 -0.20803605824E+02  0.18402127491E+02  0.10223665370E+02  0.29596480282E+02  0.00000000000E+00 0. -1.
         22    1    3    3    0    0 -0.76589893475E+02  0.16421532610E+02  0.49163470812E+03  0.49783568046E+03  0.00000000000E+00 0. -1.
</event>
<event>
 7    1  0.6507405E-006  0.9238630E+02  0.7818608E-02  0.1358119E+00
          2   -1    0    0  502    0  0.00000000000E+00  0.00000000000E+00  0.26094671718E+03  0.26094671718E+03  0.00000000000E+00 0. -1.
          1   -1    0    0  501    0 -0.00000000000E+00 -0.00000000000E+00 -0.13818334137E+04  0.13818334137E+04  0.00000000000E+00 0. -1.
         25    2    1    2    0    0 -0.56704917017E+02 -0.54109167718E+02 -0.67413032020E+03  0.69008838911E+03  0.12500818588E+03 0.  0.
          2    1    1    2  501    0  0.27345776968E+02  0.99342925107E+02 -0.69299709001E+03  0.70061528320E+03  0.00000000000E+00 0. -1.
          1    1    1    2  502    0  0.29359140049E+02 -0.45233757389E+02  0.24624071366E+03  0.25207645859E+03  0.00000000000E+00 0. -1.
         22    1    3    3    0    0 -0.59190744365E+02 -0.78886303024E+02 -0.31459333085E+03  0.32969009212E+03  0.00000000000E+00 0.  1.
         22    1    3    3    0    0  0.24858273481E+01  0.24777135306E+02 -0.35953698934E+03  0.36039829700E+03  0.00000000000E+00 0.  1.
</event>
<event>
 7    1  0.6507405E-006  0.8828052E+02  0.7818608E-02  0.1410665E+00
          2   -1    0    0  502    0  0.00000000000E+00  0.00000000000E+00  0.72158257062E+03  0.72158257062E+03  0.00000000000E+00 0. -1.
          1   -1    0    0  501    0 -0.00000000000E+00 -0.00000000000E+00 -0.27464037810E+03  0.27464037810E+03  0.00000000000E+00 0. -1.
         25    2    1    2    0    0  0.14410891250E+01 -0.69613095877E+02  0.32223783761E+02  0.14666350892E+03  0.12499501091E+03 0.  0.
          2    1    1    2  501    0 -0.35594060382E+02  0.83483936245E+02 -0.20738039589E+03  0.22636946204E+03  0.00000000000E+00 0. -1.
          1    1    1    2  502    0  0.34152971257E+02 -0.13870840367E+02  0.62209880464E+03  0.62318997777E+03  0.00000000000E+00 0. -1.
         22    1    3    3    0    0  0.60028453215E+02 -0.48116427726E+02  0.34277216937E+02  0.84223116859E+02  0.00000000000E+00 0.  1.
         22    1    3    3    0    0 -0.58587364089E+02 -0.21496668151E+02 -0.20534331766E+01  0.62440392058E+02  0.00000000000E+00 0.  1.
</event>
<event>
 7    1  0.6507405E-006  0.2812911E+02  0.7818608E-02  0.1665831E+00
          2   -1    0    0  502    0  0.00000000000E+00  0.00000000000E+00  0.33050653678E+03  0.33050653678E+03  0.00000000000E+00 0. -1.
          1   -1    0    0  501    0 -0.00000000000E+00 -0.00000000000E+00 -0.49731261815E+03  0.49731261815E+03  0.00000000000E+00 0. -1.
         25    2    1    2    0    0  0.39512100581E+02 -0.16400433999E+02 -0.20571731116E+03  0.24448221399E+03  0.12498704140E+03 0.  0.
          2    1    1    2  501    0 -0.21087844684E+02 -0.48169608655E+01 -0.27114675294E+03  0.27200820197E+03  0.00000000000E+00 0. -1.
          1    1    1    2  502    0 -0.18424255897E+02  0.21217394864E+02  0.31005798274E+03  0.31132873897E+03  0.00000000000E+00 0. -1.
         22    1    3    3    0    0  0.49982782779E+02 -0.60906126847E+02 -0.87575375956E+02  0.11780187323E+03  0.00000000000E+00 0.  1.
         22    1    3    3    0    0 -0.10470682198E+02  0.44505692848E+02 -0.11814193520E+03  0.12668034076E+03  0.00000000000E+00 0.  1.
</event>
<event>
 7    1  0.6507405E-006  0.1297226E+03  0.7818608E-02  0.1417570E+00
          2   -1    0    0  502    0  0.00000000000E+00  0.00000000000E+00  0.10489212397E+04  0.10489212397E+04  0.00000000000E+00 0. -1.
          1   -1    0    0  501    0 -0.00000000000E+00 -0.00000000000E+00 -0.33610584541E+03  0.33610584541E+03  0.00000000000E+00 0. -1.
         25    2    1    2    0    0  0.42299000209E+02  0.10172526447E+03  0.74354822725E+02  0.18245740250E+03  0.12499931686E+03 0.  0.
          2    1    1    2  501    0 -0.26985419842E+01  0.23624068152E+02 -0.27684914489E+03  0.27786836407E+03  0.00000000000E+00 0. -1.
          1    1    1    2  502    0 -0.39600458225E+02 -0.12534933263E+03  0.91530971646E+03  0.92470131855E+03  0.00000000000E+00 0. -1.
         22    1    3    3    0    0  0.37842835170E+01  0.47404413839E+01  0.77811623744E+02  0.78047686551E+02  0.00000000000E+00 0. -1.
         22    1    3    3    0    0  0.38514716692E+02  0.96984823089E+02 -0.34568010199E+01  0.10440971595E+03  0.00000000000E+00 0. -1.
</event>
<event>
 7    1  0.6507405E-006  0.5888157E+02  0.7818608E-02  0.1419447E+00
          2   -1    0    0  502    0  0.00000000000E+00  0.00000000000E+00  0.78198464362E+03  0.78198464362E+03  0.00000000000E+00 0. -1.
          1   -1    0    0  501    0 -0.00000000000E+00 -0.00000000000E+00 -0.38570284933E+02  0.38570284933E+02  0.00000000000E+00 0. -1.
         25    2    1    2    0    0  0.57381168537E+01 -0.37526625205E+02  0.14034174930E+03  0.19172755382E+03  0.12498989845E+03 0.  0.
          2    1    1    2  501    0 -0.51886344023E+02  0.60684183713E+02  0.12733624010E+03  0.15029730833E+03  0.00000000000E+00 0. -1.
          1    1    1    2  502    0  0.46148227170E+02 -0.23157558509E+02  0.47573636929E+03  0.47853006640E+03  0.00000000000E+00 0. -1.
         22    1    3    3    0    0  0.23679031052E+01 -0.81078677199E+02  0.11651772388E+03  0.14197090843E+03  0.00000000000E+00 0. -1.
         22    1    3    3    0    0  0.33702137485E+01  0.43552051994E+02  0.23824025418E+02  0.49756645393E+02  0.00000000000E+00 0. -1.
</event>
<event>
 7    1  0.6507405E-006  0.1420141E+03  0.7818608E-02  0.1257424E+00
          2   -1    0    0  502    0  0.00000000000E+00  0.00000000000E+00  0.16715410022E+04  0.16715410022E+04  0.00000000000E+00 0. -1.
          1   -1    0    0  501    0 -0.00000000000E+00 -0.00000000000E+00 -0.39101731216E+03  0.39101731216E+03  0.00000000000E+00 0. -1.
         25    2    1    2    0    0  0.78861878784E+02  0.15340960896E+03 -0.21785430873E+02  0.21413405214E+03  0.12500033298E+03 0.  0.
          2    1    1    2  501    0  0.41056154670E+02 -0.77702874144E+02 -0.26269621227E+03  0.27700657831E+03  0.00000000000E+00 0. -1.
          1    1    1    2  502    0 -0.11991803345E+03 -0.75706734811E+02  0.15650053332E+04  0.15714176839E+04  0.00000000000E+00 0. -1.
         22    1    3    3    0    0  0.52769364921E+02  0.80117018640E+02  0.50083052525E+02  0.10822039873E+03  0.00000000000E+00 0. -1.
         22    1    3    3    0    0  0.26092513863E+02  0.73292590315E+02 -0.71868483398E+02  0.10591365342E+03  0.00000000000E+00 0. -1.
</event>
<event>
 7    1  0.6507405E-006  0.2813709E+02  0.7818608E-02  0.1635882E+00
          2   -1    0    0  502    0  0.00000000000E+00  0.00000000000E+00  0.12731936139E+04  0.12731936139E+04  0.00000000000E+00 0. -1.
          1   -1    0    0  501    0 -0.00000000000E+00 -0.00000000000E+00 -0.10980227314E+02  0.10980227314E+02  0.00000000000E+00 0. -1.
         25    2    1    2    0    0  0.72441340016E+01 -0.84571804896E+01  0.70888763422E+03  0.71991113658E+03  0.12500546083E+03 0.  0.
          2    1    1    2  501    0 -0.15869995713E+02 -0.20093833056E+02  0.27436636913E+02  0.37528494986E+02  0.00000000000E+00 0. -1.
          1    1    1    2  502    0  0.86258617110E+01  0.28551013545E+02  0.52588911548E+03  0.52673420968E+03  0.00000000000E+00 0. -1.
         22    1    3    3    0    0  0.13644589632E+02 -0.64699542453E+02  0.45575432673E+03  0.46052601658E+03  0.00000000000E+00 0. -1.
         22    1    3    3    0    0 -0.64004556309E+01  0.56242361964E+02  0.25313330749E+03  0.25938511999E+03  0.00000000000E+00 0. -1.
</event>
<event>
 7    1  0.6507405E-006  0.3851595E+02  0.7818608E-02  0.1566407E+00
          2   -1    0    0  502    0  0.00000000000E+00  0.00000000000E+00  0.27703484478E+04  0.27703484478E+04  0.00000000000E+00 0. -1.
          1   -1    0    0  501    0 -0.00000000000E+00 -0.00000000000E+00 -0.38647721321E+03  0.38647721321E+03  0.00000000000E+00 0. -1.
         25    2    1    2    0    0 -0.34585295599E+02  0.45524156451E+02  0.18753128909E+04  0.18803432711E+04  0.12499514789E+03 0.  0.
          2    1    1    2  501    0  0.26568187390E+02 -0.10033940916E+02 -0.38306533587E+03  0.38411664908E+03  0.00000000000E+00 0. -1.
          1    1    1    2  502    0  0.80171082089E+01 -0.35490215535E+02  0.89162367959E+03  0.89236574084E+03  0.00000000000E+00 0. -1.
         22    1    3    3    0    0 -0.13186951690E+02  0.60726433628E+02  0.40011343260E+03  0.40491030412E+03  0.00000000000E+00 0.  1.
         22    1    3    3    0    0 -0.21398343909E+02 -0.15202277177E+02  0.14751994583E+04  0.14754329670E+04  0.00000000000E+00 0.  1.
</event>
<event>
 7    1  0.6507405E-006  0.2810914E+03  0.7818608E-02  0.1228058E+00
          2   -1    0    0  502    0  0.00000000000E+00  0.00000000000E+00  0.11403724183E+04  0.11403724183E+04  0.00000000000E+00 0. -1.
          1   -1    0    0  501    0 -0.00000000000E+00 -0.00000000000E+00 -0.19687328217E+04  0.19687328217E+04  0.00000000000E+00 0. -1.
         25    2    1    2    0    0  0.24835793713E+03 -0.28747338430E+02 -0.13719055320E+03  0.31137566614E+03  0.12500193271E+03 0.  0.
          2    1    1    2  501    0  0.23064986806E+02 -0.55117280931E+02 -0.17247676808E+04  0.17258022659E+04  0.00000000000E+00 0. -1.
          1    1    1    2  502    0 -0.27142292393E+03  0.83864619361E+02  0.10335978307E+04  0.10719273080E+04  0.00000000000E+00 0. -1.
         22    1    3    3    0    0  0.15396273876E+03 -0.29718730711E+02 -0.14891708339E+03  0.21624991470E+03  0.00000000000E+00 0. -1.
         22    1    3    3    0    0  0.94395198364E+02  0.97139228078E+00  0.11726530197E+02  0.95125751443E+02  0.00000000000E+00 0. -1.
</event>
<event>
 7    1  0.6507405E-006  0.7574364E+02  0.7818608E-02  0.1498792E+00
          2   -1    0    0  502    0  0.00000000000E+00  0.00000000000E+00  0.17257032330E+03  0.17257032330E+03  0.00000000000E+00 0. -1.
          1   -1    0    0  501    0 -0.00000000000E+00 -0.00000000000E+00 -0.63492487550E+03  0.63492487550E+03  0.00000000000E+00 0. -1.
         25    2    1    2    0    0 -0.19920469871E+02  0.92541479888E+02 -0.32517713916E+03  0.36100929701E+03  0.12500716011E+03 0.  0.
          2    1    1    2  501    0 -0.57313693749E+01 -0.21788143699E+02 -0.28220006863E+03  0.28309795219E+03  0.00000000000E+00 0. -1.
          1    1    1    2  502    0  0.25651839246E+02 -0.70753336189E+02  0.14502265559E+03  0.16338794960E+03  0.00000000000E+00 0. -1.
         22    1    3    3    0    0 -0.17718684382E+02  0.12379842504E+03 -0.24906286872E+03  0.27869753209E+03  0.00000000000E+00 0. -1.
         22    1    3    3    0    0 -0.22017854896E+01 -0.31256945157E+02 -0.76114270443E+02  0.82311764924E+02  0.00000000000E+00 0. -1.
</event>
<event>
 7    1  0.1132681E-005  0.8270771E+02  0.7818608E-02  0.1346698E+00
          2   -1    0    0  502    0  0.00000000000E+00  0.00000000000E+00  0.18207494793E+04  0.18207494793E+04  0.00000000000E+00 0. -1.
          1   -1    0    0  501    0 -0.00000000000E+00 -0.00000000000E+00 -0.13357513052E+04  0.13357513052E+04  0.00000000000E+00 0. -1.
         25    2    1    2    0    0 -0.12081411213E+02 -0.15567628935E+02 -0.10931559670E+03  0.16722400106E+03  0.12500262110E+03 0.  0.
          2    1    1    2  501    0  0.54488384356E+02  0.66633330690E+02 -0.11953186403E+04  0.11984138003E+04  0.00000000000E+00 0. -1.
          1    1    1    2  502    0 -0.42406973144E+02 -0.51065701755E+02  0.17896324111E+04  0.17908629831E+04  0.00000000000E+00 0. -1.
         22    1    3    3    0    0 -0.24382887326E+02 -0.63712072016E+02 -0.92146187874E+02  0.11465022135E+03  0.00000000000E+00 0.  1.
         22    1    3    3    0    0  0.12301476113E+02  0.48144443082E+02 -0.17169408823E+02  0.52573779715E+02  0.00000000000E+00 0.  1.
</event>
<event>
 7    1  0.6507405E-006  0.1156234E+03  0.7818608E-02  0.1371546E+00
          2   -1    0    0  502    0  0.00000000000E+00  0.00000000000E+00  0.18857567069E+04  0.18857567069E+04  0.00000000000E+00 0. -1.
          1   -1    0    0  501    0 -0.00000000000E+00 -0.00000000000E+00 -0.34705204951E+02  0.34705204951E+02  0.00000000000E+00 0. -1.
         25    2    1    2    0    0  0.10678783018E+02 -0.87617446355E+02  0.46879038533E+03  0.49313294832E+03  0.12499930409E+03 0.  0.
          2    1    1    2  501    0  0.25603976227E+02 -0.28782497570E+02 -0.11652836887E+01  0.38540286079E+02  0.00000000000E+00 0. -1.
          1    1    1    2  502    0 -0.36282759246E+02  0.11639994392E+03  0.13834264003E+04  0.13887886774E+04  0.00000000000E+00 0. -1.
         22    1    3    3    0    0  0.49296154608E+02  0.41473208252E+01  0.10680110656E+03  0.11770211337E+03  0.00000000000E+00 0. -1.
         22    1    3    3    0    0 -0.38617371589E+02 -0.91764767180E+02  0.36198927877E+03  0.37543083495E+03  0.00000000000E+00 0. -1.
</event>
<event>
 7    1  0.6507405E-006  0.1482158E+03  0.7818608E-02  0.1239300E+00
          2   -1    0    0  502    0  0.00000000000E+00  0.00000000000E+00  0.12371795593E+03  0.12371795593E+03  0.00000000000E+00 0. -1.
          1   -1    0    0  501    0 -0.00000000000E+00 -0.00000000000E+00 -0.17873158318E+04  0.17873158318E+04  0.00000000000E+00 0. -1.
         25    2    1    2    0    0 -0.20112272332E+03  0.26012010340E+02 -0.99425123647E+03  0.10223919459E+04  0.12499118125E+03 0.  0.
          2    1    1    2  501    0  0.64059873554E+02 -0.78042398035E+02 -0.72487427255E+03  0.73187225272E+03  0.00000000000E+00 0. -1.
          1    1    1    2  502    0  0.13706284977E+03  0.52030387695E+02  0.55527633118E+02  0.15676958911E+03  0.00000000000E+00 0. -1.
         22    1    3    3    0    0 -0.21658392985E+03  0.24859884835E+02 -0.85806477362E+03  0.88532579781E+03  0.00000000000E+00 0.  1.
         22    1    3    3    0    0  0.15461206526E+02  0.11521255051E+01 -0.13618646285E+03  0.13706614814E+03  0.00000000000E+00 0.  1.
</event>
<event>
 7    1  0.6507405E-006  0.7114624E+02  0.7818608E-02  0.1358651E+00
          2   -1    0    0  502    0  0.00000000000E+00  0.00000000000E+00  0.14533603933E+04  0.14533603933E+04  0.00000000000E+00 0. -1.
          1   -1    0    0  501    0 -0.00000000000E+00 -0.00000000000E+00 -0.48806656783E+03  0.48806656783E+03  0.00000000000E+00 0. -1.
         25    2    1    2    0    0  0.60212190062E+02  0.15305558905E+02 -0.52564298031E+02  0.14915583767E+03  0.12499876207E+03 0.  0.
          2    1    1    2  501    0 -0.43724438538E+02  0.54296037359E+02 -0.38314894068E+03  0.38943933666E+03  0.00000000000E+00 0. -1.
          1    1    1    2  502    0 -0.16487751524E+02 -0.69601596263E+02  0.14010070642E+04  0.14028317868E+04  0.00000000000E+00 0. -1.
         22    1    3    3    0    0 -0.35352760167E+02  0.11272273450E+02  0.51201246647E+01  0.37457942772E+02  0.00000000000E+00 0.  1.
         22    1    3    3    0    0  0.95564950229E+02  0.40332854550E+01 -0.57684422696E+02  0.11169789490E+03  0.00000000000E+00 0.  1.
</event>
<event>
 7    1  0.6507405E-006  0.1555756E+03  0.7818608E-02  0.1363997E+00
          2   -1    0    0  502    0  0.00000000000E+00  0.00000000000E+00  0.44504748229E+04  0.44504748229E+04  0.00000000000E+00 0. -1.
          1   -1    0    0  501    0 -0.00000000000E+00 -0.00000000000E+00 -0.16056802104E+03  0.16056802104E+03  0.00000000000E+00 0. -1.
         25    2    1    2    0    0  0.85717192378E+02 -0.12784885124E+03  0.22101477767E+03  0.29692797972E+03  0.12500370939E+03 0.  0.
          2    1    1    2  501    0  0.24640048781E+02  0.17945803293E+02 -0.11924673432E+03  0.12308114195E+03  0.00000000000E+00 0. -1.
          1    1    1    2  502    0 -0.11035724116E+03  0.10990304795E+03  0.41881387585E+04  0.41910337223E+04  0.00000000000E+00 0. -1.
         22    1    3    3    0    0 -0.29718483388E+02 -0.50392578151E+02  0.53848682187E+02  0.79512771055E+02  0.00000000000E+00 0. -1.
         22    1    3    3    0    0  0.11543567577E+03 -0.77456273091E+02  0.16716609548E+03  0.21741520867E+03  0.00000000000E+00 0. -1.
</event>
<event>
 7    1  0.6507405E-006  0.9177186E+02  0.7818608E-02  0.1310330E+00
          2   -1    0    0  502    0  0.00000000000E+00  0.00000000000E+00  0.51469967361E+03  0.51469967361E+03  0.00000000000E+00 0. -1.
          1   -1    0    0  501    0 -0.00000000000E+00 -0.00000000000E+00 -0.79236600587E+03  0.79236600587E+03  0.00000000000E+00 0. -1.
         25    2    1    2    0    0 -0.19934787262E+02  0.95297339544E+02  0.13699098664E+02  0.15907096105E+03  0.12504769762E+03 0.  0.
          2    1    1    2  501    0 -0.63542152268E+02 -0.52525750407E+02 -0.71213824507E+03  0.71689430160E+03  0.00000000000E+00 0. -1.
          1    1    1    2  502    0  0.83476939530E+02 -0.42771589137E+02  0.42077281415E+03  0.43110041684E+03  0.00000000000E+00 0. -1.
         22    1    3    3    0    0 -0.92006986879E+01 -0.21345561541E+02 -0.26481125993E+02  0.35235435114E+02  0.00000000000E+00 0. -1.
         22    1    3    3    0    0 -0.10734088574E+02  0.11664290109E+03  0.40180224657E+02  0.12383552594E+03  0.00000000000E+00 0. -1.
</event>
<event>
 7    1  0.6507405E-006  0.6385781E+02  0.7818608E-02  0.1383635E+00
          2   -1    0    0  502    0  0.00000000000E+00  0.00000000000E+00  0.65482649025E+03  0.65482649025E+03  0.00000000000E+00 0. -1.
          1   -1    0    0  501    0 -0.00000000000E+00 -0.00000000000E+00 -0.54004524205E+03  0.54004524205E+03  0.00000000000E+00 0. -1.
         25    2    1    2    0    0  0.98019641672E+02  0.19182370638E+02 -0.23861454136E+03  0.28728592156E+03  0.12498195023E+03 0.  0.
          2    1    1    2  501    0 -0.41121357520E+02 -0.47966030866E+02 -0.27185090556E+03  0.27909607847E+03  0.00000000000E+00 0. -1.
          1    1    1    2  502    0 -0.56898284152E+02  0.28783660228E+02  0.62524669511E+03  0.62848973228E+03  0.00000000000E+00 0. -1.
         22    1    3    3    0    0  0.40789629110E+02 -0.30778388417E+02 -0.18358936855E+02  0.54296902296E+02  0.00000000000E+00 0.  1.
         22    1    3    3    0    0  0.57230012562E+02  0.49960759055E+02 -0.22025560450E+03  0.23298901926E+03  0.00000000000E+00 0.  1.
</event>
<event>
 7    1  0.6507405E-006  0.4038222E+02  0.7818608E-02  0.1578215E+00
          2   -1    0    0  502    0  0.00000000000E+00  0.00000000000E+00  0.14661828362E+04  0.14661828362E+04  0.00000000000E+00 0. -1.
          1   -1    0    0  501    0 -0.00000000000E+00 -0.00000000000E+00 -0.26746484284E+03  0.26746484284E+03  0.00000000000E+00 0. -1.
         25    2    1    2    0    0 -0.27770410378E+02 -0.48073303837E+02  0.20326579776E+02  0.13828103326E+03  0.12500494422E+03 0.  0.
          2    1    1    2  501    0  0.23882219609E+02  0.79295676852E+01 -0.20743384232E+03  0.20895463000E+03  0.00000000000E+00 0. -1.
          1    1    1    2  502    0  0.38881907692E+01  0.40143736152E+02  0.13858252559E+04  0.13864120158E+04  0.00000000000E+00 0. -1.
         22    1    3    3    0    0  0.22866267715E+02  0.19213696250E+02  0.41800745326E+02  0.51374455059E+02  0.00000000000E+00 0.  1.
         22    1    3    3    0    0 -0.50636678094E+02 -0.67287000088E+02 -0.21474165549E+02  0.86906578204E+02  0.00000000000E+00 0.  1.
</event>
<event>
 7    1  0.6507405E-006  0.5438694E+02  0.7818608E-02  0.1478954E+00
          2   -1    0    0  502    0  0.00000000000E+00  0.00000000000E+00  0.13160213212E+04  0.13160213212E+04  0.00000000000E+00 0. -1.
          1   -1    0    0  501    0 -0.00000000000E+00 -0.00000000000E+00 -0.55122652397E+03  0.55122652397E+03  0.00000000000E+00 0. -1.
         25    2    1    2    0    0  0.19911804576E+02  0.48519501602E+02  0.65848109782E+03  0.67228942483E+03  0.12500037022E+03 0.  0.
          2    1    1    2  501    0 -0.47898585751E+02 -0.25821306213E+02 -0.54246118723E+03  0.54518359662E+03  0.00000000000E+00 0. -1.
          1    1    1    2  502    0  0.27986781175E+02 -0.22698195390E+02  0.64877488662E+03  0.64977482369E+03  0.00000000000E+00 0. -1.
         22    1    3    3    0    0  0.11996021903E+01 -0.29477033508E+02  0.46463148358E+02  0.55037793426E+02  0.00000000000E+00 0. -1.
         22    1    3    3    0    0  0.18712202386E+02  0.77996535111E+02  0.61201794946E+03  0.61725163141E+03  0.00000000000E+00 0. -1.
</event>
<event>
 7    1  0.6507405E-006  0.9292028E+02  0.7818608E-02  0.1333086E+00
          2   -1    0    0  502    0  0.00000000000E+00  0.00000000000E+00  0.34846686730E+03  0.34846686730E+03  0.00000000000E+00 0. -1.
          1   -1    0    0  501    0 -0.00000000000E+00 -0.00000000000E+00 -0.17280526555E+04  0.17280526555E+04  0.00000000000E+00 0. -1.
         25    2    1    2    0    0  0.19524776505E+02 -0.62779191500E+02 -0.96131671765E+02  0.17084634686E+03  0.12499892854E+03 0.  0.
          2    1    1    2  501    0  0.43449155217E+02  0.84078868925E+02 -0.15895887265E+04  0.15924036564E+04  0.00000000000E+00 0. -1.
          1    1    1    2  502    0 -0.62973931721E+02 -0.21299677425E+02  0.30613461015E+03  0.31326951953E+03  0.00000000000E+00 0. -1.
         22    1    3    3    0    0  0.46080311667E+02 -0.84267601147E+02 -0.37732843093E+02  0.10319007304E+03  0.00000000000E+00 0.  1.
         22    1    3    3    0    0 -0.26555535162E+02  0.21488409647E+02 -0.58398828672E+02  0.67656273820E+02  0.00000000000E+00 0.  1.
</event>
<event>
 7    1  0.6507405E-006  0.7056422E+02  0.7818608E-02  0.1417055E+00
          2   -1    0    0  502    0  0.00000000000E+00  0.00000000000E+00  0.25637927914E+04  0.25637927914E+04  0.00000000000E+00 0. -1.
          1   -1    0    0  501    0 -0.00000000000E+00 -0.00000000000E+00 -0.11531758217E+03  0.11531758217E+03  0.00000000000E+00 0. -1.
         25    2    1    2    0    0 -0.69220294267E+01  0.68168559890E+02  0.81225132675E+02  0.16406018351E+03  0.12499341817E+03 0.  0.
          2    1    1    2  501    0  0.48461484680E+02 -0.54009779042E+02 -0.55840184561E+02  0.91562535686E+02  0.00000000000E+00 0. -1.
          1    1    1    2  502    0 -0.41539455253E+02 -0.14158780848E+02  0.24230902611E+04  0.24234876544E+04  0.00000000000E+00 0. -1.
         22    1    3    3    0    0  0.18470904595E+02  0.10002239972E+03  0.55313598043E+02  0.11578103856E+03  0.00000000000E+00 0. -1.
         22    1    3    3    0    0 -0.25392934022E+02 -0.31853839826E+02  0.25911534632E+02  0.48279144948E+02  0.00000000000E+00 0. -1.
</event>
<event>
 7    1  0.6507405E-006  0.7846923E+02  0.7818608E-02  0.1411330E+00
          2   -1    0    0  502    0  0.00000000000E+00  0.00000000000E+00  0.25273253545E+03  0.25273253545E+03  0.00000000000E+00 0. -1.
          1   -1    0    0  501    0 -0.00000000000E+00 -0.00000000000E+00 -0.51224037360E+03  0.51224037360E+03  0.00000000000E+00 0. -1.
         25    2    1    2    0    0  0.90086243270E+02  0.83247779172E+01  0.44742129358E+01  0.15436672901E+03  0.12499694112E+03 0.  0.
          2    1    1    2  501    0 -0.72747712517E+02  0.29112062361E+02 -0.43125743857E+03  0.43831805824E+03  0.00000000000E+00 0. -1.
          1    1    1    2  502    0 -0.17338530752E+02 -0.37436840278E+02  0.16727538749E+03  0.17228812181E+03  0.00000000000E+00 0. -1.
         22    1    3    3    0    0  0.90400078071E+01  0.16063423791E+02  0.55366553175E+02  0.58354181817E+02  0.00000000000E+00 0. -1.
         22    1    3    3    0    0  0.81046235463E+02 -0.77386458740E+01 -0.50892340239E+02  0.96012547188E+02  0.00000000000E+00 0. -1.
</event>
<event>
 7    1  0.6507405E-006  0.1066191E+03  0.7818608E-02  0.1285291E+00
          2   -1    0    0  502    0  0.00000000000E+00  0.00000000000E+00  0.10557437078E+04  0.10557437078E+04  0.00000000000E+00 0. -1.
          1   -1    0    0  501    0 -0.00000000000E+00 -0.00000000000E+00 -0.15118633532E+03  0.15118633532E+03  0.00000000000E+00 0. -1.
         25    2    1    2    0    0  0.74087475028E+02 -0.98534911654E+02  0.14732277389E+03  0.22918980767E+03  0.12500354179E+03 0.  0.
          2    1    1    2  501    0 -0.10762701999E+03  0.15602768044E+02 -0.80461270207E+02  0.13528132837E+03  0.00000000000E+00 0. -1.
          1    1    1    2  502    0  0.33539544961E+02  0.82932143611E+02  0.83769586881E+03  0.84245890709E+03  0.00000000000E+00 0. -1.
         22    1    3    3    0    0  0.16295763650E+02  0.27381207249E+02  0.52118005479E+02  0.61086569051E+02  0.00000000000E+00 0. -1.
         22    1    3    3    0    0  0.57791711378E+02 -0.12591611890E+03  0.95204768415E+02  0.16810323861E+03  0.00000000000E+00 0. -1.
</event>
<event>
 7    1  0.6507405E-006  0.5302971E+02  0.7818608E-02  0.1447309E+00
          2   -1    0    0  502    0  0.00000000000E+00  0.00000000000E+00  0.21722859414E+04  0.21722859414E+04  0.00000000000E+00 0. -1.
          1   -1    0    0  501    0 -0.00000000000E+00 -0.00000000000E+00 -0.30289702960E+02  0.30289702960E+02  0.00000000000E+00 0. -1.
         25    2    1    2    0    0 -0.67476807081E+02 -0.58338503578E+02  0.35245080097E+03  0.38445243827E+03  0.12500243875E+03 0.  0.
          2    1    1    2  501    0  0.17422461600E+02  0.43071053358E+02  0.24921014698E+02  0.52723000476E+02  0.00000000000E+00 0. -1.
          1    1    1    2  502    0  0.50054345481E+02  0.15267450220E+02  0.17646244228E+04  0.17654002056E+04  0.00000000000E+00 0. -1.
         22    1    3    3    0    0  0.28734983778E+02 -0.27103127356E+00  0.24434625427E+02  0.37720334972E+02  0.00000000000E+00 0.  1.
         22    1    3    3    0    0 -0.96211790859E+02 -0.58067472304E+02  0.32801617555E+03  0.34673210330E+03  0.00000000000E+00 0.  1.
</event>
<event>
 7    1  0.6507405E-006  0.1195839E+03  0.7818608E-02  0.1388685E+00
          2   -1    0    0  502    0  0.00000000000E+00  0.00000000000E+00  0.18886786280E+04  0.18886786280E+04  0.00000000000E+00 0. -1.
          1   -1    0    0  501    0 -0.00000000000E+00 -0.00000000000E+00 -0.17138102135E+03  0.17138102135E+03  0.00000000000E+00 0. -1.
         25    2    1    2    0    0 -0.77940970869E+02  0.46624299617E+02  0.98631039090E+01  0.15482419852E+03  0.12499852549E+03 0.  0.
          2    1    1    2  501    0 -0.32345149602E+02  0.16804385746E+01 -0.94184408754E+02  0.99597868596E+02  0.00000000000E+00 0. -1.
          1    1    1    2  502    0  0.11028612047E+03 -0.48304738191E+02  0.18016189115E+04  0.18056375822E+04  0.00000000000E+00 0. -1.
         22    1    3    3    0    0 -0.85527027252E+02  0.48312942913E+02 -0.38748154226E+02  0.10559560739E+03  0.00000000000E+00 0. -1.
         22    1    3    3    0    0  0.75860563824E+01 -0.16886432958E+01  0.48611258135E+02  0.49228591135E+02  0.00000000000E+00 0. -1.
</event>
<event>
 7    1  0.6507405E-006  0.2145701E+03  0.7818608E-02  0.1370917E+00
          2   -1    0    0  502    0  0.00000000000E+00  0.00000000000E+00  0.92320052134E+03  0.92320052134E+03  0.00000000000E+00 0. -1.
          1   -1    0    0  501    0 -0.00000000000E+00 -0.00000000000E+00 -0.10784340799E+03  0.10784340799E+03  0.00000000000E+00 0. -1.
         25    2    1    2    0    0 -0.15032206584E+03 -0.13317443361E+03  0.31061055589E+03  0.39043117105E+03  0.12500171460E+03 0.  0.
          2    1    1    2  501    0  0.16627026043E+03  0.14663061755E+03  0.11395235457E+03  0.24926186354E+03  0.00000000000E+00 0. -1.
          1    1    1    2  502    0 -0.15948194591E+02 -0.13456183937E+02  0.39079420289E+03  0.39135089473E+03  0.00000000000E+00 0. -1.
         22    1    3    3    0    0 -0.45213669086E+01  0.19014604488E+02  0.59327082709E+02  0.62463594880E+02  0.00000000000E+00 0. -1.
         22    1    3    3    0    0 -0.14580069893E+03 -0.15218903810E+03  0.25128347318E+03  0.32796757617E+03  0.00000000000E+00 0. -1.
</event>
<event>
 7    1  0.6507405E-006  0.6166621E+02  0.7818608E-02  0.1410374E+00
          2   -1    0    0  502    0  0.00000000000E+00  0.00000000000E+00  0.22755661609E+04  0.22755661609E+04  0.00000000000E+00 0. -1.
          1   -1    0    0  501    0 -0.00000000000E+00 -0.00000000000E+00 -0.14382812183E+02  0.14382812183E+02  0.00000000000E+00 0. -1.
         25    2    1    2    0    0 -0.52169566726E+02 -0.55648379414E+02  0.62960456908E+03  0.64640955173E+03  0.12499995736E+03 0.  0.
          2    1    1    2  501    0  0.52505447342E+02 -0.63757772847E+01  0.12557776186E+03  0.13626168504E+03  0.00000000000E+00 0. -1.
          1    1    1    2  502    0 -0.33588061549E+00  0.62024156699E+02  0.15060010178E+04  0.15072777363E+04  0.00000000000E+00 0. -1.
         22    1    3    3    0    0  0.16944074516E+02 -0.31276270539E+02  0.45640826080E+02  0.57865289814E+02  0.00000000000E+00 0.  1.
         22    1    3    3    0    0 -0.69113641243E+02 -0.24372108875E+02  0.58396374300E+03  0.58854426192E+03  0.00000000000E+00 0.  1.
</event>
<event>
 7    1  0.6507405E-006  0.5526428E+02  0.7818608E-02  0.1519320E+00
          2   -1    0    0  502    0  0.00000000000E+00  0.00000000000E+00  0.95427654401E+03  0.95427654401E+03  0.00000000000E+00 0. -1.
          1   -1    0    0  501    0 -0.00000000000E+00 -0.00000000000E+00 -0.37918083290E+03  0.37918083290E+03  0.00000000000E+00 0. -1.
         25    2    1    2    0    0  0.61120233075E+01  0.63283449809E+02  0.64656818539E+02  0.15442801082E+03  0.12500141797E+03 0.  0.
          2    1    1    2  501    0 -0.27936253921E+02 -0.47621965610E+02 -0.33180000920E+03  0.33636220358E+03  0.00000000000E+00 0. -1.
          1    1    1    2  502    0  0.21824230613E+02 -0.15661484199E+02  0.84223890176E+03  0.84266716251E+03  0.00000000000E+00 0. -1.
         22    1    3    3    0    0  0.34922796124E+02 -0.17411280286E+02 -0.10546521523E+02  0.40422561603E+02  0.00000000000E+00 0.  1.
         22    1    3    3    0    0 -0.28810772816E+02  0.80694730094E+02  0.75203340062E+02  0.11400544922E+03  0.00000000000E+00 0.  1.
</event>
<event>
 7    1  0.6507405E-006  0.1175680E+03  0.7818608E-02  0.1393832E+00
          2   -1    0    0  502    0  0.00000000000E+00  0.00000000000E+00  0.18909008673E+04  0.18909008673E+04  0.00000000000E+00 0. -1.
          1   -1    0    0  501    0 -0.00000000000E+00 -0.00000000000E+00 -0.20553480213E+02  0.20553480213E+02  0.00000000000E+00 0. -1.
         25    2    1    2    0    0  0.98476460032E+02 -0.49212919959E+02  0.60520832038E+03  0.62771566508E+03  0.12502128004E+03 0.  0.
          2    1    1    2  501    0 -0.12114101429E+03  0.27175820749E+02  0.41893042988E+03  0.43693978493E+03  0.00000000000E+00 0. -1.
          1    1    1    2  502    0  0.22664554255E+02  0.22037099210E+02  0.84620863679E+03  0.84679889746E+03  0.00000000000E+00 0. -1.
         22    1    3    3    0    0  0.23107109250E+02  0.34098038577E+02  0.73372153971E+02  0.84143257074E+02  0.00000000000E+00 0. -1.
         22    1    3    3    0    0  0.75369350781E+02 -0.83310958536E+02  0.53183616641E+03  0.54357240801E+03  0.00000000000E+00 0. -1.
</event>
<event>
 7    1  0.6507405E-006  0.7191815E+02  0.7818608E-02  0.1474920E+00
          2   -1    0    0  502    0  0.00000000000E+00  0.00000000000E+00  0.21549542612E+03  0.21549542612E+03  0.00000000000E+00 0. -1.
          1   -1    0    0  501    0 -0.00000000000E+00 -0.00000000000E+00 -0.18880435948E+04  0.18880435948E+04  0.00000000000E+00 0. -1.
         25    2    1    2    0    0 -0.43112526525E+02  0.71311166333E+02 -0.52133494533E+03  0.54254888032E+03  0.12500075971E+03 0.  0.
          2    1    1    2  501    0 -0.12065384116E+02 -0.25312941635E+02 -0.13496549233E+04  0.13499461954E+04  0.00000000000E+00 0. -1.
          1    1    1    2  502    0  0.55177910640E+02 -0.45998224698E+02  0.19844169998E+03  0.21104394516E+03  0.00000000000E+00 0. -1.
         22    1    3    3    0    0 -0.31665036234E+02  0.15845914158E+02 -0.45034945526E+03  0.45173930465E+03  0.00000000000E+00 0.  1.
         22    1    3    3    0    0 -0.11447490290E+02  0.55465252174E+02 -0.70985490072E+02  0.90809575671E+02  0.00000000000E+00 0.  1.
</event>
<event>
 7    1  0.6507405E-006  0.5955745E+02  0.7818608E-02  0.1514489E+00
          2   -1    0    0  502    0  0.00000000000E+00  0.00000000000E+00  0.28260537047E+04  0.28260537047E+04  0.00000000000E+00 0. -1.
          1   -1    0    0  501    0 -0.00000000000E+00 -0.00000000000E+00 -0.38128449696E+04  0.38128449696E+04  0.00000000000E+00 0. -1.
         25    2    1    2    0    0  0.27688365953E+02  0.67839102052E+02  0.15089850333E+04  0.15159249122E+04  0.12499487694E+03 0.  0.
          2    1    1    2  501    0 -0.39220343053E+02 -0.44818256935E+02 -0.38090160552E+04  0.38094816209E+04  0.00000000000E+00 0. -1.
          1    1    1    2  502    0  0.11531977101E+02 -0.23020845117E+02  0.13132397570E+04  0.13134921412E+04  0.00000000000E+00 0. -1.
         22    1    3    3    0    0 -0.34512231849E+02 -0.17475893150E+02  0.34542841009E+03  0.34758781262E+03  0.00000000000E+00 0.  1.
         22    1    3    3    0    0  0.62200597802E+02  0.85314995202E+02  0.11635566232E+04  0.11683370996E+04  0.00000000000E+00 0.  1.
</event>
<event>
 7    1  0.6507405E-006  0.7250835E+02  0.7818608E-02  0.1435987E+00
          2   -1    0    0  502    0  0.00000000000E+00  0.00000000000E+00  0.77017043518E+02  0.77017043518E+02  0.00000000000E+00 0. -1.
          1   -1    0    0  501    0 -0.00000000000E+00 -0.00000000000E+00 -0.48530938042E+03  0.48530938042E+03  0.00000000000E+00 0. -1.
         25    2    1    2    0    0 -0.80406409553E+02  0.51000221756E+02 -0.84967562703E+02  0.17863450976E+03  0.12499835219E+03 0.  0.
          2    1    1    2  501    0  0.36971764617E+02 -0.28702215185E+00 -0.31412091286E+03  0.31628933219E+03  0.00000000000E+00 0. -1.
          1    1    1    2  502    0  0.43434644936E+02 -0.50713199604E+02 -0.92038613394E+01  0.67402581986E+02  0.00000000000E+00 0. -1.
         22    1    3    3    0    0 -0.83657497510E+02  0.11465859204E+02  0.46607770289E+00  0.84440867152E+02  0.00000000000E+00 0.  1.
         22    1    3    3    0    0  0.32510879576E+01  0.39534362552E+02 -0.85433640406E+02  0.94193642611E+02  0.00000000000E+00 0.  1.
</event>
<event>
 7    1  0.6507405E-006  0.6599038E+02  0.7818608E-02  0.1463567E+00
          2   -1    0    0  502    0  0.00000000000E+00  0.00000000000E+00  0.17528970590E+04  0.17528970590E+04  0.00000000000E+00 0. -1.
          1   -1    0    0  501    0 -0.00000000000E+00 -0.00000000000E+00 -0.57887123413E+02  0.57887123413E+02  0.00000000000E+00 0. -1.
         25    2    1    2    0    0 -0.12754228757E+02  0.55081775317E+02  0.46338641125E+03  0.48327035298E+03  0.12500638231E+03 0.  0.
          2    1    1    2  501    0 -0.19175722793E+02 -0.63999718403E+02 -0.24344868898E+02  0.71107980859E+02  0.00000000000E+00 0. -1.
          1    1    1    2  502    0  0.31929951550E+02  0.89179430853E+01  0.12559683932E+04  0.12564058485E+04  0.00000000000E+00 0. -1.
         22    1    3    3    0    0 -0.44616352129E+02 -0.22182789946E+02  0.23097933570E+03  0.23629250637E+03  0.00000000000E+00 0. -1.
         22    1    3    3    0    0  0.31862123372E+02  0.77264565264E+02  0.23240707555E+03  0.24697784661E+03  0.00000000000E+00 0. -1.
</event>
<event>
 7    1  0.6507405E-006  0.4241635E+02  0.7818608E-02  0.1544408E+00
          2   -1    0    0  502    0  0.00000000000E+00  0.00000000000E+00  0.91953954735E+03  0.91953954735E+03  0.00000000000E+00 0. -1.
          1   -1    0    0  501    0 -0.00000000000E+00 -0.00000000000E+00 -0.76525899161E+02  0.76525899161E+02  0.00000000000E+00 0. -1.
         25    2    1    2    0    0 -0.21774295737E+02  0.72017668986E+01  0.65656764965E+02  0.14304026287E+03  0.12499488236E+03 0.  0.
          2    1    1    2  501    0  0.27372416073E+02 -0.36341348244E+02 -0.23781733452E+02  0.51337253528E+02  0.00000000000E+00 0. -1.
          1    1    1    2  502    0 -0.55981203363E+01  0.29139581345E+02  0.80113861668E+03  0.80168793011E+03  0.00000000000E+00 0. -1.
         22    1    3    3    0    0 -0.37964102243E+02 -0.45921425808E+02  0.34960598779E+01  0.59684778981E+02  0.00000000000E+00 0.  1.
         22    1    3    3    0    0  0.16189806506E+02  0.53123192707E+02  0.62160705087E+02  0.83355483893E+02  0.00000000000E+00 0.  1.
</event>
<event>
 7    1  0.6507405E-006  0.1091721E+03  0.7818608E-02  0.1330982E+00
          2   -1    0    0  502    0  0.00000000000E+00  0.00000000000E+00  0.19347398473E+04  0.19347398473E+04  0.00000000000E+00 0. -1.
          1   -1    0    0  501    0 -0.00000000000E+00 -0.00000000000E+00 -0.30772193021E+03  0.30772193021E+03  0.00000000000E+00 0. -1.
         25    2    1    2    0    0 -0.99445899595E+02  0.26522554042E+02 -0.10857992487E+03  0.19494978925E+03  0.12499154942E+03 0.  0.
          2    1    1    2  501    0  0.11337462696E+03  0.29404770484E+02 -0.13345929638E+03  0.17756641111E+03  0.00000000000E+00 0. -1.
          1    1    1    2  502    0 -0.13928727361E+02 -0.55927324526E+02  0.18690571383E+04  0.18699455771E+04  0.00000000000E+00 0. -1.
         22    1    3    3    0    0 -0.19781527817E+02 -0.38565706891E+02  0.26710339546E+01  0.43425303835E+02  0.00000000000E+00 0.  1.
         22    1    3    3    0    0 -0.79664371778E+02  0.65088260933E+02 -0.11125095883E+03  0.15152448542E+03  0.00000000000E+00 0.  1.
</event>
<event>
 7    1  0.6507405E-006  0.7430483E+02  0.7818608E-02  0.1386928E+00
          2   -1    0    0  502    0  0.00000000000E+00  0.00000000000E+00  0.65835282413E+03  0.65835282413E+03  0.00000000000E+00 0. -1.
          1   -1    0    0  501    0 -0.00000000000E+00 -0.00000000000E+00 -0.14066834960E+03  0.14066834960E+03  0.00000000000E+00 0. -1.
         25    2    1    2    0    0 -0.23874346477E+02  0.41109457428E+02  0.34040126526E+02  0.13799818911E+03  0.12499919230E+03 0.  0.
          2    1    1    2  501    0 -0.10057457817E+02 -0.81653290695E+02 -0.68070859737E+02  0.10678040216E+03  0.00000000000E+00 0. -1.
          1    1    1    2  502    0  0.33931804294E+02  0.40543833268E+02  0.55171520774E+03  0.55424258246E+03  0.00000000000E+00 0. -1.
         22    1    3    3    0    0  0.39048044493E+02  0.36647390210E+02  0.49637326579E+02  0.73018115409E+02  0.00000000000E+00 0. -1.
         22    1    3    3    0    0 -0.62922390969E+02  0.44620672176E+01 -0.15597200053E+02  0.64980073705E+02  0.00000000000E+00 0. -1.
</event>
<event>
 7    1  0.6507405E-006  0.5561905E+02  0.7818608E-02  0.1513651E+00
          2   -1    0    0  502    0  0.00000000000E+00  0.00000000000E+00  0.53884599147E+02  0.53884599147E+02  0.00000000000E+00 0. -1.
          1   -1    0    0  501    0 -0.00000000000E+00 -0.00000000000E+00 -0.27333049441E+04  0.27333049441E+04  0.00000000000E+00 0. -1.
         25    2    1    2    0    0 -0.61965156590E+02  0.34934275760E+02 -0.40897816251E+03  0.43352987872E+03  0.12499973633E+03 0.  0.
          2    1    1    2  501    0  0.54715630341E+02 -0.81716844714E+01 -0.23070630363E+04  0.23077262468E+04  0.00000000000E+00 0. -1.
          1    1    1    2  502    0  0.72495262499E+01 -0.26762591289E+02  0.36620853886E+02  0.45933417711E+02  0.00000000000E+00 0. -1.
         22    1    3    3    0    0 -0.32341520978E+02 -0.35208177087E+02 -0.27756252553E+03  0.28164968541E+03  0.00000000000E+00 0.  1.
         22    1    3    3    0    0 -0.29623635612E+02  0.70142452847E+02 -0.13141563698E+03  0.15188019331E+03  0.00000000000E+00 0.  1.
</event>
<event>
 7    1  0.6507405E-006  0.1335603E+03  0.7818608E-02  0.1292829E+00
          2   -1    0    0  502    0  0.00000000000E+00  0.00000000000E+00  0.21627713900E+04  0.21627713900E+04  0.00000000000E+00 0. -1.
          1   -1    0    0  501    0 -0.00000000000E+00 -0.00000000000E+00 -0.12367207519E+03  0.12367207519E+03  0.00000000000E+00 0. -1.
         25    2    1    2    0    0  0.16456741576E+02  0.94896075545E+02  0.75769513689E+03  0.77395232939E+03  0.12499679274E+03 0.  0.
          2    1    1    2  501    0 -0.30579549068E+02  0.59094375845E+02 -0.10128298225E+03  0.12118373063E+03  0.00000000000E+00 0. -1.
          1    1    1    2  502    0  0.14122807492E+02 -0.15399045139E+03  0.13826871601E+04  0.13913074051E+04  0.00000000000E+00 0. -1.
         22    1    3    3    0    0 -0.22530995651E+02  0.22843558829E+02  0.38548523602E+02  0.50154387813E+02  0.00000000000E+00 0. -1.
         22    1    3    3    0    0  0.38987737226E+02  0.72052516716E+02  0.71914661329E+03  0.72379794157E+03  0.00000000000E+00 0. -1.
</event>
<event>
 7    1  0.6507405E-006  0.1148407E+03  0.7818608E-02  0.1273596E+00
          2   -1    0    0  502    0  0.00000000000E+00  0.00000000000E+00  0.99491027486E+03  0.99491027486E+03  0.00000000000E+00 0. -1.
          1   -1    0    0  501    0 -0.00000000000E+00 -0.00000000000E+00 -0.13424909630E+04  0.13424909630E+04  0.00000000000E+00 0. -1.
         25    2    1    2    0    0  0.50055001243E+02  0.10406791897E+03  0.47248929790E+02  0.17659777283E+03  0.12497470582E+03 0.  0.
          2    1    1    2  501    0  0.42719337717E+02 -0.10750521713E+03 -0.12727457800E+04  0.12779922277E+04  0.00000000000E+00 0. -1.
          1    1    1    2  502    0 -0.92774338959E+02  0.34372981574E+01  0.87791616212E+03  0.88281123729E+03  0.00000000000E+00 0. -1.
         22    1    3    3    0    0  0.34570608778E+02  0.80230417335E+02  0.89891442755E+02  0.12534958451E+03  0.00000000000E+00 0.  1.
         22    1    3    3    0    0  0.15484392465E+02  0.23837501637E+02 -0.42642512965E+02  0.51248188321E+02  0.00000000000E+00 0.  1.
</event>
<event>
 7    1  0.6507405E-006  0.1285474E+03  0.7818608E-02  0.1363063E+00
          2   -1    0    0  502    0  0.00000000000E+00  0.00000000000E+00  0.15708160808E+04  0.15708160808E+04  0.00000000000E+00 0. -1.
          1   -1    0    0  501    0 -0.00000000000E+00 -0.00000000000E+00 -0.73175687922E+02  0.73175687922E+02  0.00000000000E+00 0. -1.
         25    2    1    2    0    0 -0.29409744225E+02 -0.92952073565E+02  0.56776621648E+03  0.58948152337E+03  0.12499987513E+03 0.  0.
          2    1    1    2  501    0  0.53854024129E+02  0.12096815580E+03  0.88219494374E+01  0.13270786497E+03  0.00000000000E+00 0. -1.
          1    1    1    2  502    0 -0.24444279904E+02 -0.28016082239E+02  0.92105222698E+03  0.92180238040E+03  0.00000000000E+00 0. -1.
         22    1    3    3    0    0 -0.52272500915E+02  0.97481760290E+01  0.17922162688E+03  0.18694339472E+03  0.00000000000E+00 0. -1.
         22    1    3    3    0    0  0.22862756690E+02 -0.10270024959E+03  0.38854458960E+03  0.40253812865E+03  0.00000000000E+00 0. -1.
</event>
<event>
 7    1  0.6507405E-006  0.1291918E+03  0.7818608E-02  0.1340228E+00
          2   -1    0    0  502    0  0.00000000000E+00  0.00000000000E+00  0.31789434503E+04  0.31789434503E+04  0.00000000000E+00 0. -1.
          1   -1    0    0  501    0 -0.00000000000E+00 -0.00000000000E+00 -0.25457348522E+03  0.25457348522E+03  0.00000000000E+00 0. -1.
         25    2    1    2    0    0 -0.63472468401E+02  0.73180724635E+02 -0.45008639904E+01  0.15820136722E+03  0.12499296824E+03 0.  0.
          2    1    1    2  501    0  0.80839960889E+01  0.44198332405E+02 -0.16892677689E+03  0.17480017028E+03  0.00000000000E+00 0. -1.
          1    1    1    2  502    0  0.55388472312E+02 -0.11737905704E+03  0.30977976060E+04  0.31005153980E+04  0.00000000000E+00 0. -1.
         22    1    3    3    0    0  0.28658600731E+02  0.46436537654E+02 -0.25126314071E+02  0.60074945559E+02  0.00000000000E+00 0.  1.
         22    1    3    3    0    0 -0.92131069131E+02  0.26744186981E+02  0.20625450081E+02  0.98126421659E+02  0.00000000000E+00 0.  1.
</event>
<event>
 7    1  0.6507405E-006  0.4003610E+02  0.7818608E-02  0.1561394E+00
          2   -1    0    0  502    0  0.00000000000E+00  0.00000000000E+00  0.16304236716E+04  0.16304236716E+04  0.00000000000E+00 0. -1.
          1   -1    0    0  501    0 -0.00000000000E+00 -0.00000000000E+00 -0.18389641100E+04  0.18389641100E+04  0.00000000000E+00 0. -1.
         25    2    1    2    0    0  0.15669680297E+02  0.16256003911E+00 -0.96768184771E+03  0.97584735768E+03  0.12499736716E+03 0.  0.
          2    1    1    2  501    0 -0.42213158104E+02 -0.96820996583E+01 -0.86653642310E+03  0.86761804173E+03  0.00000000000E+00 0. -1.
          1    1    1    2  502    0  0.26543477807E+02  0.95195396191E+01  0.16256778324E+04  0.16259223821E+04  0.00000000000E+00 0. -1.
         22    1    3    3    0    0 -0.28764032103E+02  0.12375918505E+02 -0.66665639962E+02  0.73653516231E+02  0.00000000000E+00 0.  1.
         22    1    3    3    0    0  0.44433712400E+02 -0.12213358465E+02 -0.90101620775E+03  0.90219384145E+03  0.00000000000E+00 0.  1.
</event>
<event>
 7    1  0.6507405E-006  0.1038247E+03  0.7818608E-02  0.1417283E+00
          2   -1    0    0  502    0  0.00000000000E+00  0.00000000000E+00  0.17218494821E+04  0.17218494821E+04  0.00000000000E+00 0. -1.
          1   -1    0    0  501    0 -0.00000000000E+00 -0.00000000000E+00 -0.24202046359E+03  0.24202046359E+03  0.00000000000E+00 0. -1.
         25    2    1    2    0    0 -0.27629226281E+02 -0.69047548297E+02 -0.18776765691E+03  0.23751030038E+03  0.12499404679E+03 0.  0.
          2    1    1    2  501    0 -0.83590296970E+01 -0.28577259853E+02 -0.19800672453E+02  0.35757513725E+02  0.00000000000E+00 0. -1.
          1    1    1    2  502    0  0.35988255978E+02  0.97624808150E+02  0.16873973479E+04  0.16906021316E+04  0.00000000000E+00 0. -1.
         22    1    3    3    0    0 -0.65287559951E+02 -0.56922008711E+01 -0.12310771719E+03  0.13946460722E+03  0.00000000000E+00 0. -1.
         22    1    3    3    0    0  0.37658333670E+02 -0.63355347426E+02 -0.64659939719E+02  0.98045693158E+02  0.00000000000E+00 0. -1.
</event>
<event>
 7    1  0.6507405E-006  0.8674062E+02  0.7818608E-02  0.1398503E+00
          2   -1    0    0  502    0  0.00000000000E+00  0.00000000000E+00  0.12056768868E+04  0.12056768868E+04  0.00000000000E+00 0. -1.
          1   -1    0    0  501    0 -0.00000000000E+00 -0.00000000000E+00 -0.70550616205E+03  0.70550616205E+03  0.00000000000E+00 0. -1.
         25    2    1    2    0    0  0.39980197751E+02  0.45578109742E+02  0.13821041690E+03  0.19596628774E+03  0.12499954515E+03 0.  0.
          2    1    1    2  501    0 -0.24382420730E+02 -0.83800569885E+02 -0.67340083132E+03  0.67903292820E+03  0.00000000000E+00 0. -1.
          1    1    1    2  502    0 -0.15597777022E+02  0.38222460142E+02  0.10353611392E+04  0.10361838329E+04  0.00000000000E+00 0. -1.
         22    1    3    3    0    0 -0.10732169830E+02 -0.31739756608E+02  0.50990305096E+01  0.33890879760E+02  0.00000000000E+00 0. -1.
         22    1    3    3    0    0  0.50712367582E+02  0.77317866350E+02  0.13311138639E+03  0.16207540798E+03  0.00000000000E+00 0. -1.
</event>
<event>
 7    1  0.6507405E-006  0.9979750E+02  0.7818608E-02  0.1404850E+00
          2   -1    0    0  502    0  0.00000000000E+00  0.00000000000E+00  0.17957132697E+04  0.17957132697E+04  0.00000000000E+00 0. -1.
          1   -1    0    0  501    0 -0.00000000000E+00 -0.00000000000E+00 -0.32586900024E+03  0.32586900024E+03  0.00000000000E+00 0. -1.
         25    2    1    2    0    0 -0.87783865701E+02  0.49154339782E+02  0.77589063136E+02  0.17823364401E+03  0.12500005177E+03 0.  0.
          2    1    1    2  501    0 -0.10742278029E+02 -0.32392196947E+02 -0.27298607008E+03  0.27511096928E+03  0.00000000000E+00 0. -1.
          1    1    1    2  502    0  0.98526143730E+02 -0.16762142836E+02  0.16652412764E+04  0.16682376566E+04  0.00000000000E+00 0. -1.
         22    1    3    3    0    0 -0.27314579225E+02 -0.42130811728E+02  0.32536625649E+02  0.59830790934E+02  0.00000000000E+00 0. -1.
         22    1    3    3    0    0 -0.60469286476E+02  0.91285151511E+02  0.45052437487E+02  0.11840285308E+03  0.00000000000E+00 0. -1.
</event>
<event>
 7    1  0.6507405E-006  0.9626004E+02  0.7818608E-02  0.1324831E+00
          2   -1    0    0  502    0  0.00000000000E+00  0.00000000000E+00  0.12107314454E+04  0.12107314454E+04  0.00000000000E+00 0. -1.
          1   -1    0    0  501    0 -0.00000000000E+00 -0.00000000000E+00 -0.27936938412E+03  0.27936938412E+03  0.00000000000E+00 0. -1.
         25    2    1    2    0    0 -0.68484412337E+02 -0.14661513680E+03  0.84320444197E+03  0.86764410089E+03  0.12500576703E+03 0.  0.
          2    1    1    2  501    0  0.26439619743E+02  0.91887347678E+02 -0.25504762336E+03  0.27238140233E+03  0.00000000000E+00 0. -1.
          1    1    1    2  502    0  0.42044792594E+02  0.54727789118E+02  0.34320524263E+03  0.35007532626E+03  0.00000000000E+00 0. -1.
         22    1    3    3    0    0  0.28888697995E+02 -0.71213113690E+02  0.24028147892E+03  0.25227178508E+03  0.00000000000E+00 0. -1.
         22    1    3    3    0    0 -0.97373110332E+02 -0.75402023106E+02  0.60292296305E+03  0.61537231582E+03  0.00000000000E+00 0. -1.
</event>
<event>
 7    1  0.6507405E-006  0.1930921E+03  0.7818608E-02  0.1173363E+00
          2   -1    0    0  502    0  0.00000000000E+00  0.00000000000E+00  0.16810604172E+04  0.16810604172E+04  0.00000000000E+00 0. -1.
          1   -1    0    0  501    0 -0.00000000000E+00 -0.00000000000E+00 -0.78563326601E+03  0.78563326601E+03  0.00000000000E+00 0. -1.
         25    2    1    2    0    0 -0.25590433864E+03  0.18856586793E+03 -0.33963251542E+03  0.48168496711E+03  0.12500417961E+03 0.  0.
          2    1    1    2  501    0  0.11975655458E+03 -0.10944715957E+03 -0.35334925232E+03  0.38881358929E+03  0.00000000000E+00 0. -1.
          1    1    1    2  502    0  0.13614778406E+03 -0.79118708361E+02  0.15884089189E+04  0.15961951268E+04  0.00000000000E+00 0. -1.
         22    1    3    3    0    0 -0.49754515689E+02  0.10666675516E+03 -0.14343902670E+03  0.18554800691E+03  0.00000000000E+00 0. -1.
         22    1    3    3    0    0 -0.20614982295E+03  0.81899112764E+02 -0.19619348872E+03  0.29613696019E+03  0.00000000000E+00 0. -1.
</event>
<event>
 7    1  0.6507405E-006  0.1152492E+03  0.7818608E-02  0.1331928E+00
          2   -1    0    0  502    0  0.00000000000E+00  0.00000000000E+00  0.31256994216E+03  0.31256994216E+03  0.00000000000E+00 0. -1.
          1   -1    0    0  501    0 -0.00000000000E+00 -0.00000000000E+00 -0.10006876086E+04  0.10006876086E+04  0.00000000000E+00 0. -1.
         25    2    1    2    0    0 -0.44861691880E+02 -0.69061620377E+02 -0.11389818812E+03  0.18808960959E+03  0.12499130038E+03 0.  0.
          2    1    1    2  501    0  0.25258028836E+02 -0.47893047065E+02 -0.83601496963E+03  0.83776651963E+03  0.00000000000E+00 0. -1.
          1    1    1    2  502    0  0.19603663044E+02  0.11695466744E+03  0.26179549131E+03  0.28740142155E+03  0.00000000000E+00 0. -1.
         22    1    3    3    0    0  0.30742158510E+02 -0.14409658178E+02 -0.83231088093E+02  0.89889557702E+02  0.00000000000E+00 0.  1.
         22    1    3    3    0    0 -0.75603850391E+02 -0.54651962199E+02 -0.30667100031E+02  0.98200051886E+02  0.00000000000E+00 0.  1.
</event>
<event>
 7    1  0.6507405E-006  0.1248274E+03  0.7818608E-02  0.1391055E+00
          2   -1    0    0  502    0  0.00000000000E+00  0.00000000000E+00  0.20955871714E+04  0.20955871714E+04  0.00000000000E+00 0. -1.
          1   -1    0    0  501    0 -0.00000000000E+00 -0.00000000000E+00 -0.12184159966E+03  0.12184159966E+03  0.00000000000E+00 0. -1.
         25    2    1    2    0    0  0.61188622739E+02  0.77955078015E+02  0.22457453975E+03  0.27546201382E+03  0.12499822165E+03 0.  0.
          2    1    1    2  501    0 -0.83222291007E+02 -0.98962063372E+02 -0.52850886249E+02  0.13968770842E+03  0.00000000000E+00 0. -1.
          1    1    1    2  502    0  0.22033668268E+02  0.21006985357E+02  0.18020219182E+04  0.18022790488E+04  0.00000000000E+00 0. -1.
         22    1    3    3    0    0  0.30077290936E+02  0.79959686424E+02  0.22858690360E+03  0.24402902979E+03  0.00000000000E+00 0. -1.
         22    1    3    3    0    0  0.31111331803E+02 -0.20046084086E+01 -0.40123638526E+01  0.31432984031E+02  0.00000000000E+00 0. -1.
</event>
<event>
 7    1  0.6507405E-006  0.8016436E+02  0.7818608E-02  0.1403469E+00
          2   -1    0    0  502    0  0.00000000000E+00  0.00000000000E+00  0.97626579395E+03  0.97626579395E+03  0.00000000000E+00 0. -1.
          1   -1    0    0  501    0 -0.00000000000E+00 -0.00000000000E+00 -0.10543198133E+04  0.10543198133E+04  0.00000000000E+00 0. -1.
         25    2    1    2    0    0  0.21055484046E+02  0.58122077640E+02  0.52109529097E+02  0.14887075955E+03  0.12500236281E+03 0.  0.
          2    1    1    2  501    0  0.42320063992E+02 -0.73239254626E+01 -0.10035957528E+04  0.10045143417E+04  0.00000000000E+00 0. -1.
          1    1    1    2  502    0 -0.63375548038E+02 -0.50798152177E+02  0.87343220428E+03  0.87720050605E+03  0.00000000000E+00 0. -1.
         22    1    3    3    0    0 -0.30856444655E+01  0.53886263056E+02  0.89291599880E+02  0.10433714754E+03  0.00000000000E+00 0.  1.
         22    1    3    3    0    0  0.24141128512E+02  0.42358145842E+01 -0.37182070783E+02  0.44533612011E+02  0.00000000000E+00 0.  1.
</event>
<event>
 7    1  0.6507405E-006  0.1305062E+03  0.7818608E-02  0.1311325E+00
          2   -1    0    0  502    0  0.00000000000E+00  0.00000000000E+00  0.50593868477E+03  0.50593868477E+03  0.00000000000E+00 0. -1.
          1   -1    0    0  501    0 -0.00000000000E+00 -0.00000000000E+00 -0.86339190780E+03  0.86339190780E+03  0.00000000000E+00 0. -1.
         25    2    1    2    0    0 -0.90512112362E+02 -0.57577389150E+02 -0.24594055543E+02  0.16655188927E+03  0.12500826383E+03 0.  0.
          2    1    1    2  501    0  0.13196392903E+03  0.17796390807E+02 -0.76010844804E+03  0.77168390088E+03  0.00000000000E+00 0. -1.
          1    1    1    2  502    0 -0.41451816669E+02  0.39780998343E+02  0.42724928056E+03  0.43109480242E+03  0.00000000000E+00 0. -1.
         22    1    3    3    0    0 -0.55561325921E+02 -0.77961331379E+02 -0.59835677429E+02  0.11289525420E+03  0.00000000000E+00 0.  1.
         22    1    3    3    0    0 -0.34950786441E+02  0.20383942230E+02  0.35241621886E+02  0.53656635069E+02  0.00000000000E+00 0.  1.
</event>
<event>
 7    1  0.6507405E-006  0.2617492E+02  0.7818608E-02  0.1679771E+00
          2   -1    0    0  502    0  0.00000000000E+00  0.00000000000E+00  0.11656886391E+04  0.11656886391E+04  0.00000000000E+00 0. -1.
          1   -1    0    0  501    0 -0.00000000000E+00 -0.00000000000E+00 -0.61352017307E+02  0.61352017307E+02  0.00000000000E+00 0. -1.
         25    2    1    2    0    0  0.18104931622E+02 -0.38254331164E+01  0.32753379433E+03  0.35106368554E+03  0.12499960956E+03 0.  0.
          2    1    1    2  501    0 -0.10718447664E+02  0.24052538990E+02 -0.45940316318E+02  0.52952076593E+02  0.00000000000E+00 0. -1.
          1    1    1    2  502    0 -0.73864839583E+01 -0.20227105873E+02  0.82274314376E+03  0.82302489426E+03  0.00000000000E+00 0. -1.
         22    1    3    3    0    0 -0.32185132505E+02 -0.27682861876E+02  0.40465503083E+02  0.58648789722E+02  0.00000000000E+00 0.  1.
         22    1    3    3    0    0  0.50290064127E+02  0.23857428760E+02  0.28706829125E+03  0.29241489582E+03  0.00000000000E+00 0.  1.
</event>
<event>
 7    1  0.6507405E-006  0.4150496E+02  0.7818608E-02  0.1539975E+00
          2   -1    0    0  502    0  0.00000000000E+00  0.00000000000E+00  0.12859150768E+04  0.12859150768E+04  0.00000000000E+00 0. -1.
          1   -1    0    0  501    0 -0.00000000000E+00 -0.00000000000E+00 -0.10632424819E+04  0.10632424819E+04  0.00000000000E+00 0. -1.
         25    2    1    2    0    0  0.49478854665E+01  0.69812999648E+02  0.64571450857E+03  0.66141547139E+03  0.12499945091E+03 0.  0.
          2    1    1    2  501    0 -0.12551393772E+02 -0.39544278653E+02 -0.10545987915E+04  0.10554145624E+04  0.00000000000E+00 0. -1.
          1    1    1    2  502    0  0.76035083053E+01 -0.30268720995E+02  0.63155687781E+03  0.63232752488E+03  0.00000000000E+00 0. -1.
         22    1    3    3    0    0 -0.53818429476E+02  0.53031078034E+02  0.25527851346E+03  0.26622516414E+03  0.00000000000E+00 0.  1.
         22    1    3    3    0    0  0.58766314942E+02  0.16781921615E+02  0.39043599511E+03  0.39519030725E+03  0.00000000000E+00 0.  1.
</event>
<event>
 7    1  0.6507405E-006  0.1076575E+03  0.7818608E-02  0.1279767E+00
          2   -1    0    0  502    0  0.00000000000E+00  0.00000000000E+00  0.54079634092E+03  0.54079634092E+03  0.00000000000E+00 0. -1.
          1   -1    0    0  501    0 -0.00000000000E+00 -0.00000000000E+00 -0.12880055891E+03  0.12880055891E+03  0.00000000000E+00 0. -1.
         25    2    1    2    0    0  0.18748708739E+03 -0.20107595310E+02  0.37019232658E+03  0.43384735197E+03  0.12500177130E+03 0.  0.
          2    1    1    2  501    0 -0.95240481206E+02  0.34456822494E+02 -0.42618078129E+02  0.10988322192E+03  0.00000000000E+00 0. -1.
          1    1    1    2  502    0 -0.92246606189E+02 -0.14349227184E+02  0.84421533564E+02  0.12586632593E+03  0.00000000000E+00 0. -1.
         22    1    3    3    0    0  0.17934462961E+03  0.18991447998E+02  0.25821115298E+03  0.31495741107E+03  0.00000000000E+00 0. -1.
         22    1    3    3    0    0  0.81424577815E+01 -0.39099043308E+02  0.11198117360E+03  0.11888994090E+03  0.00000000000E+00 0. -1.
</event>
<event>
 7    1  0.6507405E-006  0.6832092E+02  0.7818608E-02  0.1507258E+00
          2   -1    0    0  502    0  0.00000000000E+00  0.00000000000E+00  0.87834463648E+03  0.87834463648E+03  0.00000000000E+00 0. -1.
          1   -1    0    0  501    0 -0.00000000000E+00 -0.00000000000E+00 -0.23784435839E+03  0.23784435839E+03  0.00000000000E+00 0. -1.
         25    2    1    2    0    0  0.38584963827E+02 -0.32149157691E+02  0.19414242778E+03  0.23629679695E+03  0.12499010445E+03 0.  0.
          2    1    1    2  501    0 -0.62037654203E+02  0.29788302958E+02 -0.21108854442E+03  0.22202339318E+03  0.00000000000E+00 0. -1.
          1    1    1    2  502    0  0.23452690376E+02  0.23608547332E+01  0.65744639473E+03  0.65786880475E+03  0.00000000000E+00 0. -1.
         22    1    3    3    0    0 -0.17787833867E+02  0.14237859350E+01 -0.10969071564E+02  0.20946472997E+02  0.00000000000E+00 0.  1.
         22    1    3    3    0    0  0.56372797693E+02 -0.33572943626E+02  0.20511149934E+03  0.21535032395E+03  0.00000000000E+00 0.  1.
</event>
<event>
 7    1  0.6507405E-006  0.1255822E+03  0.7818608E-02  0.1346161E+00
          2   -1    0    0  502    0  0.00000000000E+00  0.00000000000E+00  0.17095473578E+04  0.17095473578E+04  0.00000000000E+00 0. -1.
          1   -1    0    0  501    0 -0.00000000000E+00 -0.00000000000E+00 -0.36115598182E+03  0.36115598182E+03  0.00000000000E+00 0. -1.
         25    2    1    2    0    0 -0.63911719769E+02  0.13850327257E+03  0.49845387222E+03  0.53605525240E+03  0.12502442344E+03 0.  0.
          2    1    1    2  501    0  0.22825577264E+02 -0.12298701464E+03 -0.33050743408E+03  0.35338644107E+03  0.00000000000E+00 0. -1.
          1    1    1    2  502    0  0.41086142506E+02 -0.15516257923E+02  0.11804449378E+04  0.11812616461E+04  0.00000000000E+00 0. -1.
         22    1    3    3    0    0 -0.75587593654E+02  0.11546109492E+03  0.24423332697E+03  0.28052569714E+03  0.00000000000E+00 0.  1.
         22    1    3    3    0    0  0.11675873885E+02  0.23042177650E+02  0.25422054525E+03  0.25552955525E+03  0.00000000000E+00 0.  1.
</event>
<event>
 7    1  0.6507405E-006  0.1313959E+03  0.7818608E-02  0.1288211E+00
          2   -1    0    0  502    0  0.00000000000E+00  0.00000000000E+00  0.19821266097E+04  0.19821266097E+04  0.00000000000E+00 0. -1.
          1   -1    0    0  501    0 -0.00000000000E+00 -0.00000000000E+00 -0.90876878520E+03  0.90876878520E+03  0.00000000000E+00 0. -1.
         25    2    1    2    0    0 -0.87873017698E+02  0.76127987798E+01 -0.97807894799E+02  0.18157796822E+03  0.12499820925E+03 0.  0.
          2    1    1    2  501    0  0.11982505492E+03 -0.70591835615E+02 -0.76213870300E+03  0.77472359823E+03  0.00000000000E+00 0. -1.
          1    1    1    2  502    0 -0.31952037223E+02  0.62979036835E+02  0.19333044223E+04  0.19345938285E+04  0.00000000000E+00 0. -1.
         22    1    3    3    0    0 -0.47627452083E+02  0.64477113461E+02 -0.33879246456E+02  0.87025718570E+02  0.00000000000E+00 0. -1.
         22    1    3    3    0    0 -0.40245565615E+02 -0.56864314681E+02 -0.63928648343E+02  0.94552249655E+02  0.00000000000E+00 0. -1.
</event>
<event>
 7    1  0.6507405E-006  0.6714732E+02  0.7818608E-02  0.1480680E+00
          2   -1    0    0  502    0  0.00000000000E+00  0.00000000000E+00  0.52865482144E+03  0.52865482144E+03  0.00000000000E+00 0. -1.
          1   -1    0    0  501    0 -0.00000000000E+00 -0.00000000000E+00 -0.20254050701E+04  0.20254050701E+04  0.00000000000E+00 0. -1.
         25    2    1    2    0    0 -0.19819122801E+02  0.37774374784E+02  0.16993645119E+03  0.21522623799E+03  0.12499694020E+03 0.  0.
          2    1    1    2  501    0 -0.89293485806E+01  0.27415164425E+02 -0.19988789677E+04  0.19990869046E+04  0.00000000000E+00 0. -1.
          1    1    1    2  502    0  0.28748471382E+02 -0.65189539209E+02  0.33219226784E+03  0.33974674898E+03  0.00000000000E+00 0. -1.
         22    1    3    3    0    0 -0.39863794254E+02  0.57549645222E+02  0.17326377185E+03  0.18687273314E+03  0.00000000000E+00 0. -1.
         22    1    3    3    0    0  0.20044671452E+02 -0.19775270438E+02 -0.33273206585E+01  0.28353504851E+02  0.00000000000E+00 0. -1.
</event>
<event>
 7    1  0.6507405E-006  0.1329785E+03  0.7818608E-02  0.1264674E+00
          2   -1    0    0  502    0  0.00000000000E+00  0.00000000000E+00  0.11202129055E+04  0.11202129055E+04  0.00000000000E+00 0. -1.
          1   -1    0    0  501    0 -0.00000000000E+00 -0.00000000000E+00 -0.14469390925E+03  0.14469390925E+03  0.00000000000E+00 0. -1.
         25    2    1    2    0    0  0.36821297764E+02 -0.17798722566E+03  0.22580088174E+03  0.31566647066E+03  0.12499608809E+03 0.  0.
          2    1    1    2  501    0  0.31753351269E+02  0.12378368332E+03 -0.55477490205E+02  0.13931413243E+03  0.00000000000E+00 0. -1.
          1    1    1    2  502    0 -0.68574649034E+02  0.54203542339E+02  0.80519560471E+03  0.80992621166E+03  0.00000000000E+00 0. -1.
         22    1    3    3    0    0 -0.38845586207E+02 -0.11696606139E+03  0.13168983986E+03  0.18036699534E+03  0.00000000000E+00 0. -1.
         22    1    3    3    0    0  0.75666883971E+02 -0.61021164272E+02  0.94111041873E+02  0.13529947532E+03  0.00000000000E+00 0. -1.
</event>
<event>
 7    1  0.6507405E-006  0.3471188E+02  0.7818608E-02  0.1622538E+00
          2   -1    0    0  502    0  0.00000000000E+00  0.00000000000E+00  0.14979448932E+04  0.14979448932E+04  0.00000000000E+00 0. -1.
          1   -1    0    0  501    0 -0.00000000000E+00 -0.00000000000E+00 -0.83173769860E+02  0.83173769860E+02  0.00000000000E+00 0. -1.
         25    2    1    2    0    0  0.32537238293E+02 -0.40822225336E+02  0.50577695813E+02  0.14459747373E+03  0.12500080055E+03 0.  0.
          2    1    1    2  501    0 -0.33395451640E+01  0.22174176913E+02 -0.32452129657E+02  0.39446006172E+02  0.00000000000E+00 0. -1.
          1    1    1    2  502    0 -0.29197693128E+02  0.18648048423E+02  0.13966455572E+04  0.13970751832E+04  0.00000000000E+00 0. -1.
         22    1    3    3    0    0 -0.10685804155E+02 -0.73081400487E+02  0.52520746961E+02  0.90628397144E+02  0.00000000000E+00 0.  1.
         22    1    3    3    0    0  0.43223042447E+02  0.32259175151E+02 -0.19430511480E+01  0.53969076586E+02  0.00000000000E+00 0.  1.
</event>
<event>
 7    1  0.6507405E-006  0.4463449E+02  0.7818608E-02  0.1539866E+00
          2   -1    0    0  502    0  0.00000000000E+00  0.00000000000E+00  0.88274470022E+03  0.88274470022E+03  0.00000000000E+00 0. -1.
          1   -1    0    0  501    0 -0.00000000000E+00 -0.00000000000E+00 -0.93430852915E+03  0.93430852915E+03  0.00000000000E+00 0. -1.
         25    2    1    2    0    0 -0.28613472539E+02  0.38584583948E+02 -0.72781559459E+02  0.15241333130E+03  0.12500066892E+03 0.  0.
          2    1    1    2  501    0  0.42728962941E+02 -0.13204315412E+02 -0.82085205397E+03  0.82206946953E+03  0.00000000000E+00 0. -1.
          1    1    1    2  502    0 -0.14115490401E+02 -0.25380268536E+02  0.84206978450E+03  0.84257042855E+03  0.00000000000E+00 0. -1.
         22    1    3    3    0    0 -0.44069517328E+01 -0.29197912268E+02  0.19496875753E+02  0.35384565399E+02  0.00000000000E+00 0.  1.
         22    1    3    3    0    0 -0.24206520807E+02  0.67782496216E+02 -0.92278435212E+02  0.11702876590E+03  0.00000000000E+00 0.  1.
</event>
<event>
 7    1  0.6507405E-006  0.1999962E+03  0.7818608E-02  0.1307217E+00
          2   -1    0    0  502    0  0.00000000000E+00  0.00000000000E+00  0.73231834672E+03  0.73231834672E+03  0.00000000000E+00 0. -1.
          1   -1    0    0  501    0 -0.00000000000E+00 -0.00000000000E+00 -0.73556710938E+03  0.73556710938E+03  0.00000000000E+00 0. -1.
         25    2    1    2    0    0 -0.33550956632E+02  0.19121221233E+03  0.13719405350E+03  0.26858000345E+03  0.12500093240E+03 0.  0.
          2    1    1    2  501    0  0.72261935632E+02 -0.18722347979E+03 -0.65409095901E+03  0.68418520986E+03  0.00000000000E+00 0. -1.
          1    1    1    2  502    0 -0.38710979000E+02 -0.39887325401E+01  0.51364814285E+03  0.51512024280E+03  0.00000000000E+00 0. -1.
         22    1    3    3    0    0 -0.42519389284E+02  0.13143779677E+02  0.58974197235E+02  0.73882429229E+02  0.00000000000E+00 0.  1.
         22    1    3    3    0    0  0.89684326516E+01  0.17806843266E+03  0.78219856264E+02  0.19469757422E+03  0.00000000000E+00 0.  1.
</event>
<event>
 7    1  0.6507405E-006  0.2551112E+03  0.7818608E-02  0.1246954E+00
          2   -1    0    0  502    0  0.00000000000E+00  0.00000000000E+00  0.13307837962E+04  0.13307837962E+04  0.00000000000E+00 0. -1.
          1   -1    0    0  501    0 -0.00000000000E+00 -0.00000000000E+00 -0.14111412957E+04  0.14111412957E+04  0.00000000000E+00 0. -1.
         25    2    1    2    0    0  0.73704398482E+02 -0.20882015166E+03  0.47305353727E+03  0.53706833406E+03  0.12499820892E+03 0.  0.
          2    1    1    2  501    0 -0.41569241443E+02  0.25258474475E+03 -0.13663422047E+04  0.13901144109E+04  0.00000000000E+00 0. -1.
          1    1    1    2  502    0 -0.32135157039E+02 -0.43764593086E+02  0.81293116796E+03  0.81474234686E+03  0.00000000000E+00 0. -1.
         22    1    3    3    0    0  0.87360900723E+02 -0.18192769517E+03  0.46333491826E+03  0.50537991622E+03  0.00000000000E+00 0. -1.
         22    1    3    3    0    0 -0.13656502240E+02 -0.26892456491E+02  0.97186190123E+01  0.31688417838E+02  0.00000000000E+00 0. -1.
</event>
<event>
 7    1  0.6507405E-006  0.1108639E+03  0.7818608E-02  0.1365407E+00
          2   -1    0    0  502    0  0.00000000000E+00  0.00000000000E+00  0.33777571518E+03  0.33777571518E+03  0.00000000000E+00 0. -1.
          1   -1    0    0  501    0 -0.00000000000E+00 -0.00000000000E+00 -0.27581591536E+03  0.27581591536E+03  0.00000000000E+00 0. -1.
         25    2    1    2    0    0 -0.14052694492E+03 -0.28074618284E+02  0.53314839282E+02  0.19749224256E+03  0.12499882937E+03 0.  0.
          2    1    1    2  501    0  0.41588585713E+02 -0.75925683505E+01 -0.18821641034E+03  0.19290586999E+03  0.00000000000E+00 0. -1.
          1    1    1    2  502    0  0.98938359209E+02  0.35667186634E+02  0.19686137088E+03  0.22319351799E+03  0.00000000000E+00 0. -1.
         22    1    3    3    0    0 -0.56229398541E+02 -0.27871235112E+02  0.86525125396E+02  0.10688848550E+03  0.00000000000E+00 0.  1.
         22    1    3    3    0    0 -0.84297546382E+02 -0.20338317185E+00 -0.33210286114E+02  0.90603757066E+02  0.00000000000E+00 0.  1.
</event>
<event>
 7    1  0.7606020E-006  0.1032236E+03  0.7818608E-02  0.1343012E+00
          2   -1    0    0  502    0  0.00000000000E+00  0.00000000000E+00  0.14694152875E+04  0.14694152875E+04  0.00000000000E+00 0. -1.
          1   -1    0    0  501    0 -0.00000000000E+00 -0.00000000000E+00 -0.15893447349E+04  0.15893447349E+04  0.00000000000E+00 0. -1.
         25    2    1    2    0    0 -0.42405617917E+02 -0.69230406966E+02 -0.87264143477E+03  0.88527931923E+03  0.12500125479E+03 0.  0.
          2    1    1    2  501    0  0.26939458678E+02  0.12190488837E+03 -0.70437820671E+03  0.71535669028E+03  0.00000000000E+00 0. -1.
          1    1    1    2  502    0  0.15466159239E+02 -0.52674481409E+02  0.14570901941E+04  0.14581240128E+04  0.00000000000E+00 0. -1.
         22    1    3    3    0    0  0.25203288005E+02 -0.46994595392E+02 -0.63431994230E+03  0.63655752837E+03  0.00000000000E+00 0. -1.
         22    1    3    3    0    0 -0.67608905922E+02 -0.22235811574E+02 -0.23832149247E+03  0.24872179086E+03  0.00000000000E+00 0. -1.
</event>
<event>
 7    1  0.6507405E-006  0.4352063E+02  0.7818608E-02  0.1488393E+00
          2   -1    0    0  502    0  0.00000000000E+00  0.00000000000E+00  0.16758616601E+04  0.16758616601E+04  0.00000000000E+00 0. -1.
          1   -1    0    0  501    0 -0.00000000000E+00 -0.00000000000E+00 -0.64969986932E+02  0.64969986932E+02  0.00000000000E+00 0. -1.
         25    2    1    2    0    0  0.56757059068E+02  0.47512662704E+02  0.19385985714E+03  0.24224918366E+03  0.12499682357E+03 0.  0.
          2    1    1    2  501    0 -0.41549563462E+02 -0.70365876611E+01 -0.29477122772E+02  0.51427430003E+02  0.00000000000E+00 0. -1.
          1    1    1    2  502    0 -0.15207495606E+02 -0.40476075043E+02  0.14465089388E+04  0.14471550334E+04  0.00000000000E+00 0. -1.
         22    1    3    3    0    0 -0.52329978341E+01  0.75834355163E+02  0.11699616966E+03  0.13952181695E+03  0.00000000000E+00 0. -1.
         22    1    3    3    0    0  0.61990056902E+02 -0.28321692459E+02  0.76863687479E+02  0.10272736671E+03  0.00000000000E+00 0. -1.
</event>
<event>
 7    1  0.6507405E-006  0.1275400E+03  0.7818608E-02  0.1264684E+00
          2   -1    0    0  502    0  0.00000000000E+00  0.00000000000E+00  0.54328834219E+02  0.54328834219E+02  0.00000000000E+00 0. -1.
          1   -1    0    0  501    0 -0.00000000000E+00 -0.00000000000E+00 -0.89640599320E+03  0.89640599320E+03  0.00000000000E+00 0. -1.
         25    2    1    2    0    0  0.92817511136E+02 -0.28078651972E+02 -0.56151272404E+03  0.58336913635E+03  0.12497803374E+03 0.  0.
          2    1    1    2  501    0  0.38131036425E+02  0.82767380745E+02 -0.14403918161E+03  0.17044559570E+03  0.00000000000E+00 0. -1.
          1    1    1    2  502    0 -0.13094854756E+03 -0.54688728773E+02 -0.13652525333E+03  0.19692009537E+03  0.00000000000E+00 0. -1.
         22    1    3    3    0    0  0.57312754436E+02 -0.79032271825E+01 -0.72970200046E+02  0.93122837777E+02  0.00000000000E+00 0. -1.
         22    1    3    3    0    0  0.35504756699E+02 -0.20175424789E+02 -0.48854252400E+03  0.49024629858E+03  0.00000000000E+00 0. -1.
</event>
<event>
 7    1  0.6507405E-006  0.5243830E+02  0.7818608E-02  0.1505352E+00
          2   -1    0    0  502    0  0.00000000000E+00  0.00000000000E+00  0.71140943945E+03  0.71140943945E+03  0.00000000000E+00 0. -1.
          1   -1    0    0  501    0 -0.00000000000E+00 -0.00000000000E+00 -0.24121148624E+02  0.24121148624E+02  0.00000000000E+00 0. -1.
         25    2    1    2    0    0 -0.22334293063E+02  0.31432063949E+02  0.50489575242E+03  0.52156506006E+03  0.12499438295E+03 0.  0.
          2    1    1    2  501    0 -0.30974914389E+02  0.29164324131E+01  0.14170722245E+02  0.34187136007E+02  0.00000000000E+00 0. -1.
          1    1    1    2  502    0  0.53309207452E+02 -0.34348496362E+02  0.16822181616E+03  0.17977839201E+03  0.00000000000E+00 0. -1.
         22    1    3    3    0    0  0.25852781211E+02  0.65925848187E+02  0.30206982552E+03  0.31025918720E+03  0.00000000000E+00 0.  1.
         22    1    3    3    0    0 -0.48187074275E+02 -0.34493784238E+02  0.20282592690E+03  0.21130587285E+03  0.00000000000E+00 0.  1.
</event>
<event>
 7    1  0.6507405E-006  0.3799731E+02  0.7818608E-02  0.1571747E+00
          2   -1    0    0  502    0  0.00000000000E+00  0.00000000000E+00  0.21980280621E+04  0.21980280621E+04  0.00000000000E+00 0. -1.
          1   -1    0    0  501    0 -0.00000000000E+00 -0.00000000000E+00 -0.51651510991E+01  0.51651510991E+01  0.00000000000E+00 0. -1.
         25    2    1    2    0    0  0.15014864985E+01 -0.31664333462E+02  0.15448475473E+04  0.15502207524E+04  0.12500220923E+03 0.  0.
          2    1    1    2  501    0 -0.28993112454E+02  0.27270559483E+02  0.19065549527E+03  0.19476601824E+03  0.00000000000E+00 0. -1.
          1    1    1    2  502    0  0.27491625956E+02  0.43937739789E+01  0.45735986843E+03  0.45820644255E+03  0.00000000000E+00 0. -1.
         22    1    3    3    0    0  0.23481604181E+01 -0.76944730583E+02  0.11912590258E+04  0.11937437212E+04  0.00000000000E+00 0.  1.
         22    1    3    3    0    0 -0.84667391964E+00  0.45280397121E+02  0.35358852156E+03  0.35647703123E+03  0.00000000000E+00 0.  1.
</event>
<event>
 7    1  0.6507405E-006  0.1207699E+03  0.7818608E-02  0.1272389E+00
          2   -1    0    0  502    0  0.00000000000E+00  0.00000000000E+00  0.98082852538E+03  0.98082852538E+03  0.00000000000E+00 0. -1.
          1   -1    0    0  501    0 -0.00000000000E+00 -0.00000000000E+00 -0.25639020013E+03  0.25639020013E+03  0.00000000000E+00 0. -1.
         25    2    1    2    0    0 -0.14461069646E+03  0.14372760869E+03  0.35752039955E+03  0.43013442185E+03  0.12499962295E+03 0.  0.
          2    1    1    2  501    0  0.70363856156E+02 -0.94089046386E+02 -0.20065819935E+03  0.23252426512E+03  0.00000000000E+00 0. -1.
          1    1    1    2  502    0  0.74246840307E+02 -0.49638562304E+02  0.56757612505E+03  0.57456003854E+03  0.00000000000E+00 0. -1.
         22    1    3    3    0    0 -0.55345050550E+02  0.24331559993E+02  0.21701694518E+03  0.22528083347E+03  0.00000000000E+00 0. -1.
         22    1    3    3    0    0 -0.89265645913E+02  0.11939604870E+03  0.14050345437E+03  0.20485358839E+03  0.00000000000E+00 0. -1.
</event>
<event>
 7    1  0.6507405E-006  0.3245754E+02  0.7818608E-02  0.1576138E+00
          2   -1    0    0  502    0  0.00000000000E+00  0.00000000000E+00  0.83267344812E+03  0.83267344812E+03  0.00000000000E+00 0. -1.
          1   -1    0    0  501    0 -0.00000000000E+00 -0.00000000000E+00 -0.13527064325E+03  0.13527064325E+03  0.00000000000E+00 0. -1.
         25    2    1    2    0    0 -0.11948737616E+02 -0.71734301780E+01  0.54009789274E+02  0.13687934476E+03  0.12499866901E+03 0.  0.
          2    1    1    2  501    0  0.25438319687E+02 -0.21528298032E+02 -0.90523763196E+02  0.96463088421E+02  0.00000000000E+00 0. -1.
          1    1    1    2  502    0 -0.13489582071E+02  0.28701728210E+02  0.73391677879E+03  0.73460165819E+03  0.00000000000E+00 0. -1.
         22    1    3    3    0    0  0.38961637229E+02  0.19025793782E+02  0.65432788085E+02  0.78494839073E+02  0.00000000000E+00 0.  1.
         22    1    3    3    0    0 -0.50910374845E+02 -0.26199223960E+02 -0.11422998810E+02  0.58384505691E+02  0.00000000000E+00 0.  1.
</event>
<event>
 7    1  0.6507405E-006  0.2853615E+02  0.7818608E-02  0.1637156E+00
          2   -1    0    0  502    0  0.00000000000E+00  0.00000000000E+00  0.34867559596E+03  0.34867559596E+03  0.00000000000E+00 0. -1.
          1   -1    0    0  501    0 -0.00000000000E+00 -0.00000000000E+00 -0.62655370468E+03  0.62655370468E+03  0.00000000000E+00 0. -1.
         25    2    1    2    0    0 -0.40861203090E+01 -0.10648024131E+02 -0.47159405232E+03  0.48801205200E+03  0.12499894366E+03 0.  0.
          2    1    1    2  501    0  0.28425023888E+02  0.16628538476E+02 -0.14443352477E+03  0.14814024893E+03  0.00000000000E+00 0. -1.
          1    1    1    2  502    0 -0.24338903579E+02 -0.59805143445E+01  0.33814946837E+03  0.33907699971E+03  0.00000000000E+00 0. -1.
         22    1    3    3    0    0 -0.31850401460E+02  0.29339956276E+02 -0.39426107533E+03  0.39663216791E+03  0.00000000000E+00 0. -1.
         22    1    3    3    0    0  0.27764281151E+02 -0.39987980407E+02 -0.77332976992E+02  0.91379884085E+02  0.00000000000E+00 0. -1.
</event>
<event>
 7    1  0.6507405E-006  0.1114365E+03  0.7818608E-02  0.1404376E+00
          2   -1    0    0  502    0  0.00000000000E+00  0.00000000000E+00  0.77183561888E+03  0.77183561888E+03  0.00000000000E+00 0. -1.
          1   -1    0    0  501    0 -0.00000000000E+00 -0.00000000000E+00 -0.15519040132E+04  0.15519040132E+04  0.00000000000E+00 0. -1.
         25    2    1    2    0    0 -0.12468146036E+03  0.52586904147E+02 -0.15738037440E+03  0.24228721047E+03  0.12499464414E+03 0.  0.
          2    1    1    2  501    0  0.10669656775E+03 -0.27735327032E+02 -0.13494989483E+04  0.13539943934E+04  0.00000000000E+00 0. -1.
          1    1    1    2  502    0  0.17984892612E+02 -0.24851577115E+02  0.72681092835E+03  0.72745802822E+03  0.00000000000E+00 0. -1.
         22    1    3    3    0    0 -0.11339671540E+03 -0.15657751619E+02 -0.10720564473E+03  0.15683440474E+03  0.00000000000E+00 0.  1.
         22    1    3    3    0    0 -0.11284744968E+02  0.68244655766E+02 -0.50174729672E+02  0.85452805730E+02  0.00000000000E+00 0.  1.
</event>
<event>
 7    1  0.6507405E-006  0.6085104E+02  0.7818608E-02  0.1450751E+00
          2   -1    0    0  502    0  0.00000000000E+00  0.00000000000E+00  0.10783860330E+04  0.10783860330E+04  0.00000000000E+00 0. -1.
          1   -1    0    0  501    0 -0.00000000000E+00 -0.00000000000E+00 -0.50499804350E+03  0.50499804350E+03  0.00000000000E+00 0. -1.
         25    2    1    2    0    0  0.47263617111E+02 -0.40003798152E+02 -0.21682178514E+03  0.25782016982E+03  0.12500160033E+03 0.  0.
          2    1    1    2  501    0 -0.34322161724E+02 -0.19499330413E+02 -0.26533943780E+03  0.26825967256E+03  0.00000000000E+00 0. -1.
          1    1    1    2  502    0 -0.12941455387E+02  0.59503128565E+02  0.10555492124E+04  0.10573042341E+04  0.00000000000E+00 0. -1.
         22    1    3    3    0    0  0.45082871946E+01 -0.30335209302E+02  0.55522179887E+01  0.31166916778E+02  0.00000000000E+00 0. -1.
         22    1    3    3    0    0  0.42755329917E+02 -0.96685888503E+01 -0.22237400313E+03  0.22665325304E+03  0.00000000000E+00 0. -1.
</event>
<event>
 7    1  0.6507405E-006  0.1315563E+03  0.7818608E-02  0.1235270E+00
          2   -1    0    0  502    0  0.00000000000E+00  0.00000000000E+00  0.18825307958E+04  0.18825307958E+04  0.00000000000E+00 0. -1.
          1   -1    0    0  501    0 -0.00000000000E+00 -0.00000000000E+00 -0.43746527023E+03  0.43746527023E+03  0.00000000000E+00 0. -1.
         25    2    1    2    0    0  0.20828946397E+02  0.74412316253E+02  0.55864083596E+02  0.15721524742E+03  0.12499920146E+03 0.  0.
          2    1    1    2  501    0 -0.11628638168E+03  0.22934879697E+02 -0.37501711549E+03  0.39330187920E+03  0.00000000000E+00 0. -1.
          1    1    1    2  502    0  0.95457435287E+02 -0.97347195950E+02  0.17642185575E+04  0.17694789394E+04  0.00000000000E+00 0. -1.
         22    1    3    3    0    0  0.59032443265E+02  0.25323220368E+02  0.68322481495E+02  0.93776629953E+02  0.00000000000E+00 0. -1.
         22    1    3    3    0    0 -0.38203496867E+02  0.49089095885E+02 -0.12458397899E+02  0.63438617465E+02  0.00000000000E+00 0. -1.
</event>
<event>
 7    1  0.6507405E-006  0.1130746E+03  0.7818608E-02  0.1327775E+00
          2   -1    0    0  502    0  0.00000000000E+00  0.00000000000E+00  0.85987952411E+03  0.85987952411E+03  0.00000000000E+00 0. -1.
          1   -1    0    0  501    0 -0.00000000000E+00 -0.00000000000E+00 -0.29066872677E+03  0.29066872677E+03  0.00000000000E+00 0. -1.
         25    2    1    2    0    0  0.59495105387E+02 -0.76090992727E+02  0.53885145470E+03  0.56152963418E+03  0.12500053232E+03 0.  0.
          2    1    1    2  501    0 -0.12860322858E+02 -0.55777188827E+02 -0.26026606243E+03  0.26648622094E+03  0.00000000000E+00 0. -1.
          1    1    1    2  502    0 -0.46634782529E+02  0.13186818155E+03  0.29062540507E+03  0.32253239577E+03  0.00000000000E+00 0. -1.
         22    1    3    3    0    0 -0.20621200338E+02 -0.57526221191E+02  0.35363352723E+03  0.35887486901E+03  0.00000000000E+00 0. -1.
         22    1    3    3    0    0  0.80116305725E+02 -0.18564771536E+02  0.18521792748E+03  0.20265476516E+03  0.00000000000E+00 0. -1.
</event>
<event>
 7    1  0.6507405E-006  0.1575755E+03  0.7818608E-02  0.1299058E+00
          2   -1    0    0  502    0  0.00000000000E+00  0.00000000000E+00  0.18905259000E+03  0.18905259000E+03  0.00000000000E+00 0. -1.
          1   -1    0    0  501    0 -0.00000000000E+00 -0.00000000000E+00 -0.40731026998E+03  0.40731026998E+03  0.00000000000E+00 0. -1.
         25    2    1    2    0    0 -0.11194076834E+03 -0.60155005173E+02 -0.13249547806E+03  0.22210119353E+03  0.12499811277E+03 0.  0.
          2    1    1    2  501    0 -0.11865462306E+02 -0.51891314004E+02 -0.17640805854E+03  0.18426421460E+03  0.00000000000E+00 0. -1.
          1    1    1    2  502    0  0.12380623065E+03  0.11204631918E+03  0.90645856614E+02  0.18999745185E+03  0.00000000000E+00 0. -1.
         22    1    3    3    0    0 -0.12366326974E+03 -0.72468180697E+01 -0.96782491071E+02  0.15720041741E+03  0.00000000000E+00 0.  1.
         22    1    3    3    0    0  0.11722501399E+02 -0.52908187103E+02 -0.35712986989E+02  0.64900776122E+02  0.00000000000E+00 0.  1.
</event>
<event>
 7    1  0.6507405E-006  0.6187007E+02  0.7818608E-02  0.1432480E+00
          2   -1    0    0  502    0  0.00000000000E+00  0.00000000000E+00  0.89311398362E+03  0.89311398362E+03  0.00000000000E+00 0. -1.
          1   -1    0    0  501    0 -0.00000000000E+00 -0.00000000000E+00 -0.39225887466E+02  0.39225887466E+02  0.00000000000E+00 0. -1.
         25    2    1    2    0    0  0.30058156907E+02  0.44852213853E+02  0.13939719465E+03  0.19485923671E+03  0.12499332129E+03 0.  0.
          2    1    1    2  501    0  0.31539720673E+02 -0.31378781288E+02  0.39330925012E+02  0.59382687356E+02  0.00000000000E+00 0. -1.
          1    1    1    2  502    0 -0.61597877580E+02 -0.13473432565E+02  0.67515997649E+03  0.67809794703E+03  0.00000000000E+00 0. -1.
         22    1    3    3    0    0  0.11544580633E+02  0.63214698951E+02  0.15263896931E+03  0.16561410102E+03  0.00000000000E+00 0. -1.
         22    1    3    3    0    0  0.18513576274E+02 -0.18362485098E+02 -0.13241774652E+02  0.29245135687E+02  0.00000000000E+00 0. -1.
</event>
<event>
 7    1  0.6507405E-006  0.7591789E+02  0.7818608E-02  0.1432732E+00
          2   -1    0    0  502    0  0.00000000000E+00  0.00000000000E+00  0.20127820542E+04  0.20127820542E+04  0.00000000000E+00 0. -1.
          1   -1    0    0  501    0 -0.00000000000E+00 -0.00000000000E+00 -0.21562465073E+03  0.21562465073E+03  0.00000000000E+00 0. -1.
         25    2    1    2    0    0  0.94759503039E+02 -0.11606401137E+02 -0.26474119728E+02  0.15949501524E+03  0.12499483552E+03 0.  0.
          2    1    1    2  501    0 -0.65599369959E+02  0.33038223231E+02 -0.11145848738E+03  0.13348331710E+03  0.00000000000E+00 0. -1.
          1    1    1    2  502    0 -0.29160133080E+02 -0.21431822093E+02  0.19350900105E+04  0.19354283726E+04  0.00000000000E+00 0. -1.
         22    1    3    3    0    0 -0.12430858127E+02 -0.15829218376E+01 -0.48083592099E+02  0.49689674022E+02  0.00000000000E+00 0.  1.
         22    1    3    3    0    0  0.10719036117E+03 -0.10023479300E+02  0.21609472371E+02  0.10980534122E+03  0.00000000000E+00 0.  1.
</event>
<event>
 7    1  0.6507405E-006  0.4558996E+02  0.7818608E-02  0.1539748E+00
          2   -1    0    0  502    0  0.00000000000E+00  0.00000000000E+00  0.19805457541E+03  0.19805457541E+03  0.00000000000E+00 0. -1.
          1   -1    0    0  501    0 -0.00000000000E+00 -0.00000000000E+00 -0.30147423386E+03  0.30147423386E+03  0.00000000000E+00 0. -1.
         25    2    1    2    0    0 -0.11437793706E+02 -0.19117851332E+02 -0.70024891831E+01  0.12716225530E+03  0.12499955582E+03 0.  0.
          2    1    1    2  501    0  0.63897211357E+01 -0.27727844954E+02 -0.22946484290E+03  0.23122235197E+03  0.00000000000E+00 0. -1.
          1    1    1    2  502    0  0.50480725701E+01  0.46845696286E+02  0.13304767364E+03  0.14114420200E+03  0.00000000000E+00 0. -1.
         22    1    3    3    0    0  0.16165327884E+02  0.45372333708E+02 -0.25659323548E+02  0.54574420535E+02  0.00000000000E+00 0.  1.
         22    1    3    3    0    0 -0.27603121590E+02 -0.64490185040E+02  0.18656834365E+02  0.72587834770E+02  0.00000000000E+00 0.  1.
</event>
<event>
 7    1  0.6507405E-006  0.1240918E+03  0.7818608E-02  0.1236916E+00
          2   -1    0    0  502    0  0.00000000000E+00  0.00000000000E+00  0.24842228957E+04  0.24842228957E+04  0.00000000000E+00 0. -1.
          1   -1    0    0  501    0 -0.00000000000E+00 -0.00000000000E+00 -0.16309983835E+04  0.16309983835E+04  0.00000000000E+00 0. -1.
         25    2    1    2    0    0  0.24295223999E+01  0.79249275061E+02 -0.19886024420E+03  0.24790503792E+03  0.12500064371E+03 0.  0.
          2    1    1    2  501    0 -0.12390222267E+03 -0.53888778532E+02 -0.14028026343E+04  0.14092945015E+04  0.00000000000E+00 0. -1.
          1    1    1    2  502    0  0.12147270027E+03 -0.25360496529E+02  0.24548873907E+04  0.24580217397E+04  0.00000000000E+00 0. -1.
         22    1    3    3    0    0  0.43789867181E+02 -0.86052901152E+01 -0.32241485640E+02  0.55055579935E+02  0.00000000000E+00 0.  1.
         22    1    3    3    0    0 -0.41360344781E+02  0.87854565177E+02 -0.16661875856E+03  0.19284945799E+03  0.00000000000E+00 0.  1.
</event>
<event>
 7    1  0.6507405E-006  0.4563932E+02  0.7818608E-02  0.1534616E+00
          2   -1    0    0  502    0  0.00000000000E+00  0.00000000000E+00  0.97497491288E+02  0.97497491288E+02  0.00000000000E+00 0. -1.
          1   -1    0    0  501    0 -0.00000000000E+00 -0.00000000000E+00 -0.96135149584E+03  0.96135149584E+03  0.00000000000E+00 0. -1.
         25    2    1    2    0    0  0.69398717178E+01 -0.33578323624E+02 -0.37118069578E+01  0.12967049721E+03  0.12499997880E+03 0.  0.
          2    1    1    2  501    0 -0.35888544773E+02  0.28486888387E+02 -0.88770328691E+03  0.88888504097E+03  0.00000000000E+00 0. -1.
          1    1    1    2  502    0  0.28948673055E+02  0.50914352371E+01  0.27561089313E+02  0.40293448953E+02  0.00000000000E+00 0. -1.
         22    1    3    3    0    0  0.16178916789E+02  0.39934468334E-01  0.57223168787E+02  0.59466376964E+02  0.00000000000E+00 0.  1.
         22    1    3    3    0    0 -0.92390450708E+01 -0.33618258093E+02 -0.60934975745E+02  0.70204120250E+02  0.00000000000E+00 0.  1.
</event>
<event>
 7    1  0.6507405E-006  0.5498765E+02  0.7818608E-02  0.1483748E+00
          2   -1    0    0  502    0  0.00000000000E+00  0.00000000000E+00  0.74929994073E+03  0.74929994073E+03  0.00000000000E+00 0. -1.
          1   -1    0    0  501    0 -0.00000000000E+00 -0.00000000000E+00 -0.35029729237E+03  0.35029729237E+03  0.00000000000E+00 0. -1.
         25    2    1    2    0    0 -0.56490796221E+02 -0.16799135289E+02  0.37169734196E+03  0.39655446066E+03  0.12499242075E+03 0.  0.
          2    1    1    2  501    0  0.21611116563E+02 -0.26836310048E+02 -0.33484306746E+03  0.33661121152E+03  0.00000000000E+00 0. -1.
          1    1    1    2  502    0  0.34879679659E+02  0.43635445337E+02  0.36214837387E+03  0.36643156092E+03  0.00000000000E+00 0. -1.
         22    1    3    3    0    0 -0.79219120334E+02  0.29379649448E+02  0.26398905628E+03  0.27718054525E+03  0.00000000000E+00 0.  1.
         22    1    3    3    0    0  0.22728324113E+02 -0.46178784737E+02  0.10770828568E+03  0.11937391541E+03  0.00000000000E+00 0.  1.
</event>
<event>
 7    1  0.6507405E-006  0.1188567E+03  0.7818608E-02  0.1266586E+00
          2   -1    0    0  502    0  0.00000000000E+00  0.00000000000E+00  0.59408260803E+03  0.59408260803E+03  0.00000000000E+00 0. -1.
          1   -1    0    0  501    0 -0.00000000000E+00 -0.00000000000E+00 -0.72987203678E+03  0.72987203678E+03  0.00000000000E+00 0. -1.
         25    2    1    2    0    0  0.64753767676E+02 -0.17912838451E+03  0.17190320007E+03  0.28540370572E+03  0.12499814590E+03 0.  0.
          2    1    1    2  501    0 -0.66377976713E+02  0.69342656563E+02 -0.66133016247E+03  0.66826044594E+03  0.00000000000E+00 0. -1.
          1    1    1    2  502    0  0.16242090379E+01  0.10978572795E+03  0.35363753366E+03  0.37029049316E+03  0.00000000000E+00 0. -1.
         22    1    3    3    0    0  0.50489599039E+02 -0.83946723084E+02  0.11894629228E+02  0.98679958107E+02  0.00000000000E+00 0. -1.
         22    1    3    3    0    0  0.14264168636E+02 -0.95181661427E+02  0.16000857084E+03  0.18672374761E+03  0.00000000000E+00 0. -1.
</event>
<event>
 7    1  0.6507405E-006  0.3507744E+02  0.7818608E-02  0.1564939E+00
          2   -1    0    0  502    0  0.00000000000E+00  0.00000000000E+00  0.24298983109E+04  0.24298983109E+04  0.00000000000E+00 0. -1.
          1   -1    0    0  501    0 -0.00000000000E+00 -0.00000000000E+00 -0.19963245914E+03  0.19963245914E+03  0.00000000000E+00 0. -1.
         25    2    1    2    0    0  0.43118439776E+02 -0.48708821001E+02  0.79829464174E+03  0.81063598693E+03  0.12499847671E+03 0.  0.
          2    1    1    2  501    0 -0.24060356927E+02  0.20289350767E+02 -0.19200031980E+03  0.19456279535E+03  0.00000000000E+00 0. -1.
          1    1    1    2  502    0 -0.19058082849E+02  0.28419470234E+02  0.16239715298E+04  0.16243319877E+04  0.00000000000E+00 0. -1.
         22    1    3    3    0    0 -0.10453343349E+02  0.34490240276E+02  0.33242463815E+03  0.33437253044E+03  0.00000000000E+00 0. -1.
         22    1    3    3    0    0  0.53571783125E+02 -0.83199061277E+02  0.46587000359E+03  0.47626345650E+03  0.00000000000E+00 0. -1.
</event>
<event>
 7    1  0.6507405E-006  0.6870847E+02  0.7818608E-02  0.1394412E+00
          2   -1    0    0  502    0  0.00000000000E+00  0.00000000000E+00  0.53725228139E+03  0.53725228139E+03  0.00000000000E+00 0. -1.
          1   -1    0    0  501    0 -0.00000000000E+00 -0.00000000000E+00 -0.48722907769E+03  0.48722907769E+03  0.00000000000E+00 0. -1.
         25    2    1    2    0    0  0.18027288795E+02 -0.15783528438E+02  0.16571919030E+03  0.20895511270E+03  0.12500114471E+03 0.  0.
          2    1    1    2  501    0  0.36112632200E+02 -0.39934761610E+02 -0.45970831337E+03  0.46285055987E+03  0.00000000000E+00 0. -1.
          1    1    1    2  502    0 -0.54139920996E+02  0.55718290048E+02  0.34401232677E+03  0.35267568652E+03  0.00000000000E+00 0. -1.
         22    1    3    3    0    0 -0.47016171189E+02  0.44394746943E+01  0.26959567876E+02  0.54378742068E+02  0.00000000000E+00 0.  1.
         22    1    3    3    0    0  0.65043459984E+02 -0.20223003132E+02  0.13875962242E+03  0.15457637063E+03  0.00000000000E+00 0.  1.
</event>
<event>
 7    1  0.6507405E-006  0.6975465E+02  0.7818608E-02  0.1366441E+00
          2   -1    0    0  502    0  0.00000000000E+00  0.00000000000E+00  0.23703705937E+03  0.23703705937E+03  0.00000000000E+00 0. -1.
          1   -1    0    0  501    0 -0.00000000000E+00 -0.00000000000E+00 -0.13328748008E+03  0.13328748008E+03  0.00000000000E+00 0. -1.
         25    2    1    2    0    0 -0.48298941013E+02  0.39171782711E+02  0.13604521301E+02  0.14027607949E+03  0.12500031685E+03 0.  0.
          2    1    1    2  501    0  0.62449752899E+02  0.31076350871E+02 -0.40776458547E+02  0.80798705387E+02  0.00000000000E+00 0. -1.
          1    1    1    2  502    0 -0.14150811886E+02 -0.70248133582E+02  0.13092151653E+03  0.14924975457E+03  0.00000000000E+00 0. -1.
         22    1    3    3    0    0 -0.52170814438E+02  0.52260328083E+02 -0.40675954241E+02  0.84305806585E+02  0.00000000000E+00 0.  1.
         22    1    3    3    0    0  0.38718734258E+01 -0.13088545372E+02  0.54280475542E+02  0.55970272903E+02  0.00000000000E+00 0.  1.
</event>
<event>
 7    1  0.6507405E-006  0.7059543E+02  0.7818608E-02  0.1416632E+00
          2   -1    0    0  502    0  0.00000000000E+00  0.00000000000E+00  0.94502559390E+03  0.94502559390E+03  0.00000000000E+00 0. -1.
          1   -1    0    0  501    0 -0.00000000000E+00 -0.00000000000E+00 -0.23411254825E+02  0.23411254825E+02  0.00000000000E+00 0. -1.
         25    2    1    2    0    0  0.77796865046E+02 -0.16968325393E+02  0.70037126408E+03  0.71588048643E+03  0.12499874810E+03 0.  0.
          2    1    1    2  501    0 -0.13619657025E+02  0.41850086880E+02  0.43194076805E+02  0.61665655760E+02  0.00000000000E+00 0. -1.
          1    1    1    2  502    0 -0.64177208021E+02 -0.24881761487E+02  0.17804899819E+03  0.19089070653E+03  0.00000000000E+00 0. -1.
         22    1    3    3    0    0  0.10426859018E+03 -0.25167954836E+02  0.64609987286E+03  0.65494305902E+03  0.00000000000E+00 0. -1.
         22    1    3    3    0    0 -0.26471725134E+02  0.81996294424E+01  0.54271391216E+02  0.60937427408E+02  0.00000000000E+00 0. -1.
</event>
<event>
 7    1  0.6507405E-006  0.4727856E+02  0.7818608E-02  0.1540118E+00
          2   -1    0    0  502    0  0.00000000000E+00  0.00000000000E+00  0.69530177486E+03  0.69530177486E+03  0.00000000000E+00 0. -1.
          1   -1    0    0  501    0 -0.00000000000E+00 -0.00000000000E+00 -0.14004981150E+04  0.14004981150E+04  0.00000000000E+00 0. -1.
         25    2    1    2    0    0 -0.41121796499E+02  0.10717225352E+02 -0.25609235166E+03  0.28812145018E+03  0.12499926563E+03 0.  0.
          2    1    1    2  501    0  0.31042081194E+02 -0.36166052831E+02 -0.11276118587E+04  0.11286186681E+04  0.00000000000E+00 0. -1.
          1    1    1    2  502    0  0.10079715305E+02  0.25448827479E+02  0.67850787019E+03  0.67905977159E+03  0.00000000000E+00 0. -1.
         22    1    3    3    0    0 -0.87828462742E+00 -0.50365661295E+02 -0.57276750077E+02  0.76276453254E+02  0.00000000000E+00 0.  1.
         22    1    3    3    0    0 -0.40243511872E+02  0.61082886647E+02 -0.19881560158E+03  0.21184499692E+03  0.00000000000E+00 0.  1.
</event>
<event>
 7    1  0.6507405E-006  0.5234465E+02  0.7818608E-02  0.1567435E+00
          2   -1    0    0  502    0  0.00000000000E+00  0.00000000000E+00  0.88899310720E+03  0.88899310720E+03  0.00000000000E+00 0. -1.
          1   -1    0    0  501    0 -0.00000000000E+00 -0.00000000000E+00 -0.10766058295E+04  0.10766058295E+04  0.00000000000E+00 0. -1.
         25    2    1    2    0    0  0.52038275180E+02  0.48993734440E+02 -0.10588217721E+03  0.17873090833E+03  0.12500133618E+03 0.  0.
          2    1    1    2  501    0 -0.33419476360E+02 -0.39805576500E+02 -0.93344984824E+03  0.93489569713E+03  0.00000000000E+00 0. -1.
          1    1    1    2  502    0 -0.18618798820E+02 -0.91881579394E+01  0.85171930312E+03  0.85197233126E+03  0.00000000000E+00 0. -1.
         22    1    3    3    0    0 -0.23027841832E+02  0.62006609969E+02 -0.35787060557E+02  0.75205151969E+02  0.00000000000E+00 0.  1.
         22    1    3    3    0    0  0.75066117012E+02 -0.13012875529E+02 -0.70095116649E+02  0.10352575636E+03  0.00000000000E+00 0.  1.
</event>
<event>
 7    1  0.6507405E-006  0.7476790E+02  0.7818608E-02  0.1392783E+00
          2   -1    0    0  502    0  0.00000000000E+00  0.00000000000E+00  0.12433508907E+04  0.12433508907E+04  0.00000000000E+00 0. -1.
          1   -1    0    0  501    0 -0.00000000000E+00 -0.00000000000E+00 -0.17699576135E+03  0.17699576135E+03  0.00000000000E+00 0. -1.
         25    2    1    2    0    0 -0.84137849425E+02  0.87923840480E+02  0.19177412182E+03  0.25925426838E+03  0.12500272973E+03 0.  0.
          2    1    1    2  501    0  0.56334677703E+02 -0.46214404470E+02 -0.13332682342E+03  0.15193883288E+03  0.00000000000E+00 0. -1.
          1    1    1    2  502    0  0.27803171722E+02 -0.41709436010E+02  0.10079078309E+04  0.10091535508E+04  0.00000000000E+00 0. -1.
         22    1    3    3    0    0 -0.12808270321E+02  0.95165056918E+02  0.14407135868E+03  0.17313866188E+03  0.00000000000E+00 0.  1.
         22    1    3    3    0    0 -0.71329579104E+02 -0.72412164372E+01  0.47702763145E+02  0.86115606497E+02  0.00000000000E+00 0.  1.
</event>
<event>
 7    1  0.6507405E-006  0.1444753E+03  0.7818608E-02  0.1341364E+00
          2   -1    0    0  502    0  0.00000000000E+00  0.00000000000E+00  0.10939927606E+04  0.10939927606E+04  0.00000000000E+00 0. -1.
          1   -1    0    0  501    0 -0.00000000000E+00 -0.00000000000E+00 -0.49485499510E+02  0.49485499510E+02  0.00000000000E+00 0. -1.
         25    2    1    2    0    0 -0.58652792439E+02  0.11857310577E+03  0.20761860988E+03  0.27609816761E+03  0.12499991806E+03 0.  0.
          2    1    1    2  501    0  0.29896021507E+02  0.26250945118E+02  0.38190807103E+02  0.55149088557E+02  0.00000000000E+00 0. -1.
          1    1    1    2  502    0  0.28756770932E+02 -0.14482405088E+03  0.79869784413E+03  0.81223100397E+03  0.00000000000E+00 0. -1.
         22    1    3    3    0    0 -0.84715995403E+02  0.12863842548E+03  0.17377103172E+03  0.23220899175E+03  0.00000000000E+00 0. -1.
         22    1    3    3    0    0  0.26063202964E+02 -0.10065319714E+02  0.33847578161E+02  0.43889175853E+02  0.00000000000E+00 0. -1.
</event>
<event>
 7    1  0.6507405E-006  0.8854654E+02  0.7818608E-02  0.1308187E+00
          2   -1    0    0  502    0  0.00000000000E+00  0.00000000000E+00  0.32746870020E+04  0.32746870020E+04  0.00000000000E+00 0. -1.
          1   -1    0    0  501    0 -0.00000000000E+00 -0.00000000000E+00 -0.83856398469E+03  0.83856398469E+03  0.00000000000E+00 0. -1.
         25    2    1    2    0    0 -0.54431269007E+02 -0.70492668639E+00  0.16530658242E+04  0.16586785616E+04  0.12499876675E+03 0.  0.
          2    1    1    2  501    0  0.30754840906E+02 -0.83140469569E+02 -0.83222973119E+03  0.83693758632E+03  0.00000000000E+00 0. -1.
          1    1    1    2  502    0  0.23676428100E+02  0.83845396255E+02  0.16152869243E+04  0.16176348388E+04  0.00000000000E+00 0. -1.
         22    1    3    3    0    0  0.27739446595E+02  0.18419706307E+02  0.94776313660E+03  0.94834789269E+03  0.00000000000E+00 0. -1.
         22    1    3    3    0    0 -0.82170715602E+02 -0.19124632993E+02  0.70530268759E+03  0.71033066892E+03  0.00000000000E+00 0. -1.
</event>
<event>
 7    1  0.6507405E-006  0.1940227E+03  0.7818608E-02  0.1159447E+00
          2   -1    0    0  502    0  0.00000000000E+00  0.00000000000E+00  0.56841604757E+03  0.56841604757E+03  0.00000000000E+00 0. -1.
          1   -1    0    0  501    0 -0.00000000000E+00 -0.00000000000E+00 -0.57411530783E+03  0.57411530783E+03  0.00000000000E+00 0. -1.
         25    2    1    2    0    0 -0.19542397971E+02  0.12126916563E+03 -0.12017763603E+03  0.21249432976E+03  0.12499224026E+03 0.  0.
          2    1    1    2  501    0 -0.88000801233E+02 -0.27048724170E+03 -0.33790717708E+03  0.44168852064E+03  0.00000000000E+00 0. -1.
          1    1    1    2  502    0  0.10754319920E+03  0.14921807607E+03  0.45238555285E+03  0.48834850501E+03  0.00000000000E+00 0. -1.
         22    1    3    3    0    0 -0.20608423597E+02  0.14204611976E+03 -0.73211002492E+02  0.16112621806E+03  0.00000000000E+00 0. -1.
         22    1    3    3    0    0  0.10660256261E+01 -0.20776954122E+02 -0.46966633541E+02  0.51368111698E+02  0.00000000000E+00 0. -1.
</event>
<event>
 7    1  0.6507405E-006  0.9883862E+02  0.7818608E-02  0.1339090E+00
          2   -1    0    0  502    0  0.00000000000E+00  0.00000000000E+00  0.16809534502E+03  0.16809534502E+03  0.00000000000E+00 0. -1.
          1   -1    0    0  501    0 -0.00000000000E+00 -0.00000000000E+00 -0.32242452647E+04  0.32242452647E+04  0.00000000000E+00 0. -1.
         25    2    1    2    0    0 -0.41228647275E+02 -0.10430591391E+03 -0.37570245929E+02  0.17209746496E+03  0.12500595599E+03 0.  0.
          2    1    1    2  501    0 -0.17666359639E+02  0.97287007820E+02 -0.31098349686E+04  0.31114064978E+04  0.00000000000E+00 0. -1.
          1    1    1    2  502    0  0.58895006914E+02  0.70189060943E+01  0.91255294890E+02  0.10883664699E+03  0.00000000000E+00 0. -1.
         22    1    3    3    0    0  0.14723647944E+02 -0.24153831193E+02 -0.64733014450E+02  0.70643871142E+02  0.00000000000E+00 0. -1.
         22    1    3    3    0    0 -0.55952295219E+02 -0.80152082721E+02  0.27162768521E+02  0.10145359382E+03  0.00000000000E+00 0. -1.
</event>
<event>
 7    1  0.6507405E-006  0.1215226E+03  0.7818608E-02  0.1346383E+00
          2   -1    0    0  502    0  0.00000000000E+00  0.00000000000E+00  0.18171974015E+04  0.18171974015E+04  0.00000000000E+00 0. -1.
          1   -1    0    0  501    0 -0.00000000000E+00 -0.00000000000E+00 -0.26320474123E+04  0.26320474123E+04  0.00000000000E+00 0. -1.
         25    2    1    2    0    0  0.10236564605E+03  0.26176091206E+02  0.43029374330E+03  0.46036921546E+03  0.12499278290E+03 0.  0.
          2    1    1    2  501    0 -0.12063285631E+03  0.15276598614E+02 -0.26152226848E+04  0.26180480041E+04  0.00000000000E+00 0. -1.
          1    1    1    2  502    0  0.18267210260E+02 -0.41452689820E+02  0.13700789308E+04  0.13708275942E+04  0.00000000000E+00 0. -1.
         22    1    3    3    0    0  0.11535213864E+03  0.46483252730E+02  0.41126868793E+03  0.42966119484E+03  0.00000000000E+00 0.  1.
         22    1    3    3    0    0 -0.12986492589E+02 -0.20307161524E+02  0.19025055365E+02  0.30708020623E+02  0.00000000000E+00 0.  1.
</event>
<event>
 7    1  0.6507405E-006  0.5555754E+02  0.7818608E-02  0.1468010E+00
          2   -1    0    0  502    0  0.00000000000E+00  0.00000000000E+00  0.77547134076E+03  0.77547134076E+03  0.00000000000E+00 0. -1.
          1   -1    0    0  501    0 -0.00000000000E+00 -0.00000000000E+00 -0.89478699494E+02  0.89478699494E+02  0.00000000000E+00 0. -1.
         25    2    1    2    0    0  0.83502206412E+02  0.32765996375E+02  0.12498845820E+03  0.19822512145E+03  0.12499942039E+03 0.  0.
          2    1    1    2  501    0 -0.51367525750E+02 -0.12228747034E+02 -0.38915637681E+02  0.65594144646E+02  0.00000000000E+00 0. -1.
          1    1    1    2  502    0 -0.32134680662E+02 -0.20537249342E+02  0.59991982075E+03  0.60113077416E+03  0.00000000000E+00 0. -1.
         22    1    3    3    0    0  0.39863122611E+02 -0.21531536172E+02 -0.99323363681E+01  0.46382398601E+02  0.00000000000E+00 0.  1.
         22    1    3    3    0    0  0.43639083801E+02  0.54297532548E+02  0.13492079456E+03  0.15184272285E+03  0.00000000000E+00 0.  1.
</event>
<event>
 7    1  0.6507405E-006  0.1029392E+03  0.7818608E-02  0.1367198E+00
          2   -1    0    0  502    0  0.00000000000E+00  0.00000000000E+00  0.53235320690E+03  0.53235320690E+03  0.00000000000E+00 0. -1.
          1   -1    0    0  501    0 -0.00000000000E+00 -0.00000000000E+00 -0.50890457803E+03  0.50890457803E+03  0.00000000000E+00 0. -1.
         25    2    1    2    0    0 -0.85359870259E+01 -0.13985489904E+03  0.23953915873E+03  0.30436206618E+03  0.12500001162E+03 0.  0.
          2    1    1    2  501    0 -0.14287843739E+02  0.10123873614E+03 -0.46901225995E+03  0.48002700357E+03  0.00000000000E+00 0. -1.
          1    1    1    2  502    0  0.22823830765E+02  0.38616162901E+02  0.25292173009E+03  0.25686871518E+03  0.00000000000E+00 0. -1.
         22    1    3    3    0    0  0.22378599841E+02 -0.15248401106E+03  0.20276473377E+03  0.25468748029E+03  0.00000000000E+00 0.  1.
         22    1    3    3    0    0 -0.30914586867E+02  0.12629112019E+02  0.36774424962E+02  0.49674585885E+02  0.00000000000E+00 0.  1.
</event>
<event>
 7    1  0.6507405E-006  0.1029038E+03  0.7818608E-02  0.1317175E+00
          2   -1    0    0  502    0  0.00000000000E+00  0.00000000000E+00  0.11128496065E+04  0.11128496065E+04  0.00000000000E+00 0. -1.
          1   -1    0    0  501    0 -0.00000000000E+00 -0.00000000000E+00 -0.76662125902E+03  0.76662125902E+03  0.00000000000E+00 0. -1.
         25    2    1    2    0    0  0.40678585880E+02  0.21742555778E+02  0.22966208660E+03  0.26551515578E+03  0.12500455131E+03 0.  0.
          2    1    1    2  501    0  0.56833748539E+02  0.39339572412E+02 -0.74325873479E+03  0.74646582224E+03  0.00000000000E+00 0. -1.
          1    1    1    2  502    0 -0.97512334419E+02 -0.61082128189E+02  0.85982499563E+03  0.86748988747E+03  0.00000000000E+00 0. -1.
         22    1    3    3    0    0  0.83698675763E+02  0.22144075558E+02  0.18047750702E+03  0.20016982527E+03  0.00000000000E+00 0. -1.
         22    1    3    3    0    0 -0.43020089883E+02 -0.40151978044E+00  0.49184579577E+02  0.65345330513E+02  0.00000000000E+00 0. -1.
</event>
<event>
 7    1  0.6507405E-006  0.5927915E+02  0.7818608E-02  0.1432564E+00
          2   -1    0    0  502    0  0.00000000000E+00  0.00000000000E+00  0.12110337074E+03  0.12110337074E+03  0.00000000000E+00 0. -1.
          1   -1    0    0  501    0 -0.00000000000E+00 -0.00000000000E+00 -0.75427811116E+03  0.75427811116E+03  0.00000000000E+00 0. -1.
         25    2    1    2    0    0  0.44420333352E+02 -0.36078715039E+02 -0.96533124413E+02  0.16799104706E+03  0.12501003196E+03 0.  0.
          2    1    1    2  501    0 -0.45935053892E+01  0.59896388377E+02 -0.61413445382E+03  0.61706547870E+03  0.00000000000E+00 0. -1.
          1    1    1    2  502    0 -0.39826827963E+02 -0.23817673338E+02  0.77492837814E+02  0.90324956138E+02  0.00000000000E+00 0. -1.
         22    1    3    3    0    0  0.13753188432E+02 -0.43160043198E+02 -0.12030364243E+03  0.12854923533E+03  0.00000000000E+00 0.  1.
         22    1    3    3    0    0  0.30667144921E+02  0.70813281590E+01  0.23770518018E+02  0.39441811735E+02  0.00000000000E+00 0.  1.
</event>
<event>
 7    1  0.6507405E-006  0.5672565E+02  0.7818608E-02  0.1414048E+00
          2   -1    0    0  502    0  0.00000000000E+00  0.00000000000E+00  0.11209732282E+03  0.11209732282E+03  0.00000000000E+00 0. -1.
          1   -1    0    0  501    0 -0.00000000000E+00 -0.00000000000E+00 -0.30849152134E+04  0.30849152134E+04  0.00000000000E+00 0. -1.
         25    2    1    2    0    0  0.49162012321E+02  0.30278388039E+02 -0.22560223040E+02  0.13952699681E+03  0.12500053975E+03 0.  0.
          2    1    1    2  501    0 -0.46560423403E+02  0.30894599307E+02 -0.29860435618E+04  0.29865663398E+04  0.00000000000E+00 0. -1.
          1    1    1    2  502    0 -0.26015889180E+01 -0.61172987346E+02  0.35785894227E+02  0.70919199596E+02  0.00000000000E+00 0. -1.
         22    1    3    3    0    0  0.18811998674E+02 -0.43937090707E+02  0.16203543053E+02  0.50466959898E+02  0.00000000000E+00 0.  1.
         22    1    3    3    0    0  0.30350013646E+02  0.74215478746E+02 -0.38763766094E+02  0.89060036916E+02  0.00000000000E+00 0.  1.
</event>
<event>
 7    1  0.6507405E-006  0.5224258E+02  0.7818608E-02  0.1497138E+00
          2   -1    0    0  502    0  0.00000000000E+00  0.00000000000E+00  0.29898349664E+04  0.29898349664E+04  0.00000000000E+00 0. -1.
          1   -1    0    0  501    0 -0.00000000000E+00 -0.00000000000E+00 -0.11805474559E+03  0.11805474559E+03  0.00000000000E+00 0. -1.
         25    2    1    2    0    0 -0.18006949323E+02 -0.24699235118E+02  0.14521391718E+04  0.14578304467E+04  0.12500853888E+03 0.  0.
          2    1    1    2  501    0 -0.67486729349E-01  0.52355350643E+02 -0.10907332263E+03  0.12098792090E+03  0.00000000000E+00 0. -1.
          1    1    1    2  502    0  0.18074436052E+02 -0.27656115525E+02  0.15287143717E+04  0.15290713443E+04  0.00000000000E+00 0. -1.
         22    1    3    3    0    0 -0.16279299793E+02  0.49620914724E+02  0.73339102435E+03  0.73524801623E+03  0.00000000000E+00 0.  1.
         22    1    3    3    0    0 -0.17276495302E+01 -0.74320149842E+02  0.71874814741E+03  0.72258243049E+03  0.00000000000E+00 0.  1.
</event>
<event>
 7    1  0.6507405E-006  0.1574338E+03  0.7818608E-02  0.1308841E+00
          2   -1    0    0  502    0  0.00000000000E+00  0.00000000000E+00  0.42558725626E+03  0.42558725626E+03  0.00000000000E+00 0. -1.
          1   -1    0    0  501    0 -0.00000000000E+00 -0.00000000000E+00 -0.15978105730E+04  0.15978105730E+04  0.00000000000E+00 0. -1.
         25    2    1    2    0    0  0.12570432190E+03  0.63568202570E+01 -0.88644345143E+03  0.90401851433E+03  0.12500198380E+03 0.  0.
          2    1    1    2  501    0  0.28871266348E+02 -0.39233431215E+02 -0.68670585673E+03  0.68843136608E+03  0.00000000000E+00 0. -1.
          1    1    1    2  502    0 -0.15457558825E+03  0.32876610958E+02  0.40092599141E+03  0.43094794886E+03  0.00000000000E+00 0. -1.
         22    1    3    3    0    0 -0.17216465698E+02  0.98968593392E+01 -0.31736717963E+02  0.37437598521E+02  0.00000000000E+00 0. -1.
         22    1    3    3    0    0  0.14292078760E+03 -0.35400390822E+01 -0.85470673347E+03  0.86658091581E+03  0.00000000000E+00 0. -1.
</event>
<event>
 7    1  0.6507405E-006  0.1132533E+03  0.7818608E-02  0.1307921E+00
          2   -1    0    0  502    0  0.00000000000E+00  0.00000000000E+00  0.74566848923E+03  0.74566848923E+03  0.00000000000E+00 0. -1.
          1   -1    0    0  501    0 -0.00000000000E+00 -0.00000000000E+00 -0.12031517039E+04  0.12031517039E+04  0.00000000000E+00 0. -1.
         25    2    1    2    0    0  0.15834863093E+02  0.14808267470E+03 -0.56449504310E+03  0.59704209995E+03  0.12500157598E+03 0.  0.
          2    1    1    2  501    0  0.33288580765E+02 -0.10065460797E+03 -0.61624868063E+03  0.62530146017E+03  0.00000000000E+00 0. -1.
          1    1    1    2  502    0 -0.49123443858E+02 -0.47428066734E+02  0.72326050909E+03  0.72647663298E+03  0.00000000000E+00 0. -1.
         22    1    3    3    0    0 -0.55025656708E+02  0.65217312690E+02 -0.25597459739E+03  0.26982237728E+03  0.00000000000E+00 0. -1.
         22    1    3    3    0    0  0.70860519801E+02  0.82865362010E+02 -0.30852044571E+03  0.32721972268E+03  0.00000000000E+00 0. -1.
</event>
<event>
 7    1  0.6507405E-006  0.3188347E+02  0.7818608E-02  0.1579237E+00
          2   -1    0    0  502    0  0.00000000000E+00  0.00000000000E+00  0.13449868249E+04  0.13449868249E+04  0.00000000000E+00 0. -1.
          1   -1    0    0  501    0 -0.00000000000E+00 -0.00000000000E+00 -0.34478954083E+03  0.34478954083E+03  0.00000000000E+00 0. -1.
         25    2    1    2    0    0 -0.17499197224E+02  0.22532944870E+02  0.23189957897E+02  0.13029242041E+03  0.12499754062E+03 0.  0.
          2    1    1    2  501    0  0.31012939857E+02  0.64231453289E+01 -0.29017526990E+03  0.29189852089E+03  0.00000000000E+00 0. -1.
          1    1    1    2  502    0 -0.13513742633E+02 -0.28956090199E+02  0.12671825961E+04  0.12675854245E+04  0.00000000000E+00 0. -1.
         22    1    3    3    0    0  0.34681889233E+02  0.23613908976E+02 -0.33164342815E+02  0.53481994841E+02  0.00000000000E+00 0. -1.
         22    1    3    3    0    0 -0.52181086457E+02 -0.10809641060E+01  0.56354300712E+02  0.76810425568E+02  0.00000000000E+00 0. -1.
</event>
<event>
 7    1  0.6507405E-006  0.1349006E+03  0.7818608E-02  0.1345313E+00
          2   -1    0    0  502    0  0.00000000000E+00  0.00000000000E+00  0.12291763747E+03  0.12291763747E+03  0.00000000000E+00 0. -1.
          1   -1    0    0  501    0 -0.00000000000E+00 -0.00000000000E+00 -0.21042891870E+04  0.21042891870E+04  0.00000000000E+00 0. -1.
         25    2    1    2    0    0  0.19849169224E+02 -0.13724959257E+03 -0.14850688437E+03  0.23856027206E+03  0.12500107408E+03 0.  0.
          2    1    1    2  501    0  0.38282397830E+02  0.15183278944E+02 -0.18516836200E+04  0.18521415449E+04  0.00000000000E+00 0. -1.
          1    1    1    2  502    0 -0.58131567053E+02  0.12206631363E+03  0.18818954800E+02  0.13650500749E+03  0.00000000000E+00 0. -1.
         22    1    3    3    0    0  0.30853925214E+02 -0.10248710429E+03 -0.16647331625E+03  0.19791143542E+03  0.00000000000E+00 0.  1.
         22    1    3    3    0    0 -0.11004755991E+02 -0.34762488281E+02  0.17966431879E+02  0.40648836642E+02  0.00000000000E+00 0.  1.
</event>
<event>
 7    1  0.6507405E-006  0.1685349E+03  0.7818608E-02  0.1388505E+00
          2   -1    0    0  502    0  0.00000000000E+00  0.00000000000E+00  0.59355295829E+03  0.59355295829E+03  0.00000000000E+00 0. -1.
          1   -1    0    0  501    0 -0.00000000000E+00 -0.00000000000E+00 -0.10900983860E+04  0.10900983860E+04  0.00000000000E+00 0. -1.
         25    2    1    2    0    0 -0.13006413924E+03 -0.10926048839E+03  0.22269859467E+03  0.30672407909E+03  0.12502184605E+03 0.  0.
          2    1    1    2  501    0  0.14254592432E+03  0.89924198424E+02 -0.10408962021E+04  0.10544527517E+04  0.00000000000E+00 0. -1.
          1    1    1    2  502    0 -0.12481785082E+02  0.19336289963E+02  0.32165217978E+03  0.32247451346E+03  0.00000000000E+00 0. -1.
         22    1    3    3    0    0 -0.10781931174E+03 -0.44745805656E+02  0.62094629601E+02  0.13222304691E+03  0.00000000000E+00 0.  1.
         22    1    3    3    0    0 -0.22244827498E+02 -0.64514682731E+02  0.16060396506E+03  0.17450103218E+03  0.00000000000E+00 0.  1.
</event>
<event>
 7    1  0.6507405E-006  0.9200608E+02  0.7818608E-02  0.1326496E+00
          2   -1    0    0  502    0  0.00000000000E+00  0.00000000000E+00  0.16626429405E+04  0.16626429405E+04  0.00000000000E+00 0. -1.
          1   -1    0    0  501    0 -0.00000000000E+00 -0.00000000000E+00 -0.39368452311E+02  0.39368452311E+02  0.00000000000E+00 0. -1.
         25    2    1    2    0    0  0.39563369075E+02 -0.98083750724E+02  0.27194884973E+03  0.31743644143E+03  0.12499614053E+03 0.  0.
          2    1    1    2  501    0 -0.70362254570E+02  0.10541674526E+02  0.69719088827E+02  0.99612876260E+02  0.00000000000E+00 0. -1.
          1    1    1    2  502    0  0.30798885495E+02  0.87542076198E+02  0.12816065497E+04  0.12849620752E+04  0.00000000000E+00 0. -1.
         22    1    3    3    0    0 -0.40679710515E+02 -0.64141434754E+01  0.82288397137E+02  0.92018261163E+02  0.00000000000E+00 0. -1.
         22    1    3    3    0    0  0.80243079590E+02 -0.91669607248E+02  0.18966045260E+03  0.22541818027E+03  0.00000000000E+00 0. -1.
</event>
<event>
 7    1  0.6507405E-006  0.2280156E+03  0.7818608E-02  0.1170352E+00
          2   -1    0    0  502    0  0.00000000000E+00  0.00000000000E+00  0.53329801399E+03  0.53329801399E+03  0.00000000000E+00 0. -1.
          1   -1    0    0  501    0 -0.00000000000E+00 -0.00000000000E+00 -0.77300057504E+03  0.77300057504E+03  0.00000000000E+00 0. -1.
         25    2    1    2    0    0 -0.25963296107E+03  0.19131676694E+03 -0.33096409002E+03  0.47872142098E+03  0.12500236093E+03 0.  0.
          2    1    1    2  501    0  0.45343551774E+02 -0.13034436303E+03 -0.32630638737E+03  0.35429020463E+03  0.00000000000E+00 0. -1.
          1    1    1    2  502    0  0.21428940930E+03 -0.60972403911E+02  0.41756791635E+03  0.47328696342E+03  0.00000000000E+00 0. -1.
         22    1    3    3    0    0 -0.23934340896E+03  0.17051871350E+03 -0.22860952664E+03  0.37232272928E+03  0.00000000000E+00 0. -1.
         22    1    3    3    0    0 -0.20289552109E+02  0.20798053443E+02 -0.10235456338E+03  0.10639869170E+03  0.00000000000E+00 0. -1.
</event>
<event>
 7    1  0.6507405E-006  0.7704209E+02  0.7818608E-02  0.1414798E+00
          2   -1    0    0  502    0  0.00000000000E+00  0.00000000000E+00  0.21610790757E+04  0.21610790757E+04  0.00000000000E+00 0. -1.
          1   -1    0    0  501    0 -0.00000000000E+00 -0.00000000000E+00 -0.13022503265E+04  0.13022503265E+04  0.00000000000E+00 0. -1.
         25    2    1    2    0    0  0.46688147027E+02  0.94013682553E+02  0.93044862580E+03  0.94465752772E+03  0.12499937543E+03 0.  0.
          2    1    1    2  501    0 -0.54956974534E+02 -0.53954120295E+02 -0.12936584710E+04  0.12959489016E+04  0.00000000000E+00 0. -1.
          1    1    1    2  502    0  0.82688275078E+01 -0.40059562258E+02  0.12220385944E+04  0.12227229728E+04  0.00000000000E+00 0. -1.
         22    1    3    3    0    0  0.88313873573E+02  0.57557737832E+02  0.68386103220E+03  0.69193796313E+03  0.00000000000E+00 0. -1.
         22    1    3    3    0    0 -0.41625726547E+02  0.36455944721E+02  0.24658759359E+03  0.25271956460E+03  0.00000000000E+00 0. -1.
</event>
<event>
 7    1  0.6507405E-006  0.6846114E+02  0.7818608E-02  0.1406064E+00
          2   -1    0    0  502    0  0.00000000000E+00  0.00000000000E+00  0.42976334526E+03  0.42976334526E+03  0.00000000000E+00 0. -1.
          1   -1    0    0  501    0 -0.00000000000E+00 -0.00000000000E+00 -0.27102004446E+04  0.27102004446E+04  0.00000000000E+00 0. -1.
         25    2    1    2    0    0 -0.80603575878E+02  0.70091467321E+02 -0.86099012089E+03  0.87654495405E+03  0.12496926814E+03 0.  0.
          2    1    1    2  501    0  0.61074919230E+02 -0.24850797611E+02 -0.18394016791E+04  0.18405831264E+04  0.00000000000E+00 0. -1.
          1    1    1    2  502    0  0.19528656647E+02 -0.45240669710E+02  0.41995470063E+03  0.42283570947E+03  0.00000000000E+00 0. -1.
         22    1    3    3    0    0 -0.66133167683E+02  0.72132401712E+02 -0.30399514874E+03  0.31935830927E+03  0.00000000000E+00 0.  1.
         22    1    3    3    0    0 -0.14470408195E+02 -0.20409343903E+01 -0.55699497215E+03  0.55718664478E+03  0.00000000000E+00 0.  1.
</event>
<event>
 7    1  0.6507405E-006  0.1091186E+03  0.7818608E-02  0.1279992E+00
          2   -1    0    0  502    0  0.00000000000E+00  0.00000000000E+00  0.13212809285E+04  0.13212809285E+04  0.00000000000E+00 0. -1.
          1   -1    0    0  501    0 -0.00000000000E+00 -0.00000000000E+00 -0.16140743936E+03  0.16140743936E+03  0.00000000000E+00 0. -1.
         25    2    1    2    0    0 -0.90567320708E+01  0.32960857064E+02  0.67739789091E+03  0.68968275051E+03  0.12500380492E+03 0.  0.
          2    1    1    2  501    0 -0.58766558797E+02 -0.94986832364E+02 -0.13130251028E+03  0.17238432632E+03  0.00000000000E+00 0. -1.
          1    1    1    2  502    0  0.67823290868E+02  0.62025975300E+02  0.61377810848E+03  0.62062129100E+03  0.00000000000E+00 0. -1.
         22    1    3    3    0    0  0.17325996667E+01  0.34717608002E+02  0.67785124044E+03  0.67874193798E+03  0.00000000000E+00 0. -1.
         22    1    3    3    0    0 -0.10789331737E+02 -0.17567509380E+01 -0.45334952019E+00  0.10940812538E+02  0.00000000000E+00 0. -1.
</event>
<event>
 7    1  0.6507405E-006  0.3311402E+02  0.7818608E-02  0.1573220E+00
          2   -1    0    0  502    0  0.00000000000E+00  0.00000000000E+00  0.72269303842E+03  0.72269303842E+03  0.00000000000E+00 0. -1.
          1   -1    0    0  501    0 -0.00000000000E+00 -0.00000000000E+00 -0.40137041881E+02  0.40137041881E+02  0.00000000000E+00 0. -1.
         25    2    1    2    0    0 -0.26072233410E+02 -0.52101795914E+02  0.28568889787E+03  0.31723153319E+03  0.12499336299E+03 0.  0.
          2    1    1    2  501    0  0.25081925739E+02  0.20463119731E+02 -0.12727494545E+02  0.34782630512E+02  0.00000000000E+00 0. -1.
          1    1    1    2  502    0  0.99030767069E+00  0.31638676183E+02  0.40959459321E+03  0.41081591659E+03  0.00000000000E+00 0. -1.
         22    1    3    3    0    0  0.50376163635E+02 -0.14079247834E+02  0.11725590840E+03  0.12839365692E+03  0.00000000000E+00 0. -1.
         22    1    3    3    0    0 -0.76448397045E+02 -0.38022548080E+02  0.16843298948E+03  0.18883787628E+03  0.00000000000E+00 0. -1.
</event>
<event>
 7    1  0.7222213E-006  0.3443406E+02  0.7818608E-02  0.1563748E+00
          2   -1    0    0  502    0  0.00000000000E+00  0.00000000000E+00  0.10500290614E+04  0.10500290614E+04  0.00000000000E+00 0. -1.
          1   -1    0    0  501    0 -0.00000000000E+00 -0.00000000000E+00 -0.13918029998E+04  0.13918029998E+04  0.00000000000E+00 0. -1.
         25    2    1    2    0    0 -0.45284251779E+02 -0.96272804381E+01 -0.31078870186E+03  0.33817000015E+03  0.12500393519E+03 0.  0.
          2    1    1    2  501    0  0.29153785488E+02 -0.18359806437E+02 -0.10667937576E+04  0.10673499646E+04  0.00000000000E+00 0. -1.
          1    1    1    2  502    0  0.16130466291E+02  0.27987086875E+02  0.10358085211E+04  0.10363120965E+04  0.00000000000E+00 0. -1.
         22    1    3    3    0    0 -0.28560389818E+02 -0.33695271024E+02 -0.30514279064E+03  0.30832319055E+03  0.00000000000E+00 0. -1.
         22    1    3    3    0    0 -0.16723861962E+02  0.24067990586E+02 -0.56459112236E+01  0.29846809600E+02  0.00000000000E+00 0. -1.
</event>
<event>
 7    1  0.6507405E-006  0.8767824E+02  0.7818608E-02  0.1377446E+00
          2   -1    0    0  502    0  0.00000000000E+00  0.00000000000E+00  0.56653818765E+03  0.56653818765E+03  0.00000000000E+00 0. -1.
          1   -1    0    0  501    0 -0.00000000000E+00 -0.00000000000E+00 -0.11966660992E+04  0.11966660992E+04  0.00000000000E+00 0. -1.
         25    2    1    2    0    0 -0.83539383222E+02 -0.82289046706E+02  0.17690145811E+03  0.24631207395E+03  0.12500078454E+03 0.  0.
          2    1    1    2  501    0  0.35192543950E+02  0.80123674118E+02 -0.11586533291E+04  0.11619534652E+04  0.00000000000E+00 0. -1.
          1    1    1    2  502    0  0.48346839272E+02  0.21653725871E+01  0.35162395947E+03  0.35493874765E+03  0.00000000000E+00 0. -1.
         22    1    3    3    0    0  0.22344646187E+02 -0.66001341972E+01 -0.38100308478E+01  0.23608501005E+02  0.00000000000E+00 0.  1.
         22    1    3    3    0    0 -0.10588402941E+03 -0.75688912508E+02  0.18071148896E+03  0.22270357294E+03  0.00000000000E+00 0.  1.
</event>
<event>
 7    1  0.6507405E-006  0.1273407E+03  0.7818608E-02  0.1375721E+00
          2   -1    0    0  502    0  0.00000000000E+00  0.00000000000E+00  0.18776025158E+04  0.18776025158E+04  0.00000000000E+00 0. -1.
          1   -1    0    0  501    0 -0.00000000000E+00 -0.00000000000E+00 -0.29856116175E+03  0.29856116175E+03  0.00000000000E+00 0. -1.
         25    2    1    2    0    0  0.14438602954E+03  0.67746271952E+02 -0.55010579617E+02  0.20998475409E+03  0.12502219879E+03 0.  0.
          2    1    1    2  501    0 -0.26548248064E+02 -0.20913558982E+02 -0.16208531012E+03  0.16557123597E+03  0.00000000000E+00 0. -1.
          1    1    1    2  502    0 -0.11783778147E+03 -0.46832712970E+02  0.17961372438E+04  0.18006076875E+04  0.00000000000E+00 0. -1.
         22    1    3    3    0    0  0.15607618535E+03  0.87203072148E+02 -0.55744958816E+02  0.18727426908E+03  0.00000000000E+00 0.  1.
         22    1    3    3    0    0 -0.11690155810E+02 -0.19456800196E+02  0.73437919876E+00  0.22710485013E+02  0.00000000000E+00 0.  1.
</event>
<event>
 7    1  0.6507405E-006  0.3936597E+02  0.7818608E-02  0.1579413E+00
          2   -1    0    0  502    0  0.00000000000E+00  0.00000000000E+00  0.69714583612E+02  0.69714583612E+02  0.00000000000E+00 0. -1.
          1   -1    0    0  501    0 -0.00000000000E+00 -0.00000000000E+00 -0.29935857267E+03  0.29935857267E+03  0.00000000000E+00 0. -1.
         25    2    1    2    0    0 -0.15128299381E+02  0.50789026818E+01 -0.21063659706E+03  0.24546552235E+03  0.12502354158E+03 0.  0.
          2    1    1    2  501    0 -0.16916525549E+02  0.19245379735E+02 -0.60567704062E+02  0.65764734114E+02  0.00000000000E+00 0. -1.
          1    1    1    2  502    0  0.32044824930E+02 -0.24324282417E+02  0.41560312064E+02  0.57842899813E+02  0.00000000000E+00 0. -1.
         22    1    3    3    0    0  0.17379967319E+02 -0.22935827413E+02 -0.19890628731E+03  0.20097717924E+03  0.00000000000E+00 0.  1.
         22    1    3    3    0    0 -0.32508266700E+02  0.28014730095E+02 -0.11730309746E+02  0.44488343113E+02  0.00000000000E+00 0.  1.
</event>
<event>
 7    1  0.6507405E-006  0.7277900E+02  0.7818608E-02  0.1387782E+00
          2   -1    0    0  502    0  0.00000000000E+00  0.00000000000E+00  0.48791291768E+03  0.48791291768E+03  0.00000000000E+00 0. -1.
          1   -1    0    0  501    0 -0.00000000000E+00 -0.00000000000E+00 -0.41992768414E+03  0.41992768414E+03  0.00000000000E+00 0. -1.
         25    2    1    2    0    0 -0.71720845764E+02 -0.84453199070E+02  0.16071796210E+03  0.23180110999E+03  0.12500107480E+03 0.  0.
          2    1    1    2  501    0  0.20277424622E+02  0.69377261164E+02 -0.37847354167E+03  0.38531363856E+03  0.00000000000E+00 0. -1.
          1    1    1    2  502    0  0.51443421142E+02  0.15075937905E+02  0.28574081311E+03  0.29072585327E+03  0.00000000000E+00 0. -1.
         22    1    3    3    0    0 -0.20133776838E+02 -0.10250359106E+03  0.69520985557E+02  0.12548116425E+03  0.00000000000E+00 0.  1.
         22    1    3    3    0    0 -0.51587068926E+02  0.18050391986E+02  0.91196976546E+02  0.10631994574E+03  0.00000000000E+00 0.  1.
</event>
<event>
 7    1  0.6507405E-006  0.2263778E+02  0.7818608E-02  0.1714071E+00
          2   -1    0    0  502    0  0.00000000000E+00  0.00000000000E+00  0.32581599164E+03  0.32581599164E+03  0.00000000000E+00 0. -1.
          1   -1    0    0  501    0 -0.00000000000E+00 -0.00000000000E+00 -0.64504594990E+03  0.64504594990E+03  0.00000000000E+00 0. -1.
         25    2    1    2    0    0 -0.23428984662E+01 -0.31168132099E+01 -0.19332663587E+03  0.23025256582E+03  0.12500340889E+03 0.  0.
          2    1    1    2  501    0  0.96738879339E+01 -0.18343786031E+02 -0.43258927366E+03  0.43308608646E+03  0.00000000000E+00 0. -1.
          1    1    1    2  502    0 -0.73309894678E+01  0.21460599241E+02  0.30668595127E+03  0.30752328925E+03  0.00000000000E+00 0. -1.
         22    1    3    3    0    0  0.43728091960E+02 -0.38253221679E+02 -0.13971722108E+03  0.15131542176E+03  0.00000000000E+00 0.  1.
         22    1    3    3    0    0 -0.46070990427E+02  0.35136408469E+02 -0.53609414789E+02  0.78937144064E+02  0.00000000000E+00 0.  1.
</event>
<event>
 7    1  0.6507405E-006  0.4925154E+02  0.7818608E-02  0.1523209E+00
          2   -1    0    0  502    0  0.00000000000E+00  0.00000000000E+00  0.46064213565E+03  0.46064213565E+03  0.00000000000E+00 0. -1.
          1   -1    0    0  501    0 -0.00000000000E+00 -0.00000000000E+00 -0.11071603626E+04  0.11071603626E+04  0.00000000000E+00 0. -1.
         25    2    1    2    0    0  0.42210178303E+02 -0.41718123766E+02 -0.47551842620E+03  0.49524258466E+03  0.12500137199E+03 0.  0.
          2    1    1    2  501    0 -0.47243425387E+02  0.12783358646E+02 -0.62033661711E+03  0.62226431203E+03  0.00000000000E+00 0. -1.
          1    1    1    2  502    0  0.50332470840E+01  0.28934765120E+02  0.44933681639E+03  0.45029560154E+03  0.00000000000E+00 0. -1.
         22    1    3    3    0    0  0.27906059982E+02 -0.15392747933E+01 -0.13108294953E+02  0.30869806400E+02  0.00000000000E+00 0. -1.
         22    1    3    3    0    0  0.14304118321E+02 -0.40178848973E+02 -0.46241013125E+03  0.46437277826E+03  0.00000000000E+00 0. -1.
</event>
<event>
 7    1  0.6507405E-006  0.8114614E+02  0.7818608E-02  0.1439993E+00
          2   -1    0    0  502    0  0.00000000000E+00  0.00000000000E+00  0.16259376680E+04  0.16259376680E+04  0.00000000000E+00 0. -1.
          1   -1    0    0  501    0 -0.00000000000E+00 -0.00000000000E+00 -0.33205218319E+03  0.33205218319E+03  0.00000000000E+00 0. -1.
         25    2    1    2    0    0 -0.10521280431E+03  0.67563050209E+01  0.13093933955E+03  0.20948996483E+03  0.12500221147E+03 0.  0.
          2    1    1    2  501    0  0.27905392107E+02  0.15784210060E+02 -0.29078154389E+03  0.29254360096E+03  0.00000000000E+00 0. -1.
          1    1    1    2  502    0  0.77307412202E+02 -0.22540515081E+02  0.14537276891E+04  0.14559562854E+04  0.00000000000E+00 0. -1.
         22    1    3    3    0    0 -0.45632857883E+02 -0.56787544479E+02  0.38204036694E+02  0.82260144336E+02  0.00000000000E+00 0.  1.
         22    1    3    3    0    0 -0.59579946427E+02  0.63543849500E+02  0.92735302860E+02  0.12722982049E+03  0.00000000000E+00 0.  1.
</event>
<event>
 7    1  0.6507405E-006  0.1059594E+03  0.7818608E-02  0.1291306E+00
          2   -1    0    0  502    0  0.00000000000E+00  0.00000000000E+00  0.20592059001E+03  0.20592059001E+03  0.00000000000E+00 0. -1.
          1   -1    0    0  501    0 -0.00000000000E+00 -0.00000000000E+00 -0.77509726739E+03  0.77509726739E+03  0.00000000000E+00 0. -1.
         25    2    1    2    0    0 -0.78087139392E+02 -0.52593623735E+02 -0.18934942959E+02  0.15762955268E+03  0.12499941287E+03 0.  0.
          2    1    1    2  501    0  0.10495928454E+03 -0.28121717564E+02 -0.66874270126E+03  0.67751316068E+03  0.00000000000E+00 0. -1.
          1    1    1    2  502    0 -0.26872145144E+02  0.80715341299E+02  0.11850096684E+03  0.14587514404E+03  0.00000000000E+00 0. -1.
         22    1    3    3    0    0 -0.10680595010E+03 -0.53455923954E+02  0.59994782552E+01  0.11958695799E+03  0.00000000000E+00 0. -1.
         22    1    3    3    0    0  0.28718810703E+02  0.86230021888E+00 -0.24934421215E+02  0.38042594696E+02  0.00000000000E+00 0. -1.
</event>
<event>
 7    1  0.6507405E-006  0.6382806E+02  0.7818608E-02  0.1472823E+00
          2   -1    0    0  502    0  0.00000000000E+00  0.00000000000E+00  0.58479719110E+03  0.58479719110E+03  0.00000000000E+00 0. -1.
          1   -1    0    0  501    0 -0.00000000000E+00 -0.00000000000E+00 -0.28934624212E+02  0.28934624212E+02  0.00000000000E+00 0. -1.
         25    2    1    2    0    0 -0.49141109475E+02 -0.38310818698E+01  0.20479693960E+03  0.24494160352E+03  0.12500030735E+03 0.  0.
          2    1    1    2  501    0  0.79723895284E+02  0.13487953298E+02  0.25505338113E+03  0.26756317308E+03  0.00000000000E+00 0. -1.
          1    1    1    2  502    0 -0.30582785808E+02 -0.96568714285E+01  0.96012246161E+02  0.10122703871E+03  0.00000000000E+00 0. -1.
         22    1    3    3    0    0  0.26874454692E+02  0.24364277719E+02  0.16340717827E+02  0.39785341558E+02  0.00000000000E+00 0.  1.
         22    1    3    3    0    0 -0.76015564167E+02 -0.28195359589E+02  0.18845622177E+03  0.20515626196E+03  0.00000000000E+00 0.  1.
</event>
<event>
 7    1  0.6507405E-006  0.3661757E+02  0.7818608E-02  0.1615208E+00
          2   -1    0    0  502    0  0.00000000000E+00  0.00000000000E+00  0.15758395930E+04  0.15758395930E+04  0.00000000000E+00 0. -1.
          1   -1    0    0  501    0 -0.00000000000E+00 -0.00000000000E+00 -0.10741555203E+04  0.10741555203E+04  0.00000000000E+00 0. -1.
         25    2    1    2    0    0 -0.49723165565E+02 -0.11555486340E+02  0.21950020517E+03  0.25770387827E+03  0.12500010540E+03 0.  0.
          2    1    1    2  501    0  0.36112865568E+02 -0.59731571147E+01 -0.10546440851E+04  0.10552790929E+04  0.00000000000E+00 0. -1.
          1    1    1    2  502    0  0.13610299996E+02  0.17528643455E+02  0.13368279526E+04  0.13370121422E+04  0.00000000000E+00 0. -1.
         22    1    3    3    0    0 -0.72761427468E+02 -0.16293974628E+02  0.57908256972E+02  0.94409137068E+02  0.00000000000E+00 0. -1.
         22    1    3    3    0    0  0.23038261903E+02  0.47384882881E+01  0.16159194820E+03  0.16329474121E+03  0.00000000000E+00 0. -1.
</event>
<event>
 7    1  0.6507405E-006  0.1795874E+03  0.7818608E-02  0.1281146E+00
          2   -1    0    0  502    0  0.00000000000E+00  0.00000000000E+00  0.91195360755E+03  0.91195360755E+03  0.00000000000E+00 0. -1.
          1   -1    0    0  501    0 -0.00000000000E+00 -0.00000000000E+00 -0.51301503194E+03  0.51301503194E+03  0.00000000000E+00 0. -1.
         25    2    1    2    0    0 -0.16962737029E+03  0.11827706478E+03  0.39761946150E+03  0.46528339501E+03  0.12499797077E+03 0.  0.
          2    1    1    2  501    0  0.16726403631E+03 -0.63092400408E+02 -0.46080789157E+03  0.49426897714E+03  0.00000000000E+00 0. -1.
          1    1    1    2  502    0  0.23633339847E+01 -0.55184664369E+02  0.46212700567E+03  0.46541626734E+03  0.00000000000E+00 0. -1.
         22    1    3    3    0    0 -0.51939096922E+02 -0.19332823084E+02  0.13840620433E+03  0.14908958795E+03  0.00000000000E+00 0.  1.
         22    1    3    3    0    0 -0.11768827337E+03  0.13760988786E+03  0.25921325718E+03  0.31619380706E+03  0.00000000000E+00 0.  1.
</event>
<event>
 7    1  0.6507405E-006  0.9366065E+02  0.7818608E-02  0.1297249E+00
          2   -1    0    0  502    0  0.00000000000E+00  0.00000000000E+00  0.16767834759E+04  0.16767834759E+04  0.00000000000E+00 0. -1.
          1   -1    0    0  501    0 -0.00000000000E+00 -0.00000000000E+00 -0.86789285610E+03  0.86789285610E+03  0.00000000000E+00 0. -1.
         25    2    1    2    0    0  0.91264907085E+02  0.13784542098E+02  0.26013706139E+03  0.30301024395E+03  0.12499848147E+03 0.  0.
          2    1    1    2  501    0 -0.60600109371E+02  0.71963299109E+02 -0.84234872292E+03  0.84758625560E+03  0.00000000000E+00 0. -1.
          1    1    1    2  502    0 -0.30664797713E+02 -0.85747841207E+02  0.13911022813E+04  0.13940798324E+04  0.00000000000E+00 0. -1.
         22    1    3    3    0    0 -0.14701534793E+02 -0.19349802308E+02  0.12861928923E+03  0.13089488735E+03  0.00000000000E+00 0. -1.
         22    1    3    3    0    0  0.10596644188E+03  0.33134344406E+02  0.13151777216E+03  0.17211535660E+03  0.00000000000E+00 0. -1.
</event>
<event>
 7    1  0.6507405E-006  0.6052884E+02  0.7818608E-02  0.1480357E+00
          2   -1    0    0  502    0  0.00000000000E+00  0.00000000000E+00  0.62069248036E+03  0.62069248036E+03  0.00000000000E+00 0. -1.
          1   -1    0    0  501    0 -0.00000000000E+00 -0.00000000000E+00 -0.87629534613E+03  0.87629534613E+03  0.00000000000E+00 0. -1.
         25    2    1    2    0    0 -0.27385840649E+02  0.21978877345E+02  0.16234466829E+03  0.20787948450E+03  0.12500013374E+03 0.  0.
          2    1    1    2  501    0  0.27639984384E+02 -0.54036186323E+02 -0.85185684335E+03  0.85401636971E+03  0.00000000000E+00 0. -1.
          1    1    1    2  502    0 -0.25414373486E+00  0.32057308978E+02  0.43390930929E+03  0.43509197228E+03  0.00000000000E+00 0. -1.
         22    1    3    3    0    0 -0.16997253998E+02 -0.10929315878E+02 -0.16281273980E+02  0.25950654547E+02  0.00000000000E+00 0.  1.
         22    1    3    3    0    0 -0.10388586652E+02  0.32908193223E+02  0.17862594227E+03  0.18192882995E+03  0.00000000000E+00 0.  1.
</event>
<event>
 7    1  0.6507405E-006  0.9934536E+02  0.7818608E-02  0.1448892E+00
          2   -1    0    0  502    0  0.00000000000E+00  0.00000000000E+00  0.23043914725E+04  0.23043914725E+04  0.00000000000E+00 0. -1.
          1   -1    0    0  501    0 -0.00000000000E+00 -0.00000000000E+00 -0.27280601545E+02  0.27280601545E+02  0.00000000000E+00 0. -1.
         25    2    1    2    0    0 -0.70174167024E+02 -0.66765391753E+02  0.10844824662E+04  0.10959512118E+04  0.12499923145E+03 0.  0.
          2    1    1    2  501    0 -0.17730928671E+02  0.16925380338E+02 -0.11699308787E+02  0.27161151618E+02  0.00000000000E+00 0. -1.
          1    1    1    2  502    0  0.87905095694E+02  0.49840011415E+02  0.12043277135E+04  0.12085597106E+04  0.00000000000E+00 0. -1.
         22    1    3    3    0    0 -0.45974863214E+02 -0.98691842272E+02  0.93029637973E+03  0.93664567576E+03  0.00000000000E+00 0.  1.
         22    1    3    3    0    0 -0.24199303809E+02  0.31926450520E+02  0.15418608651E+03  0.15930553606E+03  0.00000000000E+00 0.  1.
</event>
<event>
 7    1  0.6507405E-006  0.7279725E+02  0.7818608E-02  0.1420402E+00
          2   -1    0    0  502    0  0.00000000000E+00  0.00000000000E+00  0.42270744023E+03  0.42270744023E+03  0.00000000000E+00 0. -1.
          1   -1    0    0  501    0 -0.00000000000E+00 -0.00000000000E+00 -0.89732020524E+03  0.89732020524E+03  0.00000000000E+00 0. -1.
         25    2    1    2    0    0 -0.90614892076E+02 -0.13942388171E+02 -0.15430011821E+03  0.21872107899E+03  0.12499974024E+03 0.  0.
          2    1    1    2  501    0  0.30999196642E+02 -0.27526878126E+02 -0.70682068350E+03  0.70803542131E+03  0.00000000000E+00 0. -1.
          1    1    1    2  502    0  0.59615695433E+02  0.41469266297E+02  0.38650803669E+03  0.39327114516E+03  0.00000000000E+00 0. -1.
         22    1    3    3    0    0  0.59954444732E+01  0.53756720817E+01  0.18293191960E+02  0.19987097760E+02  0.00000000000E+00 0. -1.
         22    1    3    3    0    0 -0.96610336549E+02 -0.19318060253E+02 -0.17259331017E+03  0.19873398123E+03  0.00000000000E+00 0. -1.
</event>
<event>
 7    1  0.6507405E-006  0.3671841E+03  0.7818608E-02  0.1154490E+00
          2   -1    0    0  502    0  0.00000000000E+00  0.00000000000E+00  0.20979528318E+04  0.20979528318E+04  0.00000000000E+00 0. -1.
          1   -1    0    0  501    0 -0.00000000000E+00 -0.00000000000E+00 -0.30755807041E+04  0.30755807041E+04  0.00000000000E+00 0. -1.
         25    2    1    2    0    0  0.14568667057E+03  0.34884076736E+03  0.76922946962E+02  0.40553590922E+03  0.12501098730E+03 0.  0.
          2    1    1    2  501    0 -0.10175731912E+03  0.15927714486E+02 -0.28921732822E+04  0.28940066583E+04  0.00000000000E+00 0. -1.
          1    1    1    2  502    0 -0.43929351450E+02 -0.36476848184E+03  0.18376224630E+04  0.18739909684E+04  0.00000000000E+00 0. -1.
         22    1    3    3    0    0 -0.25826648547E+01  0.13618605238E+03  0.41469977766E+01  0.13627365340E+03  0.00000000000E+00 0. -1.
         22    1    3    3    0    0  0.14826933542E+03  0.21265471498E+03  0.72775949185E+02  0.26926225582E+03  0.00000000000E+00 0. -1.
</event>
<event>
 7    1  0.6507405E-006  0.9833681E+02  0.7818608E-02  0.1349369E+00
          2   -1    0    0  502    0  0.00000000000E+00  0.00000000000E+00  0.15505490783E+03  0.15505490783E+03  0.00000000000E+00 0. -1.
          1   -1    0    0  501    0 -0.00000000000E+00 -0.00000000000E+00 -0.75382116977E+03  0.75382116977E+03  0.00000000000E+00 0. -1.
         25    2    1    2    0    0 -0.55520640255E+02  0.81390789459E+02 -0.56220194188E+03  0.58429719002E+03  0.12500072286E+03 0.  0.
          2    1    1    2  501    0  0.96569316208E+02 -0.45438337791E+02 -0.15844713282E+03  0.19103865910E+03  0.00000000000E+00 0. -1.
          1    1    1    2  502    0 -0.41048675953E+02 -0.35952451668E+02  0.12188281275E+03  0.13354022848E+03  0.00000000000E+00 0. -1.
         22    1    3    3    0    0 -0.16306779651E+02  0.10895596815E+03 -0.35933008743E+03  0.37583962775E+03  0.00000000000E+00 0.  1.
         22    1    3    3    0    0 -0.39213860604E+02 -0.27565178691E+02 -0.20287185445E+03  0.20845756227E+03  0.00000000000E+00 0.  1.
</event>
<event>
 7    1  0.6507405E-006  0.2852250E+02  0.7818608E-02  0.1644569E+00
          2   -1    0    0  502    0  0.00000000000E+00  0.00000000000E+00  0.68764363075E+02  0.68764363075E+02  0.00000000000E+00 0. -1.
          1   -1    0    0  501    0 -0.00000000000E+00 -0.00000000000E+00 -0.24518178786E+03  0.24518178786E+03  0.00000000000E+00 0. -1.
         25    2    1    2    0    0  0.33895401973E+02 -0.13609287339E+02 -0.29043580248E+02  0.13342585540E+03  0.12499927343E+03 0.  0.
          2    1    1    2  501    0 -0.20969874679E+02 -0.11745984843E+02 -0.15002420271E+03  0.15193737263E+03  0.00000000000E+00 0. -1.
          1    1    1    2  502    0 -0.12925527294E+02  0.25355272182E+02  0.26503581697E+01  0.28582922903E+02  0.00000000000E+00 0. -1.
         22    1    3    3    0    0  0.78372684977E+02 -0.26910946292E+02 -0.10880547490E+02  0.83575493384E+02  0.00000000000E+00 0.  1.
         22    1    3    3    0    0 -0.44477283003E+02  0.13301658952E+02 -0.18163032758E+02  0.49850362017E+02  0.00000000000E+00 0.  1.
</event>
<event>
 7    1  0.6916772E-006  0.1033687E+03  0.7818608E-02  0.1304192E+00
          2   -1    0    0  502    0  0.00000000000E+00  0.00000000000E+00  0.11892789674E+04  0.11892789674E+04  0.00000000000E+00 0. -1.
          1   -1    0    0  501    0 -0.00000000000E+00 -0.00000000000E+00 -0.14140076722E+04  0.14140076722E+04  0.00000000000E+00 0. -1.
         25    2    1    2    0    0  0.10614518516E+03  0.55695369118E+02 -0.15932652958E+03  0.23532814442E+03  0.12500247220E+03 0.  0.
          2    1    1    2  501    0 -0.49176356102E+01 -0.77246994914E+02 -0.12131184092E+04  0.12155852730E+04  0.00000000000E+00 0. -1.
          1    1    1    2  502    0 -0.10122754955E+03  0.21551625796E+02  0.11477162340E+04  0.11523732221E+04  0.00000000000E+00 0. -1.
         22    1    3    3    0    0  0.88921736165E+02  0.26098823387E+02 -0.23991115330E+02  0.95727725135E+02  0.00000000000E+00 0. -1.
         22    1    3    3    0    0  0.17223448991E+02  0.29596545731E+02 -0.13533541425E+03  0.13960041929E+03  0.00000000000E+00 0. -1.
</event>
<event>
 7    1  0.6507405E-006  0.1742299E+03  0.7818608E-02  0.1302168E+00
          2   -1    0    0  502    0  0.00000000000E+00  0.00000000000E+00  0.24286180748E+04  0.24286180748E+04  0.00000000000E+00 0. -1.
          1   -1    0    0  501    0 -0.00000000000E+00 -0.00000000000E+00 -0.15879526393E+03  0.15879526393E+03  0.00000000000E+00 0. -1.
         25    2    1    2    0    0  0.17514270207E+03  0.80230981297E+02  0.34714210002E+03  0.41622719840E+03  0.12500186651E+03 0.  0.
          2    1    1    2  501    0 -0.13582376743E+03 -0.10558207428E+03 -0.64297800295E+02  0.18365695557E+03  0.00000000000E+00 0. -1.
          1    1    1    2  502    0 -0.39318934637E+02  0.25351092981E+02  0.19869785111E+04  0.19875291848E+04  0.00000000000E+00 0. -1.
         22    1    3    3    0    0  0.10163306269E+03  0.90051874256E+02  0.13492503283E+03  0.19142461694E+03  0.00000000000E+00 0.  1.
         22    1    3    3    0    0  0.73509639381E+02 -0.98208929591E+01  0.21221706720E+03  0.22480258146E+03  0.00000000000E+00 0.  1.
</event>
<event>
 7    1  0.6507405E-006  0.5901591E+02  0.7818608E-02  0.1533329E+00
          2   -1    0    0  502    0  0.00000000000E+00  0.00000000000E+00  0.23691081578E+03  0.23691081578E+03  0.00000000000E+00 0. -1.
          1   -1    0    0  501    0 -0.00000000000E+00 -0.00000000000E+00 -0.15079514450E+04  0.15079514450E+04  0.00000000000E+00 0. -1.
         25    2    1    2    0    0  0.28048673137E+02  0.47216036444E+02  0.16899016405E+03  0.21725204234E+03  0.12499876877E+03 0.  0.
          2    1    1    2  501    0  0.22112930309E+02 -0.60420527337E+01 -0.14596371966E+04  0.14598171919E+04  0.00000000000E+00 0. -1.
          1    1    1    2  502    0 -0.50161603446E+02 -0.41173983710E+02  0.19606403325E+02  0.67793026530E+02  0.00000000000E+00 0. -1.
         22    1    3    3    0    0  0.16223095732E+02  0.41416163315E+02  0.18851968343E+03  0.19369604658E+03  0.00000000000E+00 0.  1.
         22    1    3    3    0    0  0.11825577405E+02  0.57998731293E+01 -0.19529519380E+02  0.23555995765E+02  0.00000000000E+00 0.  1.
</event>
<event>
 7    1  0.6507405E-006  0.7439179E+02  0.7818608E-02  0.1429324E+00
          2   -1    0    0  502    0  0.00000000000E+00  0.00000000000E+00  0.15986497940E+03  0.15986497940E+03  0.00000000000E+00 0. -1.
          1   -1    0    0  501    0 -0.00000000000E+00 -0.00000000000E+00 -0.58982340296E+03  0.58982340296E+03  0.00000000000E+00 0. -1.
         25    2    1    2    0    0 -0.45828074414E+02 -0.58358797296E+02 -0.29435522734E+03  0.32829262758E+03  0.12500035136E+03 0.  0.
          2    1    1    2  501    0 -0.23243913874E+02  0.29930862676E+02 -0.26731014221E+03  0.26998305170E+03  0.00000000000E+00 0. -1.
          1    1    1    2  502    0  0.69071988288E+02  0.28427934620E+02  0.13170694599E+03  0.15141270308E+03  0.00000000000E+00 0. -1.
         22    1    3    3    0    0 -0.32615196379E+02  0.34182594504E+02 -0.62859540050E+02  0.78635377389E+02  0.00000000000E+00 0. -1.
         22    1    3    3    0    0 -0.13212878035E+02 -0.92541391800E+02 -0.23149568729E+03  0.24965725020E+03  0.00000000000E+00 0. -1.
</event>
<event>
 7    1  0.6507405E-006  0.4693702E+02  0.7818608E-02  0.1569315E+00
          2   -1    0    0  502    0  0.00000000000E+00  0.00000000000E+00  0.13093256234E+04  0.13093256234E+04  0.00000000000E+00 0. -1.
          1   -1    0    0  501    0 -0.00000000000E+00 -0.00000000000E+00 -0.82385881713E+03  0.82385881713E+03  0.00000000000E+00 0. -1.
         25    2    1    2    0    0  0.33063986385E+02 -0.50461478751E+02 -0.22474989107E+02  0.14058869545E+03  0.12498187116E+03 0.  0.
          2    1    1    2  501    0 -0.22371504694E+02  0.48126298884E+01 -0.74171092075E+03  0.74206383525E+03  0.00000000000E+00 0. -1.
          1    1    1    2  502    0 -0.10692481691E+02  0.45648848863E+02  0.12496527161E+04  0.12505319098E+04  0.00000000000E+00 0. -1.
         22    1    3    3    0    0  0.78930415369E+02 -0.17385392963E+02 -0.33441104660E+01  0.80891565899E+02  0.00000000000E+00 0.  1.
         22    1    3    3    0    0 -0.45866428983E+02 -0.33076085788E+02 -0.19130878641E+02  0.59697129548E+02  0.00000000000E+00 0.  1.
</event>
<event>
 7    1  0.6507405E-006  0.4302764E+02  0.7818608E-02  0.1488242E+00
          2   -1    0    0  502    0  0.00000000000E+00  0.00000000000E+00  0.10570910986E+04  0.10570910986E+04  0.00000000000E+00 0. -1.
          1   -1    0    0  501    0 -0.00000000000E+00 -0.00000000000E+00 -0.88430111777E+03  0.88430111777E+03  0.00000000000E+00 0. -1.
         25    2    1    2    0    0 -0.75731966388E+02 -0.38920894414E+02  0.12970398101E+03  0.19924620238E+03  0.12500303883E+03 0.  0.
          2    1    1    2  501    0  0.36049651667E+02  0.23237824599E+02 -0.84847810340E+03  0.84956145501E+03  0.00000000000E+00 0. -1.
          1    1    1    2  502    0  0.39682314721E+02  0.15683069815E+02  0.89156410318E+03  0.89258455894E+03  0.00000000000E+00 0. -1.
         22    1    3    3    0    0  0.22925319075E+02  0.23224500077E+02  0.42811145294E+02  0.53830677312E+02  0.00000000000E+00 0.  1.
         22    1    3    3    0    0 -0.98657285463E+02 -0.62145394491E+02  0.86892835715E+02  0.14541552506E+03  0.00000000000E+00 0.  1.
</event>
<event>
 7    1  0.6507405E-006  0.6130536E+02  0.7818608E-02  0.1435764E+00
          2   -1    0    0  502    0  0.00000000000E+00  0.00000000000E+00  0.29824050984E+03  0.29824050984E+03  0.00000000000E+00 0. -1.
          1   -1    0    0  501    0 -0.00000000000E+00 -0.00000000000E+00 -0.53270549861E+03  0.53270549861E+03  0.00000000000E+00 0. -1.
         25    2    1    2    0    0 -0.97303353896E+01 -0.94255523304E+02  0.11537907277E+03  0.19472346709E+03  0.12500446033E+03 0.  0.
          2    1    1    2  501    0  0.21071773185E+02  0.38401308407E+02 -0.48633837089E+03  0.48830696402E+03  0.00000000000E+00 0. -1.
          1    1    1    2  502    0 -0.11341437795E+02  0.55854214897E+02  0.13649430935E+03  0.14791557734E+03  0.00000000000E+00 0. -1.
         22    1    3    3    0    0  0.28769504376E+02 -0.34515170149E+02 -0.14038493933E+02  0.47075053524E+02  0.00000000000E+00 0.  1.
         22    1    3    3    0    0 -0.38499839765E+02 -0.59740353155E+02  0.12941756670E+03  0.14764841356E+03  0.00000000000E+00 0.  1.
</event>
<event>
 7    1  0.6507405E-006  0.2059978E+03  0.7818608E-02  0.1278924E+00
          2   -1    0    0  502    0  0.00000000000E+00  0.00000000000E+00  0.98211301075E+03  0.98211301075E+03  0.00000000000E+00 0. -1.
          1   -1    0    0  501    0 -0.00000000000E+00 -0.00000000000E+00 -0.15812422170E+04  0.15812422170E+04  0.00000000000E+00 0. -1.
         25    2    1    2    0    0  0.14215873591E+03  0.19694200899E+03 -0.15613091656E+03  0.31463677655E+03  0.12499670776E+03 0.  0.
          2    1    1    2  501    0 -0.13849187559E+03 -0.14789620254E+03 -0.13375531786E+04  0.13528125487E+04  0.00000000000E+00 0. -1.
          1    1    1    2  502    0 -0.36668603224E+01 -0.49045806450E+02  0.89455488887E+03  0.89590590254E+03  0.00000000000E+00 0. -1.
         22    1    3    3    0    0  0.79846395916E+02  0.13937296500E+03 -0.31203773754E+02  0.16362746044E+03  0.00000000000E+00 0. -1.
         22    1    3    3    0    0  0.62312339997E+02  0.57569043986E+02 -0.12492714280E+03  0.15100931611E+03  0.00000000000E+00 0. -1.
</event>
<event>
 7    1  0.6507405E-006  0.9318181E+02  0.7818608E-02  0.1384873E+00
          2   -1    0    0  502    0  0.00000000000E+00  0.00000000000E+00  0.47013041585E+03  0.47013041585E+03  0.00000000000E+00 0. -1.
          1   -1    0    0  501    0 -0.00000000000E+00 -0.00000000000E+00 -0.64910012583E+03  0.64910012583E+03  0.00000000000E+00 0. -1.
         25    2    1    2    0    0 -0.12234949060E+03  0.99893562485E+01 -0.27612712676E+03  0.32701765153E+03  0.12500067675E+03 0.  0.
          2    1    1    2  501    0  0.83036808083E+02 -0.27075554986E+02 -0.34097775961E+03  0.35198583739E+03  0.00000000000E+00 0. -1.
          1    1    1    2  502    0  0.39312682522E+02  0.17086198738E+02  0.43813517639E+03  0.44022705276E+03  0.00000000000E+00 0. -1.
         22    1    3    3    0    0 -0.10853076223E+03  0.51423203006E+00 -0.92427147665E+02  0.14255514165E+03  0.00000000000E+00 0. -1.
         22    1    3    3    0    0 -0.13818728378E+02  0.94751242184E+01 -0.18369997909E+03  0.18446250988E+03  0.00000000000E+00 0. -1.
</event>
<event>
 7    1  0.6507405E-006  0.8545982E+02  0.7818608E-02  0.1406705E+00
          2   -1    0    0  502    0  0.00000000000E+00  0.00000000000E+00  0.19897676729E+04  0.19897676729E+04  0.00000000000E+00 0. -1.
          1   -1    0    0  501    0 -0.00000000000E+00 -0.00000000000E+00 -0.15699255214E+03  0.15699255214E+03  0.00000000000E+00 0. -1.
         25    2    1    2    0    0 -0.20685250474E+02  0.11731720179E+03  0.83717895833E+03  0.85480111719E+03  0.12500054506E+03 0.  0.
          2    1    1    2  501    0  0.31911856517E+01 -0.39146378129E+02 -0.14414819878E+03  0.14940323222E+03  0.00000000000E+00 0. -1.
          1    1    1    2  502    0  0.17494064822E+02 -0.78170823662E+02  0.11397443613E+04  0.11425558757E+04  0.00000000000E+00 0. -1.
         22    1    3    3    0    0 -0.59712155846E+02  0.18988582087E+02  0.40757806852E+03  0.41236632954E+03  0.00000000000E+00 0. -1.
         22    1    3    3    0    0  0.39026905372E+02  0.98328619704E+02  0.42960088981E+03  0.44243478765E+03  0.00000000000E+00 0. -1.
</event>
<event>
 7    1  0.6507405E-006  0.1195073E+03  0.7818608E-02  0.1305225E+00
          2   -1    0    0  502    0  0.00000000000E+00  0.00000000000E+00  0.10075224897E+04  0.10075224897E+04  0.00000000000E+00 0. -1.
          1   -1    0    0  501    0 -0.00000000000E+00 -0.00000000000E+00 -0.95392248402E+03  0.95392248402E+03  0.00000000000E+00 0. -1.
         25    2    1    2    0    0  0.13968519477E+03 -0.72280754193E+02  0.18043666895E+03  0.27003450762E+03  0.12499913096E+03 0.  0.
          2    1    1    2  501    0 -0.76204301694E+02  0.91480122629E+02 -0.90380663259E+03  0.91161512578E+03  0.00000000000E+00 0. -1.
          1    1    1    2  502    0 -0.63480893081E+02 -0.19199368436E+02  0.77696996930E+03  0.77979534028E+03  0.00000000000E+00 0. -1.
         22    1    3    3    0    0  0.11992313136E+03 -0.49704722277E+01  0.69260368831E+02  0.13857583383E+03  0.00000000000E+00 0. -1.
         22    1    3    3    0    0  0.19762063410E+02 -0.67310281966E+02  0.11117630012E+03  0.13145867380E+03  0.00000000000E+00 0. -1.
</event>
<event>
 7    1  0.6507405E-006  0.4865985E+02  0.7818608E-02  0.1525542E+00
          2   -1    0    0  502    0  0.00000000000E+00  0.00000000000E+00  0.33567653637E+03  0.33567653637E+03  0.00000000000E+00 0. -1.
          1   -1    0    0  501    0 -0.00000000000E+00 -0.00000000000E+00 -0.11190293477E+03  0.11190293477E+03  0.00000000000E+00 0. -1.
         25    2    1    2    0    0 -0.26543977462E+02 -0.35660305556E+02  0.21984901546E+03  0.25677814534E+03  0.12500074478E+03 0.  0.
          2    1    1    2  501    0 -0.23011843409E+02  0.18086622306E+02 -0.83667763464E+02  0.88639525532E+02  0.00000000000E+00 0. -1.
          1    1    1    2  502    0  0.49555820870E+02  0.17573683250E+02  0.87592349603E+02  0.10216180027E+03  0.00000000000E+00 0. -1.
         22    1    3    3    0    0  0.25883136569E+02  0.10798884691E+02  0.16618482149E+03  0.16853470730E+03  0.00000000000E+00 0. -1.
         22    1    3    3    0    0 -0.52427114031E+02 -0.46459190247E+02  0.53664193969E+02  0.88243438047E+02  0.00000000000E+00 0. -1.
</event>
<event>
 7    1  0.6507405E-006  0.9842804E+02  0.7818608E-02  0.1364958E+00
          2   -1    0    0  502    0  0.00000000000E+00  0.00000000000E+00  0.22424708344E+04  0.22424708344E+04  0.00000000000E+00 0. -1.
          1   -1    0    0  501    0 -0.00000000000E+00 -0.00000000000E+00 -0.61793941432E+02  0.61793941432E+02  0.00000000000E+00 0. -1.
         25    2    1    2    0    0 -0.73498262408E+02 -0.11720258205E+03  0.51077574850E+03  0.54374095746E+03  0.12499569493E+03 0.  0.
          2    1    1    2  501    0  0.35826802135E+02  0.87786654425E+02  0.50115046255E+01  0.94948257620E+02  0.00000000000E+00 0. -1.
          1    1    1    2  502    0  0.37671460273E+02  0.29415927620E+02  0.16648896398E+04  0.16655755607E+04  0.00000000000E+00 0. -1.
         22    1    3    3    0    0 -0.28291924537E+02 -0.91708504044E+02  0.46416565251E+03  0.47398379263E+03  0.00000000000E+00 0.  1.
         22    1    3    3    0    0 -0.45206337871E+02 -0.25494078001E+02  0.46610095990E+02  0.69757164829E+02  0.00000000000E+00 0.  1.
</event>
<event>
 7    1  0.6507405E-006  0.1483415E+03  0.7818608E-02  0.1221330E+00
          2   -1    0    0  502    0  0.00000000000E+00  0.00000000000E+00  0.19538383788E+04  0.19538383788E+04  0.00000000000E+00 0. -1.
          1   -1    0    0  501    0 -0.00000000000E+00 -0.00000000000E+00 -0.80107874485E+03  0.80107874485E+03  0.00000000000E+00 0. -1.
         25    2    1    2    0    0  0.77340268091E+02 -0.15416391388E+03  0.18434579798E+03  0.28170355024E+03  0.12500195029E+03 0.  0.
          2    1    1    2  501    0  0.43538808427E+02  0.14253998042E+03 -0.74284621178E+03  0.75765016216E+03  0.00000000000E+00 0. -1.
          1    1    1    2  502    0 -0.12087907652E+03  0.11623933459E+02  0.17112600477E+04  0.17155634112E+04  0.00000000000E+00 0. -1.
         22    1    3    3    0    0  0.35180894038E+02  0.14701750732E+02  0.43166959997E+02  0.57595340222E+02  0.00000000000E+00 0. -1.
         22    1    3    3    0    0  0.42159374053E+02 -0.16886566461E+03  0.14117883798E+03  0.22410821002E+03  0.00000000000E+00 0. -1.
</event>
<event>
 7    1  0.6507405E-006  0.7493600E+02  0.7818608E-02  0.1362944E+00
          2   -1    0    0  502    0  0.00000000000E+00  0.00000000000E+00  0.23045588081E+04  0.23045588081E+04  0.00000000000E+00 0. -1.
          1   -1    0    0  501    0 -0.00000000000E+00 -0.00000000000E+00 -0.88335089335E+03  0.88335089335E+03  0.00000000000E+00 0. -1.
         25    2    1    2    0    0 -0.23252946036E+02  0.55068952458E+02  0.16413853820E+04  0.16472234260E+04  0.12500301588E+03 0.  0.
          2    1    1    2  501    0 -0.40047733009E+02 -0.63383979546E+02 -0.87728573536E+03  0.88048373707E+03  0.00000000000E+00 0. -1.
          1    1    1    2  502    0  0.63300679045E+02  0.83150270876E+01  0.65710826813E+03  0.66020253839E+03  0.00000000000E+00 0. -1.
         22    1    3    3    0    0  0.11538372717E+02  0.76624164833E+02  0.59323868201E+03  0.59827797094E+03  0.00000000000E+00 0. -1.
         22    1    3    3    0    0 -0.34791318753E+02 -0.21555212375E+02  0.10481466999E+04  0.10489454550E+04  0.00000000000E+00 0. -1.
</event>
<event>
 7    1  0.6507405E-006  0.7351374E+02  0.7818608E-02  0.1482622E+00
          2   -1    0    0  502    0  0.00000000000E+00  0.00000000000E+00  0.57206933214E+03  0.57206933214E+03  0.00000000000E+00 0. -1.
          1   -1    0    0  501    0 -0.00000000000E+00 -0.00000000000E+00 -0.76110377919E+03  0.76110377919E+03  0.00000000000E+00 0. -1.
         25    2    1    2    0    0  0.61361364165E+02 -0.76800337185E+02 -0.64270612617E+02  0.17152191657E+03  0.12500218963E+03 0.  0.
          2    1    1    2  501    0 -0.47646468056E+02  0.54737984169E+02 -0.64083282313E+03  0.64492878679E+03  0.00000000000E+00 0. -1.
          1    1    1    2  502    0 -0.13714896109E+02  0.22062353016E+02  0.51606898870E+03  0.51672240797E+03  0.00000000000E+00 0. -1.
         22    1    3    3    0    0 -0.38802885678E+02 -0.17602117376E+02 -0.19441234735E+02  0.46834389940E+02  0.00000000000E+00 0.  1.
         22    1    3    3    0    0  0.10016424984E+03 -0.59198219809E+02 -0.44829377882E+02  0.12468752663E+03  0.00000000000E+00 0.  1.
</event>
<event>
 7    1  0.6507405E-006  0.1188649E+03  0.7818608E-02  0.1325590E+00
          2   -1    0    0  502    0  0.00000000000E+00  0.00000000000E+00  0.12575438270E+04  0.12575438270E+04  0.00000000000E+00 0. -1.
          1   -1    0    0  501    0 -0.00000000000E+00 -0.00000000000E+00 -0.42709064785E+03  0.42709064785E+03  0.00000000000E+00 0. -1.
         25    2    1    2    0    0 -0.22510217344E+02 -0.99453835884E+02  0.86521050079E+03  0.88012017653E+03  0.12499815639E+03 0.  0.
          2    1    1    2  501    0 -0.30751922515E+02  0.11510529179E+03 -0.40909065778E+03  0.42608693388E+03  0.00000000000E+00 0. -1.
          1    1    1    2  502    0  0.53262139859E+02 -0.15651455909E+02  0.37433333617E+03  0.37842736448E+03  0.00000000000E+00 0. -1.
         22    1    3    3    0    0 -0.46070696127E+02 -0.37402508067E+02  0.14241825970E+03  0.15428680224E+03  0.00000000000E+00 0.  1.
         22    1    3    3    0    0  0.23560478783E+02 -0.62051327817E+02  0.72279224110E+03  0.72583337429E+03  0.00000000000E+00 0.  1.
</event>
<event>
 7    1  0.6507405E-006  0.4306110E+02  0.7818608E-02  0.1486978E+00
          2   -1    0    0  502    0  0.00000000000E+00  0.00000000000E+00  0.38412641293E+03  0.38412641293E+03  0.00000000000E+00 0. -1.
          1   -1    0    0  501    0 -0.00000000000E+00 -0.00000000000E+00 -0.16907571021E+04  0.16907571021E+04  0.00000000000E+00 0. -1.
         25    2    1    2    0    0 -0.19255396324E+02 -0.45854335315E+02 -0.16196340909E+03  0.21055847664E+03  0.12501734219E+03 0.  0.
          2    1    1    2  501    0  0.42159819063E+02  0.93900267327E+01 -0.15028964817E+04  0.15035170294E+04  0.00000000000E+00 0. -1.
          1    1    1    2  502    0 -0.22904422739E+02  0.36464308582E+02  0.35822920168E+03  0.36080800894E+03  0.00000000000E+00 0. -1.
         22    1    3    3    0    0  0.33483376342E+01  0.26087791336E+02 -0.12280112800E+03  0.12558623037E+03  0.00000000000E+00 0.  1.
         22    1    3    3    0    0 -0.22603733958E+02 -0.71942126652E+02 -0.39162281088E+02  0.84972246269E+02  0.00000000000E+00 0.  1.
</event>
<event>
 7    1  0.6507405E-006  0.5860470E+02  0.7818608E-02  0.1479404E+00
          2   -1    0    0  502    0  0.00000000000E+00  0.00000000000E+00  0.10631155456E+04  0.10631155456E+04  0.00000000000E+00 0. -1.
          1   -1    0    0  501    0 -0.00000000000E+00 -0.00000000000E+00 -0.43459803603E+02  0.43459803603E+02  0.00000000000E+00 0. -1.
         25    2    1    2    0    0  0.31044783154E+02 -0.29876571654E+02  0.20268900085E+03  0.24199961713E+03  0.12499838211E+03 0.  0.
          2    1    1    2  501    0  0.27698241641E+02  0.18547441820E+02 -0.10499905844E+02  0.34949223322E+02  0.00000000000E+00 0. -1.
          1    1    1    2  502    0 -0.58743024795E+02  0.11329129834E+02  0.82746664702E+03  0.82962650879E+03  0.00000000000E+00 0. -1.
         22    1    3    3    0    0  0.41909294658E+02  0.20862588488E+02  0.17888761613E+03  0.18491191358E+03  0.00000000000E+00 0.  1.
         22    1    3    3    0    0 -0.10864511505E+02 -0.50739160142E+02  0.23801384716E+02  0.57087703549E+02  0.00000000000E+00 0.  1.
</event>
<event>
 7    1  0.6507405E-006  0.1117801E+03  0.7818608E-02  0.1402120E+00
          2   -1    0    0  502    0  0.00000000000E+00  0.00000000000E+00  0.67007082974E+03  0.67007082974E+03  0.00000000000E+00 0. -1.
          1   -1    0    0  501    0 -0.00000000000E+00 -0.00000000000E+00 -0.57233293616E+03  0.57233293616E+03  0.00000000000E+00 0. -1.
         25    2    1    2    0    0 -0.75042304400E+02  0.60465198983E+02  0.83188313836E+01  0.15804853096E+03  0.12499098945E+03 0.  0.
          2    1    1    2  501    0  0.74465228542E+01  0.30227140809E+02 -0.49152101456E+03  0.49250587661E+03  0.00000000000E+00 0. -1.
          1    1    1    2  502    0  0.67595781546E+02 -0.90692339792E+02  0.58094007676E+03  0.59184935833E+03  0.00000000000E+00 0. -1.
         22    1    3    3    0    0 -0.69442509267E+02 -0.63845861042E+01  0.43609261423E+02  0.82248359952E+02  0.00000000000E+00 0.  1.
         22    1    3    3    0    0 -0.55997951331E+01  0.66849785087E+02 -0.35290430039E+02  0.75800171003E+02  0.00000000000E+00 0.  1.
</event>
<event>
 7    1  0.6507405E-006  0.1967603E+03  0.7818608E-02  0.1187117E+00
          2   -1    0    0  502    0  0.00000000000E+00  0.00000000000E+00  0.89909883053E+03  0.89909883053E+03  0.00000000000E+00 0. -1.
          1   -1    0    0  501    0 -0.00000000000E+00 -0.00000000000E+00 -0.17435110820E+04  0.17435110820E+04  0.00000000000E+00 0. -1.
         25    2    1    2    0    0 -0.15272174770E+03  0.26641772406E+02 -0.34356539305E+03  0.39710782709E+03  0.12499492302E+03 0.  0.
          2    1    1    2  501    0  0.19508638901E+03  0.98804462449E+02 -0.13593606924E+04  0.13768378674E+04  0.00000000000E+00 0. -1.
          1    1    1    2  502    0 -0.42364641311E+02 -0.12544623485E+03  0.85851383396E+03  0.86866421808E+03  0.00000000000E+00 0. -1.
         22    1    3    3    0    0 -0.46088504230E+02  0.53813719673E+01 -0.24813752712E+03  0.25243878813E+03  0.00000000000E+00 0. -1.
         22    1    3    3    0    0 -0.10663324347E+03  0.21260400438E+02 -0.95427865930E+02  0.14466903897E+03  0.00000000000E+00 0. -1.
</event>
<event>
 7    1  0.6507405E-006  0.2766177E+03  0.7818608E-02  0.1254554E+00
          2   -1    0    0  502    0  0.00000000000E+00  0.00000000000E+00  0.16094175046E+04  0.16094175046E+04  0.00000000000E+00 0. -1.
          1   -1    0    0  501    0 -0.00000000000E+00 -0.00000000000E+00 -0.89806392343E+02  0.89806392343E+02  0.00000000000E+00 0. -1.
         25    2    1    2    0    0 -0.14318327532E+02  0.27376493230E+03  0.52080926146E+03  0.60168009654E+03  0.12499759634E+03 0.  0.
          2    1    1    2  501    0  0.46293164091E+02  0.33963928030E+01 -0.12818607175E+02  0.48155053894E+02  0.00000000000E+00 0. -1.
          1    1    1    2  502    0 -0.31974836559E+02 -0.27716132511E+03  0.10116204580E+04  0.10493887465E+04  0.00000000000E+00 0. -1.
         22    1    3    3    0    0 -0.13514242648E+02  0.41844731710E+02  0.20614126061E+03  0.21077911579E+03  0.00000000000E+00 0.  1.
         22    1    3    3    0    0 -0.80408488372E+00  0.23192020059E+03  0.31466800084E+03  0.39090098075E+03  0.00000000000E+00 0.  1.
</event>
<event>
 7    1  0.6507405E-006  0.6823188E+02  0.7818608E-02  0.1397363E+00
          2   -1    0    0  502    0  0.00000000000E+00  0.00000000000E+00  0.28208862747E+04  0.28208862747E+04  0.00000000000E+00 0. -1.
          1   -1    0    0  501    0 -0.00000000000E+00 -0.00000000000E+00 -0.91684067123E+02  0.91684067123E+02  0.00000000000E+00 0. -1.
         25    2    1    2    0    0  0.34998418426E+02 -0.16440708704E+01  0.60779051336E+03  0.62150097736E+03  0.12500625770E+03 0.  0.
          2    1    1    2  501    0  0.13874459583E+02 -0.51108140354E+02 -0.75917613286E+02  0.92563635658E+02  0.00000000000E+00 0. -1.
          1    1    1    2  502    0 -0.48872878008E+02  0.52752211225E+02  0.21973293075E+04  0.21985057288E+04  0.00000000000E+00 0. -1.
         22    1    3    3    0    0 -0.13654933960E+01 -0.53635788720E+02  0.14943202302E+03  0.15877213833E+03  0.00000000000E+00 0. -1.
         22    1    3    3    0    0  0.36363911822E+02  0.51991717849E+02  0.45835849034E+03  0.46272883903E+03  0.00000000000E+00 0. -1.
</event>
<event>
 7    1  0.6507405E-006  0.6809766E+02  0.7818608E-02  0.1393717E+00
          2   -1    0    0  502    0  0.00000000000E+00  0.00000000000E+00  0.28407846563E+03  0.28407846563E+03  0.00000000000E+00 0. -1.
          1   -1    0    0  501    0 -0.00000000000E+00 -0.00000000000E+00 -0.71757838882E+03  0.71757838882E+03  0.00000000000E+00 0. -1.
         25    2    1    2    0    0  0.35756954964E+02 -0.31837978710E+02  0.42266955587E+02  0.14036881576E+03  0.12499876875E+03 0.  0.
          2    1    1    2  501    0  0.45598544212E+01  0.68698176446E+02 -0.66283802572E+03  0.66640414168E+03  0.00000000000E+00 0. -1.
          1    1    1    2  502    0 -0.40316809386E+02 -0.36860197736E+02  0.18707114693E+03  0.19488389700E+03  0.00000000000E+00 0. -1.
         22    1    3    3    0    0  0.38676333834E+02  0.43468863713E+02  0.23134590406E+02  0.62614776088E+02  0.00000000000E+00 0. -1.
         22    1    3    3    0    0 -0.29193788698E+01 -0.75306842422E+02  0.19132365181E+02  0.77754039677E+02  0.00000000000E+00 0. -1.
</event>
<event>
 7    1  0.6507405E-006  0.8768548E+02  0.7818608E-02  0.1374811E+00
          2   -1    0    0  502    0  0.00000000000E+00  0.00000000000E+00  0.98742606915E+03  0.98742606915E+03  0.00000000000E+00 0. -1.
          1   -1    0    0  501    0 -0.00000000000E+00 -0.00000000000E+00 -0.69099786917E+02  0.69099786917E+02  0.00000000000E+00 0. -1.
         25    2    1    2    0    0 -0.27766665649E+02  0.10770255180E+03  0.53017086752E+03  0.55595068015E+03  0.12501672931E+03 0.  0.
          2    1    1    2  501    0 -0.23957775435E+02 -0.43257320724E+02 -0.40568061032E+02  0.63960443838E+02  0.00000000000E+00 0. -1.
          1    1    1    2  502    0  0.51724441084E+02 -0.64445231075E+02  0.42872347575E+03  0.43661473208E+03  0.00000000000E+00 0. -1.
         22    1    3    3    0    0  0.20215480956E+02  0.22832711574E+02  0.34798301530E+03  0.34931672924E+03  0.00000000000E+00 0.  1.
         22    1    3    3    0    0 -0.47982146605E+02  0.84869840226E+02  0.18218785222E+03  0.20663395091E+03  0.00000000000E+00 0.  1.
</event>
<event>
 7    1  0.6507405E-006  0.8671810E+02  0.7818608E-02  0.1317464E+00
          2   -1    0    0  502    0  0.00000000000E+00  0.00000000000E+00  0.12023213511E+04  0.12023213511E+04  0.00000000000E+00 0. -1.
          1   -1    0    0  501    0 -0.00000000000E+00 -0.00000000000E+00 -0.42371269858E+03  0.42371269858E+03  0.00000000000E+00 0. -1.
         25    2    1    2    0    0  0.67828909207E+02  0.37807731918E+01 -0.89505966076E+02  0.16808245240E+03  0.12500135068E+03 0.  0.
          2    1    1    2  501    0 -0.47978027046E+02 -0.83145276073E+02 -0.28562000691E+03  0.30132012272E+03  0.00000000000E+00 0. -1.
          1    1    1    2  502    0 -0.19850882161E+02  0.79364502881E+02  0.11537346255E+04  0.11566314746E+04  0.00000000000E+00 0. -1.
         22    1    3    3    0    0 -0.22485684544E+02  0.13449417881E+02 -0.70599996182E+02  0.75305061660E+02  0.00000000000E+00 0.  1.
         22    1    3    3    0    0  0.90314593751E+02 -0.96686446888E+01 -0.18905969895E+02  0.92777390739E+02  0.00000000000E+00 0.  1.
</event>
<event>
 7    1  0.6507405E-006  0.9585233E+02  0.7818608E-02  0.1402552E+00
          2   -1    0    0  502    0  0.00000000000E+00  0.00000000000E+00  0.21084273240E+03  0.21084273240E+03  0.00000000000E+00 0. -1.
          1   -1    0    0  501    0 -0.00000000000E+00 -0.00000000000E+00 -0.12656137839E+04  0.12656137839E+04  0.00000000000E+00 0. -1.
         25    2    1    2    0    0 -0.16764702724E+01 -0.72700967381E+02 -0.41889365987E+02  0.15055894792E+03  0.12500014642E+03 0.  0.
          2    1    1    2  501    0 -0.27988069137E+02 -0.22927715875E+02 -0.11530635080E+04  0.11536309920E+04  0.00000000000E+00 0. -1.
          1    1    1    2  502    0  0.29664539409E+02  0.95628683256E+02  0.14018182253E+03  0.17226657635E+03  0.00000000000E+00 0. -1.
         22    1    3    3    0    0  0.16487643347E+02  0.98236663840E+00 -0.68251293317E+02  0.70221410317E+02  0.00000000000E+00 0.  1.
         22    1    3    3    0    0 -0.18164113619E+02 -0.73683334020E+02  0.26361927330E+02  0.80337537605E+02  0.00000000000E+00 0.  1.
</event>
<event>
 7    1  0.6507405E-006  0.2295718E+03  0.7818608E-02  0.1264655E+00
          2   -1    0    0  502    0  0.00000000000E+00  0.00000000000E+00  0.54557812812E+03  0.54557812812E+03  0.00000000000E+00 0. -1.
          1   -1    0    0  501    0 -0.00000000000E+00 -0.00000000000E+00 -0.25082538853E+04  0.25082538853E+04  0.00000000000E+00 0. -1.
         25    2    1    2    0    0 -0.80526659521E+02 -0.22675412306E+03 -0.10030614061E+04  0.10390693473E+04  0.12502379372E+03 0.  0.
          2    1    1    2  501    0  0.11799620340E+03  0.19268698448E+03 -0.14773641522E+04  0.14945421426E+04  0.00000000000E+00 0. -1.
          1    1    1    2  502    0 -0.37469543879E+02  0.34067138576E+02  0.51774980100E+03  0.52022052351E+03  0.00000000000E+00 0. -1.
         22    1    3    3    0    0 -0.39156174012E+02 -0.10313339155E+03 -0.70733254098E+03  0.71588338851E+03  0.00000000000E+00 0. -1.
         22    1    3    3    0    0 -0.41370485509E+02 -0.12362073151E+03 -0.29572886508E+03  0.32318595881E+03  0.00000000000E+00 0. -1.
</event>
<event>
 7    1  0.6507405E-006  0.4676550E+02  0.7818608E-02  0.1519778E+00
          2   -1    0    0  502    0  0.00000000000E+00  0.00000000000E+00  0.12702917457E+04  0.12702917457E+04  0.00000000000E+00 0. -1.
          1   -1    0    0  501    0 -0.00000000000E+00 -0.00000000000E+00 -0.14614388744E+03  0.14614388744E+03  0.00000000000E+00 0. -1.
         25    2    1    2    0    0 -0.47028254884E+02 -0.54957965688E+02  0.54741112891E+03  0.56614128365E+03  0.12499989697E+03 0.  0.
          2    1    1    2  501    0  0.94268259844E+01  0.30210289647E+02 -0.13422686346E+03  0.13790713370E+03  0.00000000000E+00 0. -1.
          1    1    1    2  502    0  0.37601428900E+02  0.24747676040E+02  0.71096359278E+03  0.71238721576E+03  0.00000000000E+00 0. -1.
         22    1    3    3    0    0  0.20636240854E+02 -0.34476333170E-01  0.12392869749E+02  0.24071536008E+02  0.00000000000E+00 0.  1.
         22    1    3    3    0    0 -0.67664495738E+02 -0.54923489355E+02  0.53501825916E+03  0.54206974764E+03  0.00000000000E+00 0.  1.
</event>
<event>
 7    1  0.6507405E-006  0.6985286E+02  0.7818608E-02  0.1478813E+00
          2   -1    0    0  502    0  0.00000000000E+00  0.00000000000E+00  0.93105537240E+02  0.93105537240E+02  0.00000000000E+00 0. -1.
          1   -1    0    0  501    0 -0.00000000000E+00 -0.00000000000E+00 -0.35005903110E+03  0.35005903110E+03  0.00000000000E+00 0. -1.
         25    2    1    2    0    0  0.34685905410E+01  0.45850525309E+02 -0.47045454470E+02  0.14125768875E+03  0.12500463213E+03 0.  0.
          2    1    1    2  501    0  0.58896452656E+01 -0.72329440753E+02 -0.24582561269E+03  0.25631322200E+03  0.00000000000E+00 0. -1.
          1    1    1    2  502    0 -0.93582358066E+01  0.26478915444E+02  0.35917573294E+02  0.45593657584E+02  0.00000000000E+00 0. -1.
         22    1    3    3    0    0 -0.36211518841E+02 -0.29395759174E+02 -0.67432476413E+01  0.47125960392E+02  0.00000000000E+00 0. -1.
         22    1    3    3    0    0  0.39680109382E+02  0.75246284483E+02 -0.40302206828E+02  0.94131728361E+02  0.00000000000E+00 0. -1.
</event>
<event>
 7    1  0.6507405E-006  0.1160951E+03  0.7818608E-02  0.1250627E+00
          2   -1    0    0  502    0  0.00000000000E+00  0.00000000000E+00  0.15827727043E+04  0.15827727043E+04  0.00000000000E+00 0. -1.
          1   -1    0    0  501    0 -0.00000000000E+00 -0.00000000000E+00 -0.62035147116E+03  0.62035147116E+03  0.00000000000E+00 0. -1.
         25    2    1    2    0    0 -0.78079850438E+02  0.30475393560E+02 -0.31359641790E+03  0.34784375144E+03  0.12500939741E+03 0.  0.
          2    1    1    2  501    0  0.10364803374E+03 -0.14372000843E+03 -0.26013250739E+03  0.31474954666E+03  0.00000000000E+00 0. -1.
          1    1    1    2  502    0 -0.25568183298E+02  0.11324461487E+03  0.15361501584E+04  0.15405308773E+04  0.00000000000E+00 0. -1.
         22    1    3    3    0    0  0.19440178845E+02 -0.29693093833E+02 -0.63467741340E+02  0.72716948270E+02  0.00000000000E+00 0.  1.
         22    1    3    3    0    0 -0.97520029283E+02  0.60168487393E+02 -0.25012867656E+03  0.27512680317E+03  0.00000000000E+00 0.  1.
</event>
<event>
 7    1  0.6507405E-006  0.6571590E+02  0.7818608E-02  0.1464009E+00
          2   -1    0    0  502    0  0.00000000000E+00  0.00000000000E+00  0.17997133953E+04  0.17997133953E+04  0.00000000000E+00 0. -1.
          1   -1    0    0  501    0 -0.00000000000E+00 -0.00000000000E+00 -0.85422455234E+02  0.85422455234E+02  0.00000000000E+00 0. -1.
         25    2    1    2    0    0  0.43120156403E+02  0.51856899553E+02  0.26171219895E+03  0.29776904997E+03  0.12499858446E+03 0.  0.
          2    1    1    2  501    0 -0.30572202695E+02  0.12905242091E+02 -0.62547427239E+02  0.70805264672E+02  0.00000000000E+00 0. -1.
          1    1    1    2  502    0 -0.12547953709E+02 -0.64762141645E+02  0.15151261683E+04  0.15165615359E+04  0.00000000000E+00 0. -1.
         22    1    3    3    0    0  0.69154293395E+02 -0.11371121036E+02  0.99213411472E+02  0.12146983043E+03  0.00000000000E+00 0.  1.
         22    1    3    3    0    0 -0.26034136992E+02  0.63228020589E+02  0.16249878748E+03  0.17629921954E+03  0.00000000000E+00 0.  1.
</event>
<event>
 7    1  0.6507405E-006  0.3022747E+03  0.7818608E-02  0.1147463E+00
          2   -1    0    0  502    0  0.00000000000E+00  0.00000000000E+00  0.60730777861E+03  0.60730777861E+03  0.00000000000E+00 0. -1.
          1   -1    0    0  501    0 -0.00000000000E+00 -0.00000000000E+00 -0.14415797406E+04  0.14415797406E+04  0.00000000000E+00 0. -1.
         25    2    1    2    0    0  0.17991440042E+03  0.25817256379E+03 -0.33823621453E+03  0.47859280610E+03  0.12500029224E+03 0.  0.
          2    1    1    2  501    0 -0.12947602222E+03  0.41472963990E+02 -0.98514537336E+03  0.99448250548E+03  0.00000000000E+00 0. -1.
          1    1    1    2  502    0 -0.50438378199E+02 -0.29964552778E+03  0.48910962590E+03  0.57581220763E+03  0.00000000000E+00 0. -1.
         22    1    3    3    0    0  0.19516719416E+03  0.25777553849E+03 -0.32207529399E+03  0.45636712954E+03  0.00000000000E+00 0. -1.
         22    1    3    3    0    0 -0.15252793743E+02  0.39702529780E+00 -0.16160920537E+02  0.22225676563E+02  0.00000000000E+00 0. -1.
</event>
<event>
 7    1  0.6507405E-006  0.6492258E+02  0.7818608E-02  0.1426449E+00
          2   -1    0    0  502    0  0.00000000000E+00  0.00000000000E+00  0.82957114098E+03  0.82957114098E+03  0.00000000000E+00 0. -1.
          1   -1    0    0  501    0 -0.00000000000E+00 -0.00000000000E+00 -0.46079876763E+03  0.46079876763E+03  0.00000000000E+00 0. -1.
         25    2    1    2    0    0  0.71215739862E+02 -0.41416404391E+02 -0.18789988849E+03  0.24024658260E+03  0.12500020881E+03 0.  0.
          2    1    1    2  501    0 -0.29517427545E+02  0.56619743621E+02 -0.24196784188E+03  0.25025089491E+03  0.00000000000E+00 0. -1.
          1    1    1    2  502    0 -0.41698312317E+02 -0.15203339230E+02  0.79864010372E+03  0.79987243110E+03  0.00000000000E+00 0. -1.
         22    1    3    3    0    0  0.44169010890E+02  0.18823806597E+02 -0.80831050727E+01  0.48688538748E+02  0.00000000000E+00 0.  1.
         22    1    3    3    0    0  0.27046728972E+02 -0.60240210988E+02 -0.17981678341E+03  0.19155804385E+03  0.00000000000E+00 0.  1.
</event>
<event>
 7    1  0.6507405E-006  0.4590044E+02  0.7818608E-02  0.1469594E+00
          2   -1    0    0  502    0  0.00000000000E+00  0.00000000000E+00  0.14740236965E+04  0.14740236965E+04  0.00000000000E+00 0. -1.
          1   -1    0    0  501    0 -0.00000000000E+00 -0.00000000000E+00 -0.13566109190E+02  0.13566109190E+02  0.00000000000E+00 0. -1.
         25    2    1    2    0    0 -0.19993291007E+02  0.17580806898E+02  0.55192581285E+03  0.56653118322E+03  0.12500664868E+03 0.  0.
          2    1    1    2  501    0 -0.10038663998E+02 -0.51946624958E+02  0.11926748478E+03  0.13047589641E+03  0.00000000000E+00 0. -1.
          1    1    1    2  502    0  0.30031955005E+02  0.34365818060E+02  0.78926428972E+03  0.79058272610E+03  0.00000000000E+00 0. -1.
         22    1    3    3    0    0  0.45075462913E+02  0.37473753713E+02  0.21797957615E+03  0.22572366999E+03  0.00000000000E+00 0.  1.
         22    1    3    3    0    0 -0.65068753921E+02 -0.19892946815E+02  0.33394623669E+03  0.34080751323E+03  0.00000000000E+00 0.  1.
</event>
<event>
 7    1  0.6507405E-006  0.3379642E+02  0.7818608E-02  0.1610468E+00
          2   -1    0    0  502    0  0.00000000000E+00  0.00000000000E+00  0.75179073052E+02  0.75179073052E+02  0.00000000000E+00 0. -1.
          1   -1    0    0  501    0 -0.00000000000E+00 -0.00000000000E+00 -0.12521157857E+04  0.12521157857E+04  0.00000000000E+00 0. -1.
         25    2    1    2    0    0  0.53518896183E+02  0.11815526159E+02 -0.86485355727E+02  0.16157186959E+03  0.12498749290E+03 0.  0.
          2    1    1    2  501    0 -0.24513382656E+02  0.32566002796E+01 -0.11208274264E+04  0.11211001878E+04  0.00000000000E+00 0. -1.
          1    1    1    2  502    0 -0.29005513527E+02 -0.15072126439E+02  0.30376069422E+02  0.44622801390E+02  0.00000000000E+00 0. -1.
         22    1    3    3    0    0  0.88044328819E+02 -0.19093333861E+02 -0.59080983416E+02  0.10773542517E+03  0.00000000000E+00 0. -1.
         22    1    3    3    0    0 -0.34525432635E+02  0.30908860020E+02 -0.27404372311E+02  0.53836444423E+02  0.00000000000E+00 0. -1.
</event>
<event>
 7    1  0.6507405E-006  0.6379613E+02  0.7818608E-02  0.1482470E+00
          2   -1    0    0  502    0  0.00000000000E+00  0.00000000000E+00  0.92810992494E+03  0.92810992494E+03  0.00000000000E+00 0. -1.
          1   -1    0    0  501    0 -0.00000000000E+00 -0.00000000000E+00 -0.37397623689E+03  0.37397623689E+03  0.00000000000E+00 0. -1.
         25    2    1    2    0    0 -0.11098335675E+02 -0.40987790794E+02 -0.78253044525E+02  0.15346604258E+03  0.12500046079E+03 0.  0.
          2    1    1    2  501    0 -0.49422040852E+01  0.66299966675E+02 -0.25357804555E+03  0.26214869091E+03  0.00000000000E+00 0. -1.
          1    1    1    2  502    0  0.16040539760E+02 -0.25312175881E+02  0.88596477813E+03  0.88647142833E+03  0.00000000000E+00 0. -1.
         22    1    3    3    0    0 -0.40230120723E+02 -0.61733333595E+02 -0.73457615983E+01  0.74050167478E+02  0.00000000000E+00 0.  1.
         22    1    3    3    0    0  0.29131785048E+02  0.20745542801E+02 -0.70907282926E+02  0.79415875102E+02  0.00000000000E+00 0.  1.
</event>
<event>
 7    1  0.6507405E-006  0.1073077E+03  0.7818608E-02  0.1341966E+00
          2   -1    0    0  502    0  0.00000000000E+00  0.00000000000E+00  0.23411224696E+04  0.23411224696E+04  0.00000000000E+00 0. -1.
          1   -1    0    0  501    0 -0.00000000000E+00 -0.00000000000E+00 -0.40654550171E+03  0.40654550171E+03  0.00000000000E+00 0. -1.
         25    2    1    2    0    0 -0.55315467678E+02 -0.23318942396E+02  0.10724439683E+02  0.13908263057E+03  0.12500156192E+03 0.  0.
          2    1    1    2  501    0  0.10591612441E+03  0.40026611268E+02 -0.33268167185E+03  0.35142203944E+03  0.00000000000E+00 0. -1.
          1    1    1    2  502    0 -0.50600656728E+02 -0.16707668873E+02  0.22565342001E+04  0.22571633013E+04  0.00000000000E+00 0. -1.
         22    1    3    3    0    0 -0.59218758652E+02  0.36481524575E+02  0.30540394101E+02  0.75963666864E+02  0.00000000000E+00 0.  1.
         22    1    3    3    0    0  0.39032909742E+01 -0.59800466971E+02 -0.19815954418E+02  0.63118963710E+02  0.00000000000E+00 0.  1.
</event>
<event>
 7    1  0.6507405E-006  0.1915456E+03  0.7818608E-02  0.1267479E+00
          2   -1    0    0  502    0  0.00000000000E+00  0.00000000000E+00  0.56452662974E+03  0.56452662974E+03  0.00000000000E+00 0. -1.
          1   -1    0    0  501    0 -0.00000000000E+00 -0.00000000000E+00 -0.95252049372E+03  0.95252049372E+03  0.00000000000E+00 0. -1.
         25    2    1    2    0    0  0.11070034968E+03  0.12571055282E+03 -0.44173424719E+02  0.21362430755E+03  0.12500537116E+03 0.  0.
          2    1    1    2  501    0 -0.27745679609E+02  0.52124979479E+02 -0.80242726925E+03  0.80459701631E+03  0.00000000000E+00 0. -1.
          1    1    1    2  502    0 -0.82954670067E+02 -0.17783553229E+03  0.45860682999E+03  0.49882579960E+03  0.00000000000E+00 0. -1.
         22    1    3    3    0    0  0.13291481902E+03  0.11849414483E+03 -0.18669957834E+02  0.17904127680E+03  0.00000000000E+00 0. -1.
         22    1    3    3    0    0 -0.22214469344E+02  0.72164079838E+01 -0.25503466884E+02  0.34583030746E+02  0.00000000000E+00 0. -1.
</event>
<event>
 7    1  0.6507405E-006  0.3276612E+02  0.7818608E-02  0.1633641E+00
          2   -1    0    0  502    0  0.00000000000E+00  0.00000000000E+00  0.67524508115E+03  0.67524508115E+03  0.00000000000E+00 0. -1.
          1   -1    0    0  501    0 -0.00000000000E+00 -0.00000000000E+00 -0.16353260953E+03  0.16353260953E+03  0.00000000000E+00 0. -1.
         25    2    1    2    0    0  0.48866226298E+02 -0.22151429912E+02 -0.42181020245E+02  0.14242313158E+03  0.12500606394E+03 0.  0.
          2    1    1    2  501    0 -0.21983333625E+02  0.35813674684E+01 -0.69050721925E+02  0.72554085678E+02  0.00000000000E+00 0. -1.
          1    1    1    2  502    0 -0.26882892673E+02  0.18570062444E+02  0.62294421379E+03  0.62380047342E+03  0.00000000000E+00 0. -1.
         22    1    3    3    0    0  0.10983762501E+02 -0.72239088270E+02 -0.26166750997E+02  0.77613322120E+02  0.00000000000E+00 0.  1.
         22    1    3    3    0    0  0.37882463797E+02  0.50087658357E+02 -0.16014269248E+02  0.64809809463E+02  0.00000000000E+00 0.  1.
</event>
<event>
 7    1  0.6507405E-006  0.1179600E+03  0.7818608E-02  0.1393245E+00
          2   -1    0    0  502    0  0.00000000000E+00  0.00000000000E+00  0.13200816538E+03  0.13200816538E+03  0.00000000000E+00 0. -1.
          1   -1    0    0  501    0 -0.00000000000E+00 -0.00000000000E+00 -0.25088404814E+04  0.25088404814E+04  0.00000000000E+00 0. -1.
         25    2    1    2    0    0 -0.41728842829E+02 -0.11949637100E+03 -0.81650327644E+03  0.83565750536E+03  0.12500074728E+03 0.  0.
          2    1    1    2  501    0  0.10229980345E+02  0.11635646610E+03 -0.16786500168E+04  0.16827089346E+04  0.00000000000E+00 0. -1.
          1    1    1    2  502    0  0.31498862484E+02  0.31399048991E+01  0.11832097721E+03  0.12248220683E+03  0.00000000000E+00 0. -1.
         22    1    3    3    0    0  0.44326490432E+02 -0.35928131200E+02 -0.30343927026E+03  0.30875728186E+03  0.00000000000E+00 0. -1.
         22    1    3    3    0    0 -0.86055333261E+02 -0.83568239801E+02 -0.51306400618E+03  0.52690022350E+03  0.00000000000E+00 0. -1.
</event>
<event>
 7    1  0.6507405E-006  0.1277417E+03  0.7818608E-02  0.1308134E+00
          2   -1    0    0  502    0  0.00000000000E+00  0.00000000000E+00  0.28726798602E+03  0.28726798602E+03  0.00000000000E+00 0. -1.
          1   -1    0    0  501    0 -0.00000000000E+00 -0.00000000000E+00 -0.48797370825E+03  0.48797370825E+03  0.00000000000E+00 0. -1.
         25    2    1    2    0    0  0.37884330049E+01 -0.15772148045E+03 -0.19850614125E+03  0.28270052702E+03  0.12499792895E+03 0.  0.
          2    1    1    2  501    0  0.44435917524E+02  0.40940633297E+02 -0.22687182341E+03  0.23477970627E+03  0.00000000000E+00 0. -1.
          1    1    1    2  502    0 -0.48224350528E+02  0.11678084716E+03  0.22467224243E+03  0.25776146097E+03  0.00000000000E+00 0. -1.
         22    1    3    3    0    0  0.11631243445E+01  0.52967122272E+01  0.13908670894E+02  0.14928467594E+02  0.00000000000E+00 0.  1.
         22    1    3    3    0    0  0.26253086603E+01 -0.16301819268E+03 -0.21241481214E+03  0.26777205942E+03  0.00000000000E+00 0.  1.
</event>
<event>
 7    1  0.6507405E-006  0.5866952E+02  0.7818608E-02  0.1434948E+00
          2   -1    0    0  502    0  0.00000000000E+00  0.00000000000E+00  0.18185091410E+03  0.18185091410E+03  0.00000000000E+00 0. -1.
          1   -1    0    0  501    0 -0.00000000000E+00 -0.00000000000E+00 -0.15401772290E+03  0.15401772290E+03  0.00000000000E+00 0. -1.
         25    2    1    2    0    0 -0.38703512883E+02  0.18789188109E+02  0.49317608786E+02  0.14109374839E+03  0.12499689515E+03 0.  0.
          2    1    1    2  501    0 -0.24432982486E+02 -0.39036287912E+02 -0.88961155009E+02  0.10017429564E+03  0.00000000000E+00 0. -1.
          1    1    1    2  502    0  0.63136495369E+02  0.20247099802E+02  0.67476737419E+02  0.94600592971E+02  0.00000000000E+00 0. -1.
         22    1    3    3    0    0 -0.83897588827E+02  0.22352699409E+02  0.33943521025E+02  0.93223447702E+02  0.00000000000E+00 0. -1.
         22    1    3    3    0    0  0.45194075944E+02 -0.35635112995E+01  0.15374087761E+02  0.47870300685E+02  0.00000000000E+00 0. -1.
</event>
<event>
 7    1  0.6507405E-006  0.9753141E+02  0.7818608E-02  0.1406200E+00
          2   -1    0    0  502    0  0.00000000000E+00  0.00000000000E+00  0.88256479909E+02  0.88256479909E+02  0.00000000000E+00 0. -1.
          1   -1    0    0  501    0 -0.00000000000E+00 -0.00000000000E+00 -0.10960986410E+04  0.10960986410E+04  0.00000000000E+00 0. -1.
         25    2    1    2    0    0  0.94149688936E+02 -0.57100913519E+02 -0.29315759695E+03  0.33717963109E+03  0.12499619482E+03 0.  0.
          2    1    1    2  501    0 -0.17784890713E+00  0.34551102992E+02 -0.74507069591E+03  0.74587140463E+03  0.00000000000E+00 0. -1.
          1    1    1    2  502    0 -0.93971840029E+02  0.22549810527E+02  0.30386131763E+02  0.10130408519E+03  0.00000000000E+00 0. -1.
         22    1    3    3    0    0  0.33481225276E+01 -0.65318494199E+02 -0.18211357002E+03  0.19350211367E+03  0.00000000000E+00 0.  1.
         22    1    3    3    0    0  0.90801566409E+02  0.82175806793E+01 -0.11104402692E+03  0.14367751741E+03  0.00000000000E+00 0.  1.
</event>
<event>
 7    1  0.6507405E-006  0.5127277E+02  0.7818608E-02  0.1461577E+00
          2   -1    0    0  502    0  0.00000000000E+00  0.00000000000E+00  0.15523280490E+04  0.15523280490E+04  0.00000000000E+00 0. -1.
          1   -1    0    0  501    0 -0.00000000000E+00 -0.00000000000E+00 -0.23500338277E+03  0.23500338277E+03  0.00000000000E+00 0. -1.
         25    2    1    2    0    0 -0.87973117320E+02 -0.71258032224E+01  0.86947718004E+03  0.88283954445E+03  0.12500019273E+03 0.  0.
          2    1    1    2  501    0  0.49541751766E+02 -0.12794661732E+02 -0.22475102210E+03  0.23050186652E+03  0.00000000000E+00 0. -1.
          1    1    1    2  502    0  0.38431365554E+02  0.19920464954E+02  0.67259850827E+03  0.67399002078E+03  0.00000000000E+00 0. -1.
         22    1    3    3    0    0 -0.91125035122E+02  0.39059715927E+02  0.70624255942E+03  0.71316757230E+03  0.00000000000E+00 0. -1.
         22    1    3    3    0    0  0.31519178026E+01 -0.46185519149E+02  0.16323462062E+03  0.16967197215E+03  0.00000000000E+00 0. -1.
</event>
<event>
 7    1  0.6507405E-006  0.1077615E+03  0.7818608E-02  0.1323179E+00
          2   -1    0    0  502    0  0.00000000000E+00  0.00000000000E+00  0.79615830125E+02  0.79615830125E+02  0.00000000000E+00 0. -1.
          1   -1    0    0  501    0 -0.00000000000E+00 -0.00000000000E+00 -0.33952834178E+04  0.33952834178E+04  0.00000000000E+00 0. -1.
         25    2    1    2    0    0  0.39716294019E+02 -0.91131227379E+02 -0.11756423189E+03  0.19831056257E+03  0.12499378382E+03 0.  0.
          2    1    1    2  501    0 -0.92140574789E+02  0.56994989277E+02 -0.32109060434E+04  0.32127334054E+04  0.00000000000E+00 0. -1.
          1    1    1    2  502    0  0.52424280771E+02  0.34136238102E+02  0.12802687665E+02  0.63855279950E+02  0.00000000000E+00 0. -1.
         22    1    3    3    0    0  0.51609015348E+02 -0.37418895582E+02  0.50236273687E+01  0.63944515352E+02  0.00000000000E+00 0.  1.
         22    1    3    3    0    0 -0.11892721329E+02 -0.53712331798E+02 -0.12258785926E+03  0.13436604722E+03  0.00000000000E+00 0.  1.
</event>
<event>
 7    1  0.6507405E-006  0.1392535E+03  0.7818608E-02  0.1242046E+00
          2   -1    0    0  502    0  0.00000000000E+00  0.00000000000E+00  0.45322208650E+04  0.45322208650E+04  0.00000000000E+00 0. -1.
          1   -1    0    0  501    0 -0.00000000000E+00 -0.00000000000E+00 -0.16532232053E+03  0.16532232053E+03  0.00000000000E+00 0. -1.
         25    2    1    2    0    0  0.84101701803E+01 -0.47095418427E+02  0.60039352502E+02  0.14669316363E+03  0.12500180402E+03 0.  0.
          2    1    1    2  501    0  0.87061186335E+02 -0.57823005688E+02 -0.98257895016E+02  0.14344951755E+03  0.00000000000E+00 0. -1.
          1    1    1    2  502    0 -0.95471356515E+02  0.10491842411E+03  0.44051170870E+04  0.44074005043E+04  0.00000000000E+00 0. -1.
         22    1    3    3    0    0  0.63077166455E+02 -0.17729761974E+02  0.52934780279E+02  0.84232798545E+02  0.00000000000E+00 0.  1.
         22    1    3    3    0    0 -0.54666996275E+02 -0.29365656453E+02  0.71045722231E+01  0.62460365089E+02  0.00000000000E+00 0.  1.
</event>
<event>
 7    1  0.6507405E-006  0.1333839E+03  0.7818608E-02  0.1338732E+00
          2   -1    0    0  502    0  0.00000000000E+00  0.00000000000E+00  0.11152243364E+03  0.11152243364E+03  0.00000000000E+00 0. -1.
          1   -1    0    0  501    0 -0.00000000000E+00 -0.00000000000E+00 -0.28480153836E+04  0.28480153836E+04  0.00000000000E+00 0. -1.
         25    2    1    2    0    0 -0.90200591704E+02  0.14666414367E+03 -0.78161137485E+02  0.22667290200E+03  0.12499969322E+03 0.  0.
          2    1    1    2  501    0  0.54456515236E+02 -0.12085607202E+03 -0.26803218188E+04  0.26835977259E+04  0.00000000000E+00 0. -1.
          1    1    1    2  502    0  0.35744076468E+02 -0.25808071648E+02  0.21990006336E+02  0.49267189319E+02  0.00000000000E+00 0. -1.
         22    1    3    3    0    0  0.19998423721E+02  0.64150802545E+02  0.22659811773E+01  0.67233898364E+02  0.00000000000E+00 0.  1.
         22    1    3    3    0    0 -0.11019901543E+03  0.82513341123E+02 -0.80427118662E+02  0.15943900364E+03  0.00000000000E+00 0.  1.
</event>
<event>
 7    1  0.6507405E-006  0.2133769E+03  0.7818608E-02  0.1254256E+00
          2   -1    0    0  502    0  0.00000000000E+00  0.00000000000E+00  0.98508300333E+03  0.98508300333E+03  0.00000000000E+00 0. -1.
          1   -1    0    0  501    0 -0.00000000000E+00 -0.00000000000E+00 -0.89255613312E+03  0.89255613312E+03  0.00000000000E+00 0. -1.
         25    2    1    2    0    0  0.17443358995E+03  0.14347893457E+03  0.46401232939E+03  0.53098588548E+03  0.12500114714E+03 0.  0.
          2    1    1    2  501    0 -0.12264082255E+03 -0.17446292688E+03 -0.84388516195E+03  0.87041383880E+03  0.00000000000E+00 0. -1.
          1    1    1    2  502    0 -0.51792767397E+02  0.30983992310E+02  0.47239970277E+03  0.47623941217E+03  0.00000000000E+00 0. -1.
         22    1    3    3    0    0  0.33754067429E+02  0.77780087200E+01  0.19730513848E+03  0.20032262019E+03  0.00000000000E+00 0. -1.
         22    1    3    3    0    0  0.14067952252E+03  0.13570092585E+03  0.26670719091E+03  0.33066326529E+03  0.00000000000E+00 0. -1.
</event>
<event>
 7    1  0.6507405E-006  0.5090412E+02  0.7818608E-02  0.1510289E+00
          2   -1    0    0  502    0  0.00000000000E+00  0.00000000000E+00  0.21223679277E+03  0.21223679277E+03  0.00000000000E+00 0. -1.
          1   -1    0    0  501    0 -0.00000000000E+00 -0.00000000000E+00 -0.82104517607E+03  0.82104517607E+03  0.00000000000E+00 0. -1.
         25    2    1    2    0    0 -0.47208455346E+02  0.22051672717E+01 -0.35448548125E+03  0.37883811921E+03  0.12499945253E+03 0.  0.
          2    1    1    2  501    0  0.48306865653E+01 -0.30612983760E+02 -0.45058980474E+03  0.45165436170E+03  0.00000000000E+00 0. -1.
          1    1    1    2  502    0  0.42377768780E+02  0.28407816488E+02  0.19626690269E+03  0.20278948793E+03  0.00000000000E+00 0. -1.
         22    1    3    3    0    0  0.32039701805E+02  0.26955271046E+02 -0.62122505932E+02  0.74915518234E+02  0.00000000000E+00 0. -1.
         22    1    3    3    0    0 -0.79248157151E+02 -0.24750103774E+02 -0.29236297531E+03  0.30392260097E+03  0.00000000000E+00 0. -1.
</event>
<event>
 7    1  0.6507405E-006  0.6928417E+02  0.7818608E-02  0.1440540E+00
          2   -1    0    0  502    0  0.00000000000E+00  0.00000000000E+00  0.77574099596E+02  0.77574099596E+02  0.00000000000E+00 0. -1.
          1   -1    0    0  501    0 -0.00000000000E+00 -0.00000000000E+00 -0.59789371386E+03  0.59789371386E+03  0.00000000000E+00 0. -1.
         25    2    1    2    0    0 -0.10259572772E+03  0.10227901008E+02 -0.84168057502E+02  0.18259002455E+03  0.12499744740E+03 0.  0.
          2    1    1    2  501    0  0.67534944531E+02  0.27792914108E+01 -0.44844717892E+03  0.45351247554E+03  0.00000000000E+00 0. -1.
          1    1    1    2  502    0  0.35060783188E+02 -0.13007192419E+02  0.12295622153E+02  0.39365313367E+02  0.00000000000E+00 0. -1.
         22    1    3    3    0    0 -0.11944682783E+03  0.30330760992E+02 -0.93559233471E+02  0.15472824535E+03  0.00000000000E+00 0.  1.
         22    1    3    3    0    0  0.16851100106E+02 -0.20102859984E+02  0.93911759689E+01  0.27861779204E+02  0.00000000000E+00 0.  1.
</event>
<event>
 7    1  0.6507405E-006  0.4422653E+02  0.7818608E-02  0.1588080E+00
          2   -1    0    0  502    0  0.00000000000E+00  0.00000000000E+00  0.34480754239E+03  0.34480754239E+03  0.00000000000E+00 0. -1.
          1   -1    0    0  501    0 -0.00000000000E+00 -0.00000000000E+00 -0.92492723217E+03  0.92492723217E+03  0.00000000000E+00 0. -1.
         25    2    1    2    0    0  0.20445825380E+02 -0.10577670964E+02 -0.86648446182E+02  0.15382667688E+03  0.12499909758E+03 0.  0.
          2    1    1    2  501    0 -0.40296177511E+02  0.19155499405E+02 -0.80369452701E+03  0.80493205168E+03  0.00000000000E+00 0. -1.
          1    1    1    2  502    0  0.19850352131E+02 -0.85778284406E+01  0.31022328341E+03  0.31097604601E+03  0.00000000000E+00 0. -1.
         22    1    3    3    0    0 -0.11621362064E+02  0.40277494105E+01 -0.11056049604E+03  0.11124253730E+03  0.00000000000E+00 0. -1.
         22    1    3    3    0    0  0.32067187444E+02 -0.14605420375E+02  0.23912049857E+02  0.42584139574E+02  0.00000000000E+00 0. -1.
</event>
<event>
 7    1  0.6507405E-006  0.5997339E+02  0.7818608E-02  0.1409101E+00
          2   -1    0    0  502    0  0.00000000000E+00  0.00000000000E+00  0.38262855515E+03  0.38262855515E+03  0.00000000000E+00 0. -1.
          1   -1    0    0  501    0 -0.00000000000E+00 -0.00000000000E+00 -0.45233088042E+03  0.45233088042E+03  0.00000000000E+00 0. -1.
         25    2    1    2    0    0  0.64631305375E+02  0.22283052558E+02  0.30501674570E+02  0.14569214007E+03  0.12498842930E+03 0.  0.
          2    1    1    2  501    0 -0.12472599348E+02 -0.53492242724E+02 -0.38965288949E+03  0.39350522240E+03  0.00000000000E+00 0. -1.
          1    1    1    2  502    0 -0.52158706027E+02  0.31209190165E+02  0.28944888965E+03  0.29576207310E+03  0.00000000000E+00 0. -1.
         22    1    3    3    0    0 -0.23671503951E+01  0.59713619237E+02 -0.71885170948E+01  0.60191315830E+02  0.00000000000E+00 0.  1.
         22    1    3    3    0    0  0.66998455770E+02 -0.37430566678E+02  0.37690191664E+02  0.85500824236E+02  0.00000000000E+00 0.  1.
</event>
<event>
 7    1  0.6507405E-006  0.5555272E+02  0.7818608E-02  0.1420159E+00
          2   -1    0    0  502    0  0.00000000000E+00  0.00000000000E+00  0.11570742575E+04  0.11570742575E+04  0.00000000000E+00 0. -1.
          1   -1    0    0  501    0 -0.00000000000E+00 -0.00000000000E+00 -0.13109742977E+04  0.13109742977E+04  0.00000000000E+00 0. -1.
         25    2    1    2    0    0 -0.87708424893E+02 -0.61525601544E+02  0.79203827942E+02  0.18269194334E+03  0.12499972944E+03 0.  0.
          2    1    1    2  501    0  0.37390543291E+02  0.40777155174E+02 -0.12579000444E+04  0.12591160990E+04  0.00000000000E+00 0. -1.
          1    1    1    2  502    0  0.50317881601E+02  0.20748446370E+02  0.10247961762E+04  0.10262405128E+04  0.00000000000E+00 0. -1.
         22    1    3    3    0    0 -0.38235146000E+02 -0.11163650277E+02 -0.31917088342E+02  0.51041688896E+02  0.00000000000E+00 0. -1.
         22    1    3    3    0    0 -0.49473278893E+02 -0.50361951267E+02  0.11112091628E+03  0.13165025445E+03  0.00000000000E+00 0. -1.
</event>
<event>
 7    1  0.6507405E-006  0.6285689E+02  0.7818608E-02  0.1495754E+00
          2   -1    0    0  502    0  0.00000000000E+00  0.00000000000E+00  0.20307985537E+03  0.20307985537E+03  0.00000000000E+00 0. -1.
          1   -1    0    0  501    0 -0.00000000000E+00 -0.00000000000E+00 -0.13435800141E+04  0.13435800141E+04  0.00000000000E+00 0. -1.
         25    2    1    2    0    0 -0.69486611788E+01  0.84631052604E+02  0.74369815890E+02  0.16842210926E+03  0.12499775364E+03 0.  0.
          2    1    1    2  501    0  0.79308398991E+01 -0.26564375598E+02 -0.12860631441E+04  0.12863619145E+04  0.00000000000E+00 0. -1.
          1    1    1    2  502    0 -0.98217872035E+00 -0.58066677007E+02  0.71193169495E+02  0.91875845773E+02  0.00000000000E+00 0. -1.
         22    1    3    3    0    0 -0.38355885733E+02 -0.16021201340E+02  0.42230014848E+01  0.41781414579E+02  0.00000000000E+00 0. -1.
         22    1    3    3    0    0  0.31407224554E+02  0.10065225394E+03  0.70146814406E+02  0.12664069468E+03  0.00000000000E+00 0. -1.
</event>
<event>
 7    1  0.6507405E-006  0.1315049E+03  0.7818608E-02  0.1285704E+00
          2   -1    0    0  502    0  0.00000000000E+00  0.00000000000E+00  0.16060941207E+04  0.16060941207E+04  0.00000000000E+00 0. -1.
          1   -1    0    0  501    0 -0.00000000000E+00 -0.00000000000E+00 -0.79020518990E+02  0.79020518990E+02  0.00000000000E+00 0. -1.
         25    2    1    2    0    0 -0.12427720992E+03 -0.28096856445E+02  0.53477106617E+03  0.56377303438E+03  0.12500273131E+03 0.  0.
          2    1    1    2  501    0  0.95522440325E+02  0.94374081081E+02  0.81348630188E+01  0.13452575880E+03  0.00000000000E+00 0. -1.
          1    1    1    2  502    0  0.28754769595E+02 -0.66277224636E+02  0.98416767257E+03  0.98681584655E+03  0.00000000000E+00 0. -1.
         22    1    3    3    0    0 -0.83704529988E+02  0.42207605158E+02  0.34185801641E+03  0.35447825555E+03  0.00000000000E+00 0.  1.
         22    1    3    3    0    0 -0.40572679932E+02 -0.70304461603E+02  0.19291304975E+03  0.20929477882E+03  0.00000000000E+00 0.  1.
</event>
<event>
 7    1  0.6507405E-006  0.8312121E+02  0.7818608E-02  0.1359085E+00
          2   -1    0    0  502    0  0.00000000000E+00  0.00000000000E+00  0.15257598689E+04  0.15257598689E+04  0.00000000000E+00 0. -1.
          1   -1    0    0  501    0 -0.00000000000E+00 -0.00000000000E+00 -0.17600413850E+04  0.17600413850E+04  0.00000000000E+00 0. -1.
         25    2    1    2    0    0  0.13909682904E+03  0.28741972240E+02  0.35730269923E+02  0.19255110312E+03  0.12500098522E+03 0.  0.
          2    1    1    2  501    0 -0.80683799776E+02 -0.17677296930E+02 -0.16799899251E+04  0.16820191768E+04  0.00000000000E+00 0. -1.
          1    1    1    2  502    0 -0.58413029264E+02 -0.11064675310E+02  0.14099781392E+04  0.14112309740E+04  0.00000000000E+00 0. -1.
         22    1    3    3    0    0  0.23923248600E+02  0.47988940915E+02 -0.26958703669E+02  0.60016930755E+02  0.00000000000E+00 0. -1.
         22    1    3    3    0    0  0.11517358044E+03 -0.19246968675E+02  0.62688973592E+02  0.13253417236E+03  0.00000000000E+00 0. -1.
</event>
<event>
 7    1  0.6507405E-006  0.9499609E+02  0.7818608E-02  0.1449009E+00
          2   -1    0    0  502    0  0.00000000000E+00  0.00000000000E+00  0.42495969829E+03  0.42495969829E+03  0.00000000000E+00 0. -1.
          1   -1    0    0  501    0 -0.00000000000E+00 -0.00000000000E+00 -0.17900824528E+04  0.17900824528E+04  0.00000000000E+00 0. -1.
         25    2    1    2    0    0 -0.46114104989E+02 -0.74622020213E+02  0.88728198356E+02  0.17661341518E+03  0.12499859463E+03 0.  0.
          2    1    1    2  501    0 -0.24269891483E+02  0.81839888266E+01 -0.17380303503E+04  0.17382190610E+04  0.00000000000E+00 0. -1.
          1    1    1    2  502    0  0.70383996472E+02  0.66438031386E+02  0.28417939746E+03  0.30020967492E+03  0.00000000000E+00 0. -1.
         22    1    3    3    0    0 -0.14421819572E+02  0.33721680588E+02  0.72238289288E+01  0.37380801567E+02  0.00000000000E+00 0.  1.
         22    1    3    3    0    0 -0.31692285417E+02 -0.10834370080E+03  0.81504369428E+02  0.13923261361E+03  0.00000000000E+00 0.  1.
</event>
<event>
 7    1  0.6507405E-006  0.9354358E+02  0.7818608E-02  0.1431987E+00
          2   -1    0    0  502    0  0.00000000000E+00  0.00000000000E+00  0.11536755926E+04  0.11536755926E+04  0.00000000000E+00 0. -1.
          1   -1    0    0  501    0 -0.00000000000E+00 -0.00000000000E+00 -0.23665364459E+03  0.23665364459E+03  0.00000000000E+00 0. -1.
         25    2    1    2    0    0  0.29941158781E+02  0.66330395026E+02  0.10930654439E+03  0.18130555396E+03  0.12501035540E+03 0.  0.
          2    1    1    2  501    0 -0.57969326279E+02 -0.75646292623E+02 -0.18910655897E+03  0.21176424397E+03  0.00000000000E+00 0. -1.
          1    1    1    2  502    0  0.28028167498E+02  0.93158975972E+01  0.99682196254E+03  0.99725943923E+03  0.00000000000E+00 0. -1.
         22    1    3    3    0    0 -0.44765198612E+02  0.50181550480E+02  0.61676932985E+02  0.91247767522E+02  0.00000000000E+00 0.  1.
         22    1    3    3    0    0  0.74706357393E+02  0.16148844546E+02  0.47629611406E+02  0.90057786436E+02  0.00000000000E+00 0.  1.
</event>
<event>
 7    1  0.6507405E-006  0.1746502E+03  0.7818608E-02  0.1306792E+00
          2   -1    0    0  502    0  0.00000000000E+00  0.00000000000E+00  0.74012575846E+03  0.74012575846E+03  0.00000000000E+00 0. -1.
          1   -1    0    0  501    0 -0.00000000000E+00 -0.00000000000E+00 -0.20378895846E+04  0.20378895846E+04  0.00000000000E+00 0. -1.
         25    2    1    2    0    0 -0.11759588092E+03 -0.76688303507E+02 -0.19462383909E+03  0.27057984142E+03  0.12500049893E+03 0.  0.
          2    1    1    2  501    0 -0.11814756737E+02 -0.43147936928E+02 -0.17939285249E+04  0.17944862455E+04  0.00000000000E+00 0. -1.
          1    1    1    2  502    0  0.12941063766E+03  0.11983624043E+03  0.69078853790E+03  0.71294925608E+03  0.00000000000E+00 0. -1.
         22    1    3    3    0    0 -0.95389782259E+02  0.10849689457E+02 -0.11816882190E+03  0.15225241144E+03  0.00000000000E+00 0. -1.
         22    1    3    3    0    0 -0.22206098663E+02 -0.87537992964E+02 -0.76455017195E+02  0.11832742997E+03  0.00000000000E+00 0. -1.
</event>
<event>
 7    1  0.6507405E-006  0.8199688E+02  0.7818608E-02  0.1328394E+00
          2   -1    0    0  502    0  0.00000000000E+00  0.00000000000E+00  0.32853868256E+03  0.32853868256E+03  0.00000000000E+00 0. -1.
          1   -1    0    0  501    0 -0.00000000000E+00 -0.00000000000E+00 -0.70965630468E+03  0.70965630468E+03  0.00000000000E+00 0. -1.
         25    2    1    2    0    0 -0.69282881577E+01  0.67506932047E+02  0.32910481666E+02  0.14599056105E+03  0.12499982824E+03 0.  0.
          2    1    1    2  501    0  0.77261375989E+02 -0.13920310760E+02 -0.64246933228E+03  0.64724797272E+03  0.00000000000E+00 0. -1.
          1    1    1    2  502    0 -0.70333087831E+02 -0.53586621287E+02  0.22844122849E+03  0.24495645347E+03  0.00000000000E+00 0. -1.
         22    1    3    3    0    0  0.32881993661E+00  0.61289782491E+02  0.78396489115E+02  0.99511582572E+02  0.00000000000E+00 0.  1.
         22    1    3    3    0    0 -0.72571080943E+01  0.62171495564E+01 -0.45486007449E+02  0.46478978476E+02  0.00000000000E+00 0.  1.
</event>
<event>
 7    1  0.6507405E-006  0.1996395E+03  0.7818608E-02  0.1274049E+00
          2   -1    0    0  502    0  0.00000000000E+00  0.00000000000E+00  0.31045236480E+03  0.31045236480E+03  0.00000000000E+00 0. -1.
          1   -1    0    0  501    0 -0.00000000000E+00 -0.00000000000E+00 -0.11289725402E+04  0.11289725402E+04  0.00000000000E+00 0. -1.
         25    2    1    2    0    0  0.14882510227E+03  0.19129909855E+03 -0.12780138048E+03  0.30116621078E+03  0.12499454985E+03 0.  0.
          2    1    1    2  501    0 -0.20576757853E+02 -0.49029721840E+02 -0.87254186616E+03  0.87416052575E+03  0.00000000000E+00 0. -1.
          1    1    1    2  502    0 -0.12824834442E+03 -0.14226937671E+03  0.18182307119E+03  0.26409816852E+03  0.00000000000E+00 0. -1.
         22    1    3    3    0    0  0.14173261603E+03  0.12391748500E+03 -0.43885306595E+02  0.19331217673E+03  0.00000000000E+00 0. -1.
         22    1    3    3    0    0  0.70924862369E+01  0.67381613547E+02 -0.83916073886E+02  0.10785403405E+03  0.00000000000E+00 0. -1.
</event>
<event>
 7    1  0.6507405E-006  0.4435408E+02  0.7818608E-02  0.1489145E+00
          2   -1    0    0  502    0  0.00000000000E+00  0.00000000000E+00  0.51465146178E+03  0.51465146178E+03  0.00000000000E+00 0. -1.
          1   -1    0    0  501    0 -0.00000000000E+00 -0.00000000000E+00 -0.14065722174E+03  0.14065722174E+03  0.00000000000E+00 0. -1.
         25    2    1    2    0    0 -0.84224255874E+01  0.28169636491E+02  0.35930744924E+03  0.38155332687E+03  0.12496652548E+03 0.  0.
          2    1    1    2  501    0  0.44036982508E+02 -0.75900064081E+01 -0.12257314927E+03  0.13046471150E+03  0.00000000000E+00 0. -1.
          1    1    1    2  502    0 -0.35614556920E+02 -0.20579630083E+02  0.13725994007E+03  0.14329064515E+03  0.00000000000E+00 0. -1.
         22    1    3    3    0    0 -0.31145098452E+02  0.36673838989E+02  0.43647135528E+02  0.64961989375E+02  0.00000000000E+00 0. -1.
         22    1    3    3    0    0  0.22722672864E+02 -0.85042024980E+01  0.31566031371E+03  0.31659133749E+03  0.00000000000E+00 0. -1.
</event>
<event>
 7    1  0.6507405E-006  0.1308696E+03  0.7818608E-02  0.1291069E+00
          2   -1    0    0  502    0  0.00000000000E+00  0.00000000000E+00  0.50836456675E+03  0.50836456675E+03  0.00000000000E+00 0. -1.
          1   -1    0    0  501    0 -0.00000000000E+00 -0.00000000000E+00 -0.46178364397E+04  0.46178364397E+04  0.00000000000E+00 0. -1.
         25    2    1    2    0    0 -0.65195895118E+02  0.89013899255E+02 -0.16169955030E+03  0.23225836023E+03  0.12499288911E+03 0.  0.
          2    1    1    2  501    0 -0.57345280110E+02 -0.38428860585E+02 -0.44112945984E+04  0.44118346855E+04  0.00000000000E+00 0. -1.
          1    1    1    2  502    0  0.12254117523E+03 -0.50585038669E+02  0.46352227570E+03  0.48210796076E+03  0.00000000000E+00 0. -1.
         22    1    3    3    0    0 -0.40148784697E+02  0.14520276102E+02  0.96270300979E+01  0.43765774748E+02  0.00000000000E+00 0. -1.
         22    1    3    3    0    0 -0.25047110420E+02  0.74493623153E+02 -0.17132658040E+03  0.18849258548E+03  0.00000000000E+00 0. -1.
</event>
<event>
 7    1  0.6507405E-006  0.5743658E+02  0.7818608E-02  0.1522620E+00
          2   -1    0    0  502    0  0.00000000000E+00  0.00000000000E+00  0.25345194473E+03  0.25345194473E+03  0.00000000000E+00 0. -1.
          1   -1    0    0  501    0 -0.00000000000E+00 -0.00000000000E+00 -0.90779692919E+03  0.90779692919E+03  0.00000000000E+00 0. -1.
         25    2    1    2    0    0  0.61691957777E+02 -0.82226519089E+01  0.41869685967E+02  0.14577845322E+03  0.12499910864E+03 0.  0.
          2    1    1    2  501    0 -0.65781167840E+01  0.24412183068E+02 -0.85048089601E+03  0.85085661587E+03  0.00000000000E+00 0. -1.
          1    1    1    2  502    0 -0.55113840993E+02 -0.16189531159E+02  0.15426622558E+03  0.16461380483E+03  0.00000000000E+00 0. -1.
         22    1    3    3    0    0  0.30700412465E+02 -0.65971769446E+02  0.11979912382E+02  0.73744884501E+02  0.00000000000E+00 0.  1.
         22    1    3    3    0    0  0.30991545313E+02  0.57749117537E+02  0.29889773584E+02  0.72033568717E+02  0.00000000000E+00 0.  1.
</event>
<event>
 7    1  0.6507405E-006  0.2428849E+03  0.7818608E-02  0.1255177E+00
          2   -1    0    0  502    0  0.00000000000E+00  0.00000000000E+00  0.16685485117E+04  0.16685485117E+04  0.00000000000E+00 0. -1.
          1   -1    0    0  501    0 -0.00000000000E+00 -0.00000000000E+00 -0.72640797536E+03  0.72640797536E+03  0.00000000000E+00 0. -1.
         25    2    1    2    0    0 -0.30408953617E+02  0.23637226580E+03  0.22494546869E+03  0.35073875748E+03  0.12498263726E+03 0.  0.
          2    1    1    2  501    0 -0.52166390372E+02 -0.62458147561E+01 -0.65162212156E+03  0.65373674503E+03  0.00000000000E+00 0. -1.
          1    1    1    2  502    0  0.82575343989E+02 -0.23012645105E+03  0.13688171892E+04  0.13904809846E+04  0.00000000000E+00 0. -1.
         22    1    3    3    0    0 -0.49181451904E+02  0.17077850803E+03  0.89282537386E+02  0.19888560908E+03  0.00000000000E+00 0.  1.
         22    1    3    3    0    0  0.18772498287E+02  0.65593757773E+02  0.13566293130E+03  0.15185314840E+03  0.00000000000E+00 0.  1.
</event>
<event>
 7    1  0.6507405E-006  0.7159744E+02  0.7818608E-02  0.1402685E+00
          2   -1    0    0  502    0  0.00000000000E+00  0.00000000000E+00  0.16345953668E+04  0.16345953668E+04  0.00000000000E+00 0. -1.
          1   -1    0    0  501    0 -0.00000000000E+00 -0.00000000000E+00 -0.61417524122E+03  0.61417524122E+03  0.00000000000E+00 0. -1.
         25    2    1    2    0    0 -0.11648669318E+02 -0.21584341209E+02  0.81891441975E+02  0.15143303396E+03  0.12499672085E+03 0.  0.
          2    1    1    2  501    0 -0.17385643953E+02 -0.45155053700E+02 -0.57751972059E+03  0.57954315384E+03  0.00000000000E+00 0. -1.
          1    1    1    2  502    0  0.29034313271E+02  0.66739394909E+02  0.15160484042E+04  0.15177944203E+04  0.00000000000E+00 0. -1.
         22    1    3    3    0    0  0.53619330487E+02  0.10523534474E+02  0.35091599947E+02  0.64939955086E+02  0.00000000000E+00 0.  1.
         22    1    3    3    0    0 -0.65267999804E+02 -0.32107875683E+02  0.46799842027E+02  0.86493078874E+02  0.00000000000E+00 0.  1.
</event>
<event>
 7    1  0.6507405E-006  0.8671108E+02  0.7818608E-02  0.1437245E+00
          2   -1    0    0  502    0  0.00000000000E+00  0.00000000000E+00  0.31218640365E+04  0.31218640365E+04  0.00000000000E+00 0. -1.
          1   -1    0    0  501    0 -0.00000000000E+00 -0.00000000000E+00 -0.24209576049E+02  0.24209576049E+02  0.00000000000E+00 0. -1.
         25    2    1    2    0    0  0.66122737758E+02 -0.35003976032E+02  0.75781242463E+03  0.77168717611E+03  0.12499572815E+03 0.  0.
          2    1    1    2  501    0  0.21500641045E+02  0.21810166494E+02 -0.21660270532E+01  0.30702648111E+02  0.00000000000E+00 0. -1.
          1    1    1    2  502    0 -0.87623378803E+02  0.13193809539E+02  0.23420080628E+04  0.23436837883E+04  0.00000000000E+00 0. -1.
         22    1    3    3    0    0  0.60016335843E+02 -0.21572361844E+02  0.14161378006E+03  0.15531191219E+03  0.00000000000E+00 0.  1.
         22    1    3    3    0    0  0.61064019149E+01 -0.13431614189E+02  0.61619864457E+03  0.61637526392E+03  0.00000000000E+00 0.  1.
</event>
<event>
 7    1  0.6507405E-006  0.5758725E+02  0.7818608E-02  0.1453606E+00
          2   -1    0    0  502    0  0.00000000000E+00  0.00000000000E+00  0.50869436530E+03  0.50869436530E+03  0.00000000000E+00 0. -1.
          1   -1    0    0  501    0 -0.00000000000E+00 -0.00000000000E+00 -0.70945779938E+03  0.70945779938E+03  0.00000000000E+00 0. -1.
         25    2    1    2    0    0  0.19661334657E+02  0.39478783845E+02  0.10868378586E+03  0.17141427801E+03  0.12500218775E+03 0.  0.
          2    1    1    2  501    0 -0.54753262898E+02 -0.18575184986E+02 -0.67572275660E+03  0.67819186156E+03  0.00000000000E+00 0. -1.
          1    1    1    2  502    0  0.35091928242E+02 -0.20903598859E+02  0.36627553666E+03  0.36854602511E+03  0.00000000000E+00 0. -1.
         22    1    3    3    0    0  0.72907269435E+02  0.26111662756E+02  0.68367878379E+02  0.10330273792E+03  0.00000000000E+00 0.  1.
         22    1    3    3    0    0 -0.53245934778E+02  0.13367121089E+02  0.40315907485E+02  0.68111540086E+02  0.00000000000E+00 0.  1.
</event>
<event>
 7    1  0.6507405E-006  0.4129677E+02  0.7818608E-02  0.1527840E+00
          2   -1    0    0  502    0  0.00000000000E+00  0.00000000000E+00  0.32969800749E+03  0.32969800749E+03  0.00000000000E+00 0. -1.
          1   -1    0    0  501    0 -0.00000000000E+00 -0.00000000000E+00 -0.87352736676E+03  0.87352736676E+03  0.00000000000E+00 0. -1.
         25    2    1    2    0    0 -0.23206483622E+02  0.29242028502E+02 -0.46170020438E+02  0.13838497804E+03  0.12500037698E+03 0.  0.
          2    1    1    2  501    0 -0.18373579777E+02 -0.28568014939E+02 -0.77935344469E+03  0.78009327113E+03  0.00000000000E+00 0. -1.
          1    1    1    2  502    0  0.41580063399E+02 -0.67401356323E+00  0.28169410586E+03  0.28474712508E+03  0.00000000000E+00 0. -1.
         22    1    3    3    0    0 -0.32102806963E+02  0.25522437104E+02  0.36652183257E+02  0.55003341245E+02  0.00000000000E+00 0.  1.
         22    1    3    3    0    0  0.88963233406E+01  0.37195913983E+01 -0.82822203695E+02  0.83381636791E+02  0.00000000000E+00 0.  1.
</event>
<event>
 7    1  0.6507405E-006  0.9812304E+02  0.7818608E-02  0.1443763E+00
          2   -1    0    0  502    0  0.00000000000E+00  0.00000000000E+00  0.23262555411E+04  0.23262555411E+04  0.00000000000E+00 0. -1.
          1   -1    0    0  501    0 -0.00000000000E+00 -0.00000000000E+00 -0.91796422026E+02  0.91796422026E+02  0.00000000000E+00 0. -1.
         25    2    1    2    0    0  0.77365876870E+02  0.29593423914E+02  0.14439596562E+03  0.20816988927E+03  0.12499303289E+03 0.  0.
          2    1    1    2  501    0  0.46741018687E+01  0.25351256315E+02 -0.55947660333E+02  0.61600926306E+02  0.00000000000E+00 0. -1.
          1    1    1    2  502    0 -0.82039978739E+02 -0.54944680229E+02  0.21460108138E+04  0.21482811475E+04  0.00000000000E+00 0. -1.
         22    1    3    3    0    0  0.67569847840E+02  0.96827974014E+01  0.65772803798E+01  0.68576246032E+02  0.00000000000E+00 0. -1.
         22    1    3    3    0    0  0.97960290302E+01  0.19910626512E+02  0.13781868524E+03  0.13959364324E+03  0.00000000000E+00 0. -1.
</event>
<event>
 7    1  0.6507405E-006  0.1255660E+03  0.7818608E-02  0.1304527E+00
          2   -1    0    0  502    0  0.00000000000E+00  0.00000000000E+00  0.26156777350E+04  0.26156777350E+04  0.00000000000E+00 0. -1.
          1   -1    0    0  501    0 -0.00000000000E+00 -0.00000000000E+00 -0.13883910151E+03  0.13883910151E+03  0.00000000000E+00 0. -1.
         25    2    1    2    0    0  0.40104629352E+02  0.54939102991E+02  0.76987741509E+03  0.78292228893E+03  0.12501755835E+03 0.  0.
          2    1    1    2  501    0 -0.50270487681E+02 -0.11764569466E+03 -0.10070266658E+03  0.16281479803E+03  0.00000000000E+00 0. -1.
          1    1    1    2  502    0  0.10165858329E+02  0.62706591665E+02  0.18076638850E+04  0.18087797495E+04  0.00000000000E+00 0. -1.
         22    1    3    3    0    0  0.35084570686E+02  0.92987240634E+02  0.45584932279E+03  0.46655777681E+03  0.00000000000E+00 0. -1.
         22    1    3    3    0    0  0.50200586650E+01 -0.38048137643E+02  0.31402809231E+03  0.31636451211E+03  0.00000000000E+00 0. -1.
</event>
<event>
 7    1  0.6507405E-006  0.1184894E+03  0.7818608E-02  0.1305149E+00
          2   -1    0    0  502    0  0.00000000000E+00  0.00000000000E+00  0.62564332363E+03  0.62564332363E+03  0.00000000000E+00 0. -1.
          1   -1    0    0  501    0 -0.00000000000E+00 -0.00000000000E+00 -0.42272328309E+03  0.42272328309E+03  0.00000000000E+00 0. -1.
         25    2    1    2    0    0 -0.14948514211E+02 -0.11346242712E+03  0.50322238784E+01  0.16955308317E+03  0.12500297712E+03 0.  0.
          2    1    1    2  501    0 -0.51863037434E+02  0.10936730392E+03 -0.32751381679E+03  0.34916512140E+03  0.00000000000E+00 0. -1.
          1    1    1    2  502    0  0.66811551645E+02  0.40951231993E+01  0.52540163345E+03  0.52964840215E+03  0.00000000000E+00 0. -1.
         22    1    3    3    0    0 -0.69683599435E+02 -0.54171819516E+02  0.92736231299E+01  0.88749028986E+02  0.00000000000E+00 0. -1.
         22    1    3    3    0    0  0.54735085224E+02 -0.59290607603E+02 -0.42413992515E+01  0.80804054180E+02  0.00000000000E+00 0. -1.
</event>
<event>
 7    1  0.6507405E-006  0.5102950E+02  0.7818608E-02  0.1498547E+00
          2   -1    0    0  502    0  0.00000000000E+00  0.00000000000E+00  0.36324433162E+02  0.36324433162E+02  0.00000000000E+00 0. -1.
          1   -1    0    0  501    0 -0.00000000000E+00 -0.00000000000E+00 -0.15601669232E+04  0.15601669232E+04  0.00000000000E+00 0. -1.
         25    2    1    2    0    0  0.66440103304E+02  0.11997502545E+02 -0.52887029868E+03  0.54762903916E+03  0.12504217011E+03 0.  0.
          2    1    1    2  501    0 -0.39290997141E+02 -0.31618234580E+02 -0.10106292060E+04  0.10118867956E+04  0.00000000000E+00 0. -1.
          1    1    1    2  502    0 -0.27149106163E+02  0.19620732034E+02  0.15657014595E+02  0.36975521592E+02  0.00000000000E+00 0. -1.
         22    1    3    3    0    0  0.76954131176E+02 -0.30303050796E+02 -0.20845428753E+03  0.22426190756E+03  0.00000000000E+00 0.  1.
         22    1    3    3    0    0 -0.10514027872E+02  0.42300553341E+02 -0.32041601115E+03  0.32336713160E+03  0.00000000000E+00 0.  1.
</event>
<event>
 7    1  0.6507405E-006  0.6714448E+02  0.7818608E-02  0.1444332E+00
          2   -1    0    0  502    0  0.00000000000E+00  0.00000000000E+00  0.20208235089E+04  0.20208235089E+04  0.00000000000E+00 0. -1.
          1   -1    0    0  501    0 -0.00000000000E+00 -0.00000000000E+00 -0.94849693563E+02  0.94849693563E+02  0.00000000000E+00 0. -1.
         25    2    1    2    0    0 -0.33202993636E+02  0.35328616104E+02  0.65102551912E+03  0.66468705614E+03  0.12499642451E+03 0.  0.
          2    1    1    2  501    0  0.65630125047E+02 -0.16468377697E+02 -0.74715329608E+02  0.10080129590E+03  0.00000000000E+00 0. -1.
          1    1    1    2  502    0 -0.32427131411E+02 -0.18860238407E+02  0.13496636258E+04  0.13501848505E+04  0.00000000000E+00 0. -1.
         22    1    3    3    0    0 -0.27906550562E+01  0.20632969019E+01  0.58344412957E+03  0.58345445176E+03  0.00000000000E+00 0. -1.
         22    1    3    3    0    0 -0.30412338580E+02  0.33265319202E+02  0.67581389555E+02  0.81232604376E+02  0.00000000000E+00 0. -1.
</event>
<event>
 7    1  0.6507405E-006  0.1029178E+03  0.7818608E-02  0.1298686E+00
          2   -1    0    0  502    0  0.00000000000E+00  0.00000000000E+00  0.71927372181E+03  0.71927372181E+03  0.00000000000E+00 0. -1.
          1   -1    0    0  501    0 -0.00000000000E+00 -0.00000000000E+00 -0.11713534851E+04  0.11713534851E+04  0.00000000000E+00 0. -1.
         25    2    1    2    0    0 -0.76891461242E+02  0.16636211363E+03  0.83008936650E+02  0.23686381413E+03  0.12500133286E+03 0.  0.
          2    1    1    2  501    0  0.38418000015E+02 -0.94196378830E+02 -0.10890535231E+04  0.10937945313E+04  0.00000000000E+00 0. -1.
          1    1    1    2  502    0  0.38473461227E+02 -0.72165734796E+02  0.55396482318E+03  0.55996886147E+03  0.00000000000E+00 0. -1.
         22    1    3    3    0    0  0.19700727391E+01  0.77731485357E+02 -0.19400795280E+02  0.80140226228E+02  0.00000000000E+00 0. -1.
         22    1    3    3    0    0 -0.78861533981E+02  0.88630628269E+02  0.10240973193E+03  0.15672358790E+03  0.00000000000E+00 0. -1.
</event>
<event>
 7    1  0.6507405E-006  0.1049059E+03  0.7818608E-02  0.1351986E+00
          2   -1    0    0  502    0  0.00000000000E+00  0.00000000000E+00  0.12767798118E+04  0.12767798118E+04  0.00000000000E+00 0. -1.
          1   -1    0    0  501    0 -0.00000000000E+00 -0.00000000000E+00 -0.11894514112E+03  0.11894514112E+03  0.00000000000E+00 0. -1.
         25    2    1    2    0    0  0.33662314381E+02  0.51583058571E+02  0.21793748612E+03  0.25868069133E+03  0.12499995548E+03 0.  0.
          2    1    1    2  501    0 -0.71070939258E+02 -0.84791111611E+02 -0.66711287252E+02  0.12919367965E+03  0.00000000000E+00 0. -1.
          1    1    1    2  502    0  0.37408624877E+02  0.33208053040E+02  0.10066084718E+04  0.10078505819E+04  0.00000000000E+00 0. -1.
         22    1    3    3    0    0  0.22942924667E+02 -0.23052238385E+02  0.16085302953E+03  0.16410813690E+03  0.00000000000E+00 0. -1.
         22    1    3    3    0    0  0.10719389713E+02  0.74635296956E+02  0.57084456593E+02  0.94572554434E+02  0.00000000000E+00 0. -1.
</event>
<event>
 7    1  0.6507405E-006  0.1529433E+03  0.7818608E-02  0.1363492E+00
          2   -1    0    0  502    0  0.00000000000E+00  0.00000000000E+00  0.77657482631E+03  0.77657482631E+03  0.00000000000E+00 0. -1.
          1   -1    0    0  501    0 -0.00000000000E+00 -0.00000000000E+00 -0.14192386905E+04  0.14192386905E+04  0.00000000000E+00 0. -1.
         25    2    1    2    0    0 -0.12013741700E+03 -0.79471452021E+02  0.43184246995E+03  0.47208164000E+03  0.12499778128E+03 0.  0.
          2    1    1    2  501    0  0.10821286767E+03  0.10823588902E+03 -0.13941746799E+04  0.14025505590E+04  0.00000000000E+00 0. -1.
          1    1    1    2  502    0  0.11924549338E+02 -0.28764437002E+02  0.31966834571E+03  0.32118131789E+03  0.00000000000E+00 0. -1.
         22    1    3    3    0    0 -0.14435066481E+03 -0.61365807042E+02  0.39082139435E+03  0.42112259378E+03  0.00000000000E+00 0. -1.
         22    1    3    3    0    0  0.24213247803E+02 -0.18105644979E+02  0.41021075592E+02  0.50959046224E+02  0.00000000000E+00 0. -1.
</event>
<event>
 7    1  0.6507405E-006  0.1204944E+03  0.7818608E-02  0.1282659E+00
          2   -1    0    0  502    0  0.00000000000E+00  0.00000000000E+00  0.29714624865E+04  0.29714624865E+04  0.00000000000E+00 0. -1.
          1   -1    0    0  501    0 -0.00000000000E+00 -0.00000000000E+00 -0.64204727900E+02  0.64204727900E+02  0.00000000000E+00 0. -1.
         25    2    1    2    0    0 -0.97078284705E+02 -0.12428456250E+03  0.16408910812E+03  0.25965772297E+03  0.12500420736E+03 0.  0.
          2    1    1    2  501    0  0.88612041071E+02  0.43576958598E+02  0.13861288892E+03  0.17018982966E+03  0.00000000000E+00 0. -1.
          1    1    1    2  502    0  0.84662436334E+01  0.80707603900E+02  0.26045557616E+04  0.26058196618E+04  0.00000000000E+00 0. -1.
         22    1    3    3    0    0 -0.10632839884E+03 -0.64294949748E+02  0.15440250748E+03  0.19819107769E+03  0.00000000000E+00 0. -1.
         22    1    3    3    0    0  0.92501141308E+01 -0.59989612749E+02  0.96866006386E+01  0.61466645273E+02  0.00000000000E+00 0. -1.
</event>
<event>
 7    1  0.6507405E-006  0.1488832E+03  0.7818608E-02  0.1330494E+00
          2   -1    0    0  502    0  0.00000000000E+00  0.00000000000E+00  0.21640959498E+03  0.21640959498E+03  0.00000000000E+00 0. -1.
          1   -1    0    0  501    0 -0.00000000000E+00 -0.00000000000E+00 -0.25682945992E+03  0.25682945992E+03  0.00000000000E+00 0. -1.
         25    2    1    2    0    0 -0.11173668211E+03 -0.92426795545E+02 -0.16694621016E+02  0.19217402403E+03  0.12499738588E+03 0.  0.
          2    1    1    2  501    0 -0.28107945224E+02  0.31803914342E+02 -0.10145070860E+03  0.10997177741E+03  0.00000000000E+00 0. -1.
          1    1    1    2  502    0  0.13984462733E+03  0.60622881202E+02  0.77725464678E+02  0.17109325346E+03  0.00000000000E+00 0. -1.
         22    1    3    3    0    0 -0.97026444553E+02 -0.23858267944E+02  0.34107616925E+02  0.10557782639E+03  0.00000000000E+00 0. -1.
         22    1    3    3    0    0 -0.14710237555E+02 -0.68568527601E+02 -0.50802237941E+02  0.86596197642E+02  0.00000000000E+00 0. -1.
</event>
<event>
 7    1  0.6507405E-006  0.8822708E+02  0.7818608E-02  0.1390046E+00
          2   -1    0    0  502    0  0.00000000000E+00  0.00000000000E+00  0.46846138505E+02  0.46846138505E+02  0.00000000000E+00 0. -1.
          1   -1    0    0  501    0 -0.00000000000E+00 -0.00000000000E+00 -0.22311744036E+04  0.22311744036E+04  0.00000000000E+00 0. -1.
         25    2    1    2    0    0  0.68817039504E+02 -0.21459972178E+02 -0.44132378089E+03  0.46431640244E+03  0.12500690646E+03 0.  0.
          2    1    1    2  501    0 -0.89062533578E+02 -0.16953876449E+02 -0.17634009295E+04  0.17657299927E+04  0.00000000000E+00 0. -1.
          1    1    1    2  502    0  0.20245494075E+02  0.38413848627E+02  0.20396445323E+02  0.47974146980E+02  0.00000000000E+00 0. -1.
         22    1    3    3    0    0  0.78997421685E+01 -0.22359254843E+02 -0.36895988332E+03  0.36972116209E+03  0.00000000000E+00 0.  1.
         22    1    3    3    0    0  0.60917297335E+02  0.89928266547E+00 -0.72363897578E+02  0.94595240348E+02  0.00000000000E+00 0.  1.
</event>
<event>
 7    1  0.6507405E-006  0.1804452E+03  0.7818608E-02  0.1171697E+00
          2   -1    0    0  502    0  0.00000000000E+00  0.00000000000E+00  0.18352078648E+03  0.18352078648E+03  0.00000000000E+00 0. -1.
          1   -1    0    0  501    0 -0.00000000000E+00 -0.00000000000E+00 -0.16678859782E+04  0.16678859782E+04  0.00000000000E+00 0. -1.
         25    2    1    2    0    0  0.17410660091E+01  0.86614136012E+02 -0.36095564083E+02  0.15631778638E+03  0.12500928255E+03 0.  0.
          2    1    1    2  501    0  0.17635586810E+03 -0.57597503428E+02 -0.14967823806E+04  0.15082361750E+04  0.00000000000E+00 0. -1.
          1    1    1    2  502    0 -0.17809693411E+03 -0.29016632583E+02  0.48512752975E+02  0.18685280332E+03  0.00000000000E+00 0. -1.
         22    1    3    3    0    0  0.46447861000E+02 -0.61363382330E+01 -0.24017868993E+02  0.52648993051E+02  0.00000000000E+00 0. -1.
         22    1    3    3    0    0 -0.44706794991E+02  0.92750474245E+02 -0.12077695091E+02  0.10366879333E+03  0.00000000000E+00 0. -1.
</event>
<event>
 7    1  0.6507405E-006  0.8836295E+02  0.7818608E-02  0.1470282E+00
          2   -1    0    0  502    0  0.00000000000E+00  0.00000000000E+00  0.87906146549E+03  0.87906146549E+03  0.00000000000E+00 0. -1.
          1   -1    0    0  501    0 -0.00000000000E+00 -0.00000000000E+00 -0.96622773027E+02  0.96622773027E+02  0.00000000000E+00 0. -1.
         25    2    1    2    0    0 -0.80278530641E+02 -0.16203204379E+02  0.44112710256E+03  0.46575274096E+03  0.12500123513E+03 0.  0.
          2    1    1    2  501    0  0.79436280062E+02  0.39778884212E+02 -0.60464350920E+02  0.10746357500E+03  0.00000000000E+00 0. -1.
          1    1    1    2  502    0  0.84225057931E+00 -0.23575679833E+02  0.40177594082E+03  0.40246792256E+03  0.00000000000E+00 0. -1.
         22    1    3    3    0    0 -0.60007660902E+02  0.10007748134E+01  0.64180098058E+02  0.87869254600E+02  0.00000000000E+00 0. -1.
         22    1    3    3    0    0 -0.20270869739E+02 -0.17203979192E+02  0.37694700450E+03  0.37788348636E+03  0.00000000000E+00 0. -1.
</event>
<event>
 7    1  0.6507405E-006  0.8069302E+02  0.7818608E-02  0.1390984E+00
          2   -1    0    0  502    0  0.00000000000E+00  0.00000000000E+00  0.81071523678E+02  0.81071523678E+02  0.00000000000E+00 0. -1.
          1   -1    0    0  501    0 -0.00000000000E+00 -0.00000000000E+00 -0.27350245293E+03  0.27350245293E+03  0.00000000000E+00 0. -1.
         25    2    1    2    0    0  0.32962235814E+02  0.37840973939E+02 -0.83978271792E+02  0.15873279433E+03  0.12500120625E+03 0.  0.
          2    1    1    2  501    0 -0.75706455520E+02 -0.57671366981E+02 -0.11387716345E+03  0.14840977842E+03  0.00000000000E+00 0. -1.
          1    1    1    2  502    0  0.42744219705E+02  0.19830393042E+02  0.54245059872E+01  0.47431403855E+02  0.00000000000E+00 0. -1.
         22    1    3    3    0    0  0.61378182854E+02  0.26319549133E+02  0.26521772824E+01  0.66835873910E+02  0.00000000000E+00 0.  1.
         22    1    3    3    0    0 -0.28415947040E+02  0.11521424806E+02 -0.86630449075E+02  0.91896920420E+02  0.00000000000E+00 0.  1.
</event>
<event>
 7    1  0.6507405E-006  0.4960821E+02  0.7818608E-02  0.1551505E+00
          2   -1    0    0  502    0  0.00000000000E+00  0.00000000000E+00  0.63001073319E+02  0.63001073319E+02  0.00000000000E+00 0. -1.
          1   -1    0    0  501    0 -0.00000000000E+00 -0.00000000000E+00 -0.61651944042E+03  0.61651944042E+03  0.00000000000E+00 0. -1.
         25    2    1    2    0    0 -0.31772742982E+02 -0.12911993702E+02 -0.52347459117E+03  0.53928333481E+03  0.12499856330E+03 0.  0.
          2    1    1    2  501    0 -0.17996902722E+01 -0.24170261584E+02 -0.71356756936E+02  0.75360647493E+02  0.00000000000E+00 0. -1.
          1    1    1    2  502    0  0.33572433254E+02  0.37082255286E+02  0.41312981004E+02  0.64876531435E+02  0.00000000000E+00 0. -1.
         22    1    3    3    0    0  0.13608150277E+02 -0.57490338877E+02 -0.33997855694E+03  0.34507352839E+03  0.00000000000E+00 0. -1.
         22    1    3    3    0    0 -0.45380893259E+02  0.44578345175E+02 -0.18349603423E+03  0.19420980642E+03  0.00000000000E+00 0. -1.
</event>
<event>
 7    1  0.6507405E-006  0.2742488E+03  0.7818608E-02  0.1154638E+00
          2   -1    0    0  502    0  0.00000000000E+00  0.00000000000E+00  0.67051986079E+03  0.67051986079E+03  0.00000000000E+00 0. -1.
          1   -1    0    0  501    0 -0.00000000000E+00 -0.00000000000E+00 -0.12631513839E+04  0.12631513839E+04  0.00000000000E+00 0. -1.
         25    2    1    2    0    0  0.26310879950E+03  0.26314196211E+03  0.14064919395E+03  0.41698791122E+03  0.12500715879E+03 0.  0.
          2    1    1    2  501    0 -0.23702734975E+03 -0.12797554242E+03 -0.10960542300E+04  0.11286693843E+04  0.00000000000E+00 0. -1.
          1    1    1    2  502    0 -0.26081449751E+02 -0.13516641969E+03  0.36277351295E+03  0.38801394915E+03  0.00000000000E+00 0. -1.
         22    1    3    3    0    0  0.38109183797E+02  0.81014529704E+02  0.82470583859E+02  0.12172535116E+03  0.00000000000E+00 0. -1.
         22    1    3    3    0    0  0.22499961571E+03  0.18212743241E+03  0.58178610092E+02  0.29526256007E+03  0.00000000000E+00 0. -1.
</event>
<event>
 7    1  0.6507405E-006  0.1025870E+03  0.7818608E-02  0.1394128E+00
          2   -1    0    0  502    0  0.00000000000E+00  0.00000000000E+00  0.34186448869E+04  0.34186448869E+04  0.00000000000E+00 0. -1.
          1   -1    0    0  501    0 -0.00000000000E+00 -0.00000000000E+00 -0.12625319373E+03  0.12625319373E+03  0.00000000000E+00 0. -1.
         25    2    1    2    0    0 -0.91195881475E+02  0.27356233150E+02  0.76751027028E+03  0.78342938555E+03  0.12499813950E+03 0.  0.
          2    1    1    2  501    0  0.10274002790E+03  0.68933365194E+01 -0.95737106559E+02  0.14060094236E+03  0.00000000000E+00 0. -1.
          1    1    1    2  502    0 -0.11544146427E+02 -0.34249569669E+02  0.26206185294E+04  0.26208677527E+04  0.00000000000E+00 0. -1.
         22    1    3    3    0    0 -0.23972233978E+02  0.51554666267E+02  0.57981460604E+03  0.58259551061E+03  0.00000000000E+00 0. -1.
         22    1    3    3    0    0 -0.67223647497E+02 -0.24198433117E+02  0.18769566424E+03  0.20083387494E+03  0.00000000000E+00 0. -1.
</event>
<event>
 7    1  0.6507405E-006  0.4394151E+03  0.7818608E-02  0.1276946E+00
          2   -1    0    0  502    0  0.00000000000E+00  0.00000000000E+00  0.22289530691E+04  0.22289530691E+04  0.00000000000E+00 0. -1.
          1   -1    0    0  501    0 -0.00000000000E+00 -0.00000000000E+00 -0.22682567441E+03  0.22682567441E+03  0.00000000000E+00 0. -1.
         25    2    1    2    0    0  0.32101661436E+03 -0.30299330463E+03  0.12691023388E+03  0.47602269732E+03  0.12503916009E+03 0.  0.
          2    1    1    2  501    0 -0.29995478092E+03  0.31340853641E+03  0.85032289951E+03  0.95459248621E+03  0.00000000000E+00 0. -1.
          1    1    1    2  502    0 -0.21061833436E+02 -0.10415231773E+02  0.10248942613E+04  0.10251635600E+04  0.00000000000E+00 0. -1.
         22    1    3    3    0    0  0.19760761496E+03 -0.25863669123E+03  0.69272616162E+02  0.33277680642E+03  0.00000000000E+00 0. -1.
         22    1    3    3    0    0  0.12340899939E+03 -0.44356613404E+02  0.57637617717E+02  0.14324589090E+03  0.00000000000E+00 0. -1.
</event>
<event>
 7    1  0.6507405E-006  0.1648429E+03  0.7818608E-02  0.1333026E+00
          2   -1    0    0  502    0  0.00000000000E+00  0.00000000000E+00  0.44196524753E+03  0.44196524753E+03  0.00000000000E+00 0. -1.
          1   -1    0    0  501    0 -0.00000000000E+00 -0.00000000000E+00 -0.17465918721E+04  0.17465918721E+04  0.00000000000E+00 0. -1.
         25    2    1    2    0    0  0.10957486336E+03 -0.90861507225E+02 -0.21345883871E+03  0.28539911289E+03  0.12500205453E+03 0.  0.
          2    1    1    2  501    0 -0.32789386018E+01 -0.37349227011E+02 -0.14798359355E+04  0.14803108161E+04  0.00000000000E+00 0. -1.
          1    1    1    2  502    0 -0.10629592476E+03  0.12821073424E+03  0.38866814971E+03  0.42284719060E+03  0.00000000000E+00 0. -1.
         22    1    3    3    0    0  0.11213245027E+03 -0.31660309071E+02 -0.18739303406E+03  0.22066311606E+03  0.00000000000E+00 0. -1.
         22    1    3    3    0    0 -0.25575869083E+01 -0.59201198154E+02 -0.26065804653E+02  0.64735996833E+02  0.00000000000E+00 0. -1.
</event>
<event>
 7    1  0.6507405E-006  0.2614573E+03  0.7818608E-02  0.1178649E+00
          2   -1    0    0  502    0  0.00000000000E+00  0.00000000000E+00  0.53483386626E+03  0.53483386626E+03  0.00000000000E+00 0. -1.
          1   -1    0    0  501    0 -0.00000000000E+00 -0.00000000000E+00 -0.62337395407E+03  0.62337395407E+03  0.00000000000E+00 0. -1.
         25    2    1    2    0    0 -0.10459695822E+03  0.14656307533E+03  0.68019887682E+02  0.22950727311E+03  0.12500249827E+03 0.  0.
          2    1    1    2  501    0  0.20112458745E+03 -0.19834598056E+03 -0.49667400350E+03  0.57138191557E+03  0.00000000000E+00 0. -1.
          1    1    1    2  502    0 -0.96527629234E+02  0.51782905235E+02  0.34011402800E+03  0.35731863165E+03  0.00000000000E+00 0. -1.
         22    1    3    3    0    0 -0.51731314880E+02 -0.64052317474E+01 -0.41670086645E+01  0.52292637093E+02  0.00000000000E+00 0.  1.
         22    1    3    3    0    0 -0.52865643336E+02  0.15296830708E+03  0.72186896346E+02  0.17721463602E+03  0.00000000000E+00 0.  1.
</event>
<event>
 7    1  0.6507405E-006  0.2971951E+02  0.7818608E-02  0.1625114E+00
          2   -1    0    0  502    0  0.00000000000E+00  0.00000000000E+00  0.40621296785E+03  0.40621296785E+03  0.00000000000E+00 0. -1.
          1   -1    0    0  501    0 -0.00000000000E+00 -0.00000000000E+00 -0.11905257074E+04  0.11905257074E+04  0.00000000000E+00 0. -1.
         25    2    1    2    0    0 -0.16909263756E+02 -0.51432040944E+02 -0.59021015986E+01  0.13639226604E+03  0.12504734062E+03 0.  0.
          2    1    1    2  501    0  0.14745568351E+02  0.25722567004E+02 -0.11186937584E+04  0.11190865951E+04  0.00000000000E+00 0. -1.
          1    1    1    2  502    0  0.21636954052E+01  0.25709473940E+02  0.34028312048E+03  0.34125981409E+03  0.00000000000E+00 0. -1.
         22    1    3    3    0    0 -0.25330965934E+02  0.30356938252E+02 -0.31202102383E+02  0.50366384904E+02  0.00000000000E+00 0.  1.
         22    1    3    3    0    0  0.84217021784E+01 -0.81788979196E+02  0.25300000784E+02  0.86025881136E+02  0.00000000000E+00 0.  1.
</event>
<event>
 7    1  0.6507405E-006  0.1019410E+03  0.7818608E-02  0.1286276E+00
          2   -1    0    0  502    0  0.00000000000E+00  0.00000000000E+00  0.14254322722E+04  0.14254322722E+04  0.00000000000E+00 0. -1.
          1   -1    0    0  501    0 -0.00000000000E+00 -0.00000000000E+00 -0.31923015717E+03  0.31923015717E+03  0.00000000000E+00 0. -1.
         25    2    1    2    0    0 -0.13291501281E+03  0.12554920932E+03  0.13862861422E+03  0.26128479999E+03  0.12499139744E+03 0.  0.
          2    1    1    2  501    0  0.84200805632E+02 -0.38770076895E+02 -0.24747191391E+03  0.26426358566E+03  0.00000000000E+00 0. -1.
          1    1    1    2  502    0  0.48714207180E+02 -0.86779132422E+02  0.12150454147E+04  0.12191140437E+04  0.00000000000E+00 0. -1.
         22    1    3    3    0    0 -0.13123105675E+03  0.43892185150E+02  0.72640908725E+02  0.15628440675E+03  0.00000000000E+00 0. -1.
         22    1    3    3    0    0 -0.16839560634E+01  0.81657024168E+02  0.65987705496E+02  0.10500039324E+03  0.00000000000E+00 0. -1.
</event>
<event>
 7    1  0.6507405E-006  0.3691285E+03  0.7818608E-02  0.1068297E+00
          2   -1    0    0  502    0  0.00000000000E+00  0.00000000000E+00  0.11788834042E+04  0.11788834042E+04  0.00000000000E+00 0. -1.
          1   -1    0    0  501    0 -0.00000000000E+00 -0.00000000000E+00 -0.21480934297E+04  0.21480934297E+04  0.00000000000E+00 0. -1.
         25    2    1    2    0    0 -0.41387766304E+03 -0.16904818821E+03 -0.18908270845E+03  0.50124808769E+03  0.12500145952E+03 0.  0.
          2    1    1    2  501    0  0.34881101141E+03 -0.13072415005E+03 -0.17599871252E+04  0.17989754323E+04  0.00000000000E+00 0. -1.
          1    1    1    2  502    0  0.65066651632E+02  0.29977233826E+03  0.97985980820E+03  0.10267533139E+04  0.00000000000E+00 0. -1.
         22    1    3    3    0    0 -0.22278176983E+03 -0.11110580526E+03 -0.40216690884E+02  0.25217771344E+03  0.00000000000E+00 0.  1.
         22    1    3    3    0    0 -0.19109589321E+03 -0.57942382949E+02 -0.14886601757E+03  0.24907037425E+03  0.00000000000E+00 0.  1.
</event>
<event>
 7    1  0.6507405E-006  0.1750817E+03  0.7818608E-02  0.1269125E+00
          2   -1    0    0  502    0  0.00000000000E+00  0.00000000000E+00  0.54631861116E+03  0.54631861116E+03  0.00000000000E+00 0. -1.
          1   -1    0    0  501    0 -0.00000000000E+00 -0.00000000000E+00 -0.16059600112E+04  0.16059600112E+04  0.00000000000E+00 0. -1.
         25    2    1    2    0    0  0.16025801312E+03 -0.11827331859E+03 -0.65484692315E+03  0.69578948289E+03  0.12500921194E+03 0.  0.
          2    1    1    2  501    0  0.56503390220E+01  0.63328068525E+02 -0.91498652858E+03  0.91719284672E+03  0.00000000000E+00 0. -1.
          1    1    1    2  502    0 -0.16590835214E+03  0.54945250070E+02  0.51019205167E+03  0.53929629278E+03  0.00000000000E+00 0. -1.
         22    1    3    3    0    0  0.58636073599E+02  0.38150976032E+01 -0.31779443562E+03  0.32318113715E+03  0.00000000000E+00 0.  1.
         22    1    3    3    0    0  0.10162193952E+03 -0.12208841620E+03 -0.33705248754E+03  0.37260834574E+03  0.00000000000E+00 0.  1.
</event>
<event>
 7    1  0.6507405E-006  0.7518527E+02  0.7818608E-02  0.1363955E+00
          2   -1    0    0  502    0  0.00000000000E+00  0.00000000000E+00  0.98917181142E+03  0.98917181142E+03  0.00000000000E+00 0. -1.
          1   -1    0    0  501    0 -0.00000000000E+00 -0.00000000000E+00 -0.45507752084E+02  0.45507752084E+02  0.00000000000E+00 0. -1.
         25    2    1    2    0    0  0.71696618910E+02 -0.26820183692E+02  0.35801636896E+03  0.38685723684E+03  0.12499229511E+03 0.  0.
          2    1    1    2  501    0 -0.28492695124E+02  0.72806081857E+02  0.22786826680E+02  0.81435856359E+02  0.00000000000E+00 0. -1.
          1    1    1    2  502    0 -0.43203923786E+02 -0.45985898166E+02  0.56286086369E+03  0.56638647030E+03  0.00000000000E+00 0. -1.
         22    1    3    3    0    0 -0.30813798105E+02 -0.31176942037E+02  0.11482706320E+03  0.12290950456E+03  0.00000000000E+00 0. -1.
         22    1    3    3    0    0  0.10251041701E+03  0.43567583450E+01  0.24318930576E+03  0.26394773228E+03  0.00000000000E+00 0. -1.
</event>
<event>
 7    1  0.6507405E-006  0.5535978E+02  0.7818608E-02  0.1421278E+00
          2   -1    0    0  502    0  0.00000000000E+00  0.00000000000E+00  0.97267661719E+03  0.97267661719E+03  0.00000000000E+00 0. -1.
          1   -1    0    0  501    0 -0.00000000000E+00 -0.00000000000E+00 -0.29350887790E+04  0.29350887790E+04  0.00000000000E+00 0. -1.
         25    2    1    2    0    0 -0.14282359524E+02  0.65158313083E+02  0.62253839079E+02  0.15476496026E+03  0.12500824328E+03 0.  0.
          2    1    1    2  501    0  0.49449257405E+02 -0.22066981358E+02 -0.28876841675E+04  0.28881918274E+04  0.00000000000E+00 0. -1.
          1    1    1    2  502    0 -0.35166897881E+02 -0.43091331725E+02  0.86301816658E+03  0.86480860855E+03  0.00000000000E+00 0. -1.
         22    1    3    3    0    0  0.35197709513E+01 -0.63335262305E+01  0.78900718869E+02  0.79232731747E+02  0.00000000000E+00 0. -1.
         22    1    3    3    0    0 -0.17802130475E+02  0.71491839314E+02 -0.16646879790E+02  0.75532228516E+02  0.00000000000E+00 0. -1.
</event>
<event>
 7    1  0.6507405E-006  0.5526204E+02  0.7818608E-02  0.1429868E+00
          2   -1    0    0  502    0  0.00000000000E+00  0.00000000000E+00  0.13169547707E+04  0.13169547707E+04  0.00000000000E+00 0. -1.
          1   -1    0    0  501    0 -0.00000000000E+00 -0.00000000000E+00 -0.14035827567E+03  0.14035827567E+03  0.00000000000E+00 0. -1.
         25    2    1    2    0    0 -0.10145141669E+03  0.17135790336E+02  0.55807909381E+03  0.58108920739E+03  0.12500546686E+03 0.  0.
          2    1    1    2  501    0  0.50766585270E+02 -0.20625045965E+02 -0.12211767842E+03  0.13384829503E+03  0.00000000000E+00 0. -1.
          1    1    1    2  502    0  0.50684831417E+02  0.34892556290E+01  0.74063507961E+03  0.74237554390E+03  0.00000000000E+00 0. -1.
         22    1    3    3    0    0 -0.34056563683E+02  0.50651723905E+02  0.41457021164E+03  0.41903926671E+03  0.00000000000E+00 0. -1.
         22    1    3    3    0    0 -0.67394853004E+02 -0.33515933569E+02  0.14350888217E+03  0.16204994068E+03  0.00000000000E+00 0. -1.
</event>
<event>
 7    1  0.6507405E-006  0.4788520E+02  0.7818608E-02  0.1494955E+00
          2   -1    0    0  502    0  0.00000000000E+00  0.00000000000E+00  0.15038681225E+04  0.15038681225E+04  0.00000000000E+00 0. -1.
          1   -1    0    0  501    0 -0.00000000000E+00 -0.00000000000E+00 -0.38073380898E+03  0.38073380898E+03  0.00000000000E+00 0. -1.
         25    2    1    2    0    0  0.41917600550E+02  0.59979081302E+02 -0.47644440057E+02  0.15247054005E+03  0.12499078960E+03 0.  0.
          2    1    1    2  501    0 -0.21353098491E+00 -0.36591966649E+02 -0.27908787207E+03  0.28147656732E+03  0.00000000000E+00 0. -1.
          1    1    1    2  502    0 -0.41704069565E+02 -0.23387114652E+02  0.14498666256E+04  0.14506548241E+04  0.00000000000E+00 0. -1.
         22    1    3    3    0    0  0.99915919425E+01 -0.37420442705E+02 -0.28772680678E+02  0.48249234141E+02  0.00000000000E+00 0.  1.
         22    1    3    3    0    0  0.31926008607E+02  0.97399524007E+02 -0.18871759379E+02  0.10422130590E+03  0.00000000000E+00 0.  1.
</event>
<event>
 7    1  0.6507405E-006  0.2684121E+03  0.7818608E-02  0.1180928E+00
          2   -1    0    0  502    0  0.00000000000E+00  0.00000000000E+00  0.19800057847E+04  0.19800057847E+04  0.00000000000E+00 0. -1.
          1   -1    0    0  501    0 -0.00000000000E+00 -0.00000000000E+00 -0.93169390953E+03  0.93169390953E+03  0.00000000000E+00 0. -1.
         25    2    1    2    0    0  0.20295160188E+03 -0.41959904678E+02  0.16720851645E+03  0.29416564579E+03  0.12499901154E+03 0.  0.
          2    1    1    2  501    0  0.76394163204E+02  0.70571933089E+02 -0.85377031935E+03  0.86008152178E+03  0.00000000000E+00 0. -1.
          1    1    1    2  502    0 -0.27934576508E+03 -0.28612028411E+02  0.17348736781E+04  0.17574525267E+04  0.00000000000E+00 0. -1.
         22    1    3    3    0    0  0.14755946322E+03 -0.17474992854E+02  0.40944641128E+02  0.15412862874E+03  0.00000000000E+00 0.  1.
         22    1    3    3    0    0  0.55392138655E+02 -0.24484911823E+02  0.12626387532E+03  0.14003701705E+03  0.00000000000E+00 0.  1.
</event>
<event>
 7    1  0.6507405E-006  0.6049563E+02  0.7818608E-02  0.1447193E+00
          2   -1    0    0  502    0  0.00000000000E+00  0.00000000000E+00  0.14562977413E+04  0.14562977413E+04  0.00000000000E+00 0. -1.
          1   -1    0    0  501    0 -0.00000000000E+00 -0.00000000000E+00 -0.18638144009E+02  0.18638144009E+02  0.00000000000E+00 0. -1.
         25    2    1    2    0    0  0.25919567641E+02  0.91033086975E+02  0.10074125975E+04  0.10195407781E+04  0.12499763944E+03 0.  0.
          2    1    1    2  501    0 -0.18144856732E+01 -0.58161699840E+02  0.62497136891E+02  0.85393019657E+02  0.00000000000E+00 0. -1.
          1    1    1    2  502    0 -0.24105081968E+02 -0.32871387135E+02  0.36774986290E+03  0.37000208747E+03  0.00000000000E+00 0. -1.
         22    1    3    3    0    0 -0.11718094274E+02  0.24516235078E+02  0.35887289633E+02  0.45013965311E+02  0.00000000000E+00 0. -1.
         22    1    3    3    0    0  0.37637661915E+02  0.66516851896E+02  0.97152530782E+03  0.97452681282E+03  0.00000000000E+00 0. -1.
</event>
<event>
 7    1  0.6507405E-006  0.1198026E+03  0.7818608E-02  0.1340695E+00
          2   -1    0    0  502    0  0.00000000000E+00  0.00000000000E+00  0.48047255496E+03  0.48047255496E+03  0.00000000000E+00 0. -1.
          1   -1    0    0  501    0 -0.00000000000E+00 -0.00000000000E+00 -0.12214966294E+04  0.12214966294E+04  0.00000000000E+00 0. -1.
         25    2    1    2    0    0 -0.49796096599E+02 -0.14662431422E+03  0.63889637765E+02  0.20901240441E+03  0.12500383445E+03 0.  0.
          2    1    1    2  501    0  0.63942101273E+02  0.10048674301E+03 -0.11441361714E+04  0.11503189804E+04  0.00000000000E+00 0. -1.
          1    1    1    2  502    0 -0.14146004674E+02  0.46137571211E+02  0.33922245917E+03  0.34263779962E+03  0.00000000000E+00 0. -1.
         22    1    3    3    0    0 -0.45224564024E+02 -0.57837163702E+01 -0.14396226326E+02  0.47811754816E+02  0.00000000000E+00 0. -1.
         22    1    3    3    0    0 -0.45715325752E+01 -0.14084059785E+03  0.78285864090E+02  0.16120064960E+03  0.00000000000E+00 0. -1.
</event>
<event>
 7    1  0.6507405E-006  0.6933003E+02  0.7818608E-02  0.1432928E+00
          2   -1    0    0  502    0  0.00000000000E+00  0.00000000000E+00  0.76844327411E+03  0.76844327411E+03  0.00000000000E+00 0. -1.
          1   -1    0    0  501    0 -0.00000000000E+00 -0.00000000000E+00 -0.21035528357E+03  0.21035528357E+03  0.00000000000E+00 0. -1.
         25    2    1    2    0    0  0.40902047469E+02  0.67328930969E+02  0.45786253762E+03  0.48111229651E+03  0.12499910425E+03 0.  0.
          2    1    1    2  501    0 -0.13837399996E+01 -0.69329893378E+02 -0.19130382683E+03  0.20348391340E+03  0.00000000000E+00 0. -1.
          1    1    1    2  502    0 -0.39518307470E+02  0.20009624094E+01  0.29152927976E+03  0.29420234777E+03  0.00000000000E+00 0. -1.
         22    1    3    3    0    0 -0.58683326517E+01  0.89989402932E+02  0.34926692237E+03  0.36072137867E+03  0.00000000000E+00 0. -1.
         22    1    3    3    0    0  0.46770380121E+02 -0.22660471963E+02  0.10859561525E+03  0.12039091784E+03  0.00000000000E+00 0. -1.
</event>
<event>
 7    1  0.6507405E-006  0.5658039E+02  0.7818608E-02  0.1471014E+00
          2   -1    0    0  502    0  0.00000000000E+00  0.00000000000E+00  0.43388914186E+03  0.43388914186E+03  0.00000000000E+00 0. -1.
          1   -1    0    0  501    0 -0.00000000000E+00 -0.00000000000E+00 -0.36063954067E+03  0.36063954067E+03  0.00000000000E+00 0. -1.
         25    2    1    2    0    0  0.18894928522E+02 -0.11810069408E+02 -0.26277794093E+03  0.29184689559E+03  0.12500347260E+03 0.  0.
          2    1    1    2  501    0  0.36649176053E+02 -0.21124559431E+00 -0.77256405742E+02  0.85508823862E+02  0.00000000000E+00 0. -1.
          1    1    1    2  502    0 -0.55544104575E+02  0.12021315002E+02  0.41328394786E+03  0.41717296308E+03  0.00000000000E+00 0. -1.
         22    1    3    3    0    0  0.41291441376E+02 -0.19469392716E+02 -0.23395520804E+02  0.51297083517E+02  0.00000000000E+00 0. -1.
         22    1    3    3    0    0 -0.22396512854E+02  0.76593233086E+01 -0.23938242013E+03  0.24054981207E+03  0.00000000000E+00 0. -1.
</event>
<event>
 7    1  0.6507405E-006  0.1358616E+03  0.7818608E-02  0.1283326E+00
          2   -1    0    0  502    0  0.00000000000E+00  0.00000000000E+00  0.44221689587E+03  0.44221689587E+03  0.00000000000E+00 0. -1.
          1   -1    0    0  501    0 -0.00000000000E+00 -0.00000000000E+00 -0.12383368936E+04  0.12383368936E+04  0.00000000000E+00 0. -1.
         25    2    1    2    0    0  0.10834826040E+03 -0.17814411767E+02 -0.26371898565E+03  0.31182025481E+03  0.12500987609E+03 0.  0.
          2    1    1    2  501    0 -0.11372653439E+03  0.89130336735E+02 -0.94195964946E+03  0.95297739887E+03  0.00000000000E+00 0. -1.
          1    1    1    2  502    0  0.53782739937E+01 -0.71315924969E+02  0.40955863739E+03  0.41575613578E+03  0.00000000000E+00 0. -1.
         22    1    3    3    0    0  0.86935341073E+02 -0.68722537668E+02 -0.16643647736E+03  0.19995409900E+03  0.00000000000E+00 0. -1.
         22    1    3    3    0    0  0.21412919325E+02  0.50908125901E+02 -0.97282508293E+02  0.11186615581E+03  0.00000000000E+00 0. -1.
</event>
<event>
 7    1  0.6507405E-006  0.3614865E+02  0.7818608E-02  0.1596329E+00
          2   -1    0    0  502    0  0.00000000000E+00  0.00000000000E+00  0.10128445713E+03  0.10128445713E+03  0.00000000000E+00 0. -1.
          1   -1    0    0  501    0 -0.00000000000E+00 -0.00000000000E+00 -0.30923420670E+03  0.30923420670E+03  0.00000000000E+00 0. -1.
         25    2    1    2    0    0 -0.52794660458E+02 -0.22381416239E+02 -0.22777096091E+03  0.26606754079E+03  0.12499648659E+03 0.  0.
          2    1    1    2  501    0  0.25159246712E+02 -0.43882867779E+00 -0.55555122392E+02  0.60988129089E+02  0.00000000000E+00 0. -1.
          1    1    1    2  502    0  0.27635413746E+02  0.22820244917E+02  0.75376333742E+02  0.83462993951E+02  0.00000000000E+00 0. -1.
         22    1    3    3    0    0  0.40148284593E+02  0.41160992580E+01 -0.77963193172E+02  0.87790013774E+02  0.00000000000E+00 0.  1.
         22    1    3    3    0    0 -0.92942945051E+02 -0.26497515497E+02 -0.14980776774E+03  0.17827752701E+03  0.00000000000E+00 0.  1.
</event>
<event>
 7    1  0.6507405E-006  0.8395937E+02  0.7818608E-02  0.1477375E+00
          2   -1    0    0  502    0  0.00000000000E+00  0.00000000000E+00  0.73026188956E+03  0.73026188956E+03  0.00000000000E+00 0. -1.
          1   -1    0    0  501    0 -0.00000000000E+00 -0.00000000000E+00 -0.20144683614E+04  0.20144683614E+04  0.00000000000E+00 0. -1.
         25    2    1    2    0    0  0.37194741180E+02 -0.87274255685E+02  0.13505176675E+03  0.20704066834E+03  0.12500645649E+03 0.  0.
          2    1    1    2  501    0 -0.14030681557E+02  0.82734812115E+02 -0.19773344955E+04  0.19791143515E+04  0.00000000000E+00 0. -1.
          1    1    1    2  502    0 -0.23164059623E+02  0.45394435705E+01  0.55807625696E+03  0.55857523109E+03  0.00000000000E+00 0. -1.
         22    1    3    3    0    0  0.16605513596E+02  0.28406428761E+02  0.57523571512E+02  0.66269371178E+02  0.00000000000E+00 0. -1.
         22    1    3    3    0    0  0.20589227584E+02 -0.11568068445E+03  0.77528195240E+02  0.14077129716E+03  0.00000000000E+00 0. -1.
</event>
<event>
 7    1  0.6507405E-006  0.1615896E+03  0.7818608E-02  0.1253900E+00
          2   -1    0    0  502    0  0.00000000000E+00  0.00000000000E+00  0.20945227198E+04  0.20945227198E+04  0.00000000000E+00 0. -1.
          1   -1    0    0  501    0 -0.00000000000E+00 -0.00000000000E+00 -0.56666248777E+03  0.56666248777E+03  0.00000000000E+00 0. -1.
         25    2    1    2    0    0 -0.13701542598E+02  0.23510527431E+03  0.35125595566E+03  0.44098170352E+03  0.12498757610E+03 0.  0.
          2    1    1    2  501    0  0.30406461982E+00 -0.79976963710E+02 -0.51513869948E+03  0.52131016380E+03  0.00000000000E+00 0. -1.
          1    1    1    2  502    0  0.13397477979E+02 -0.15512831060E+03  0.16917429758E+04  0.16988933402E+04  0.00000000000E+00 0. -1.
         22    1    3    3    0    0 -0.35340613680E+02  0.35539321726E+02  0.20651721813E+02  0.54207895900E+02  0.00000000000E+00 0. -1.
         22    1    3    3    0    0  0.21639071082E+02  0.19956595258E+03  0.33060423385E+03  0.38677380762E+03  0.00000000000E+00 0. -1.
</event>
<event>
 7    1  0.6507405E-006  0.6203610E+02  0.7818608E-02  0.1414305E+00
          2   -1    0    0  502    0  0.00000000000E+00  0.00000000000E+00  0.11553376816E+02  0.11553376816E+02  0.00000000000E+00 0. -1.
          1   -1    0    0  501    0 -0.00000000000E+00 -0.00000000000E+00 -0.28037973251E+04  0.28037973251E+04  0.00000000000E+00 0. -1.
         25    2    1    2    0    0 -0.59844646825E+02 -0.25385068270E+02 -0.16071560716E+04  0.16133194428E+04  0.12499281037E+03 0.  0.
          2    1    1    2  501    0  0.23883514228E+02  0.61538826373E+02 -0.11057527156E+04  0.11077213176E+04  0.00000000000E+00 0. -1.
          1    1    1    2  502    0  0.35961132598E+02 -0.36153758103E+02 -0.79335161108E+02  0.94309941527E+02  0.00000000000E+00 0. -1.
         22    1    3    3    0    0 -0.26804846905E+02  0.15842229258E+02 -0.13698254416E+04  0.13701792644E+04  0.00000000000E+00 0. -1.
         22    1    3    3    0    0 -0.33039799920E+02 -0.41227297528E+02 -0.23733062997E+03  0.24314017842E+03  0.00000000000E+00 0. -1.
</event>
<event>
 7    1  0.6507405E-006  0.5431741E+02  0.7818608E-02  0.1468708E+00
          2   -1    0    0  502    0  0.00000000000E+00  0.00000000000E+00  0.19743539203E+03  0.19743539203E+03  0.00000000000E+00 0. -1.
          1   -1    0    0  501    0 -0.00000000000E+00 -0.00000000000E+00 -0.25596409532E+03  0.25596409532E+03  0.00000000000E+00 0. -1.
         25    2    1    2    0    0  0.25835589302E+02  0.81280337406E+02  0.85996467453E+02  0.17405010219E+03  0.12499629888E+03 0.  0.
          2    1    1    2  501    0 -0.19798770306E+02 -0.33382947844E+02 -0.20119489675E+03  0.20490436547E+03  0.00000000000E+00 0. -1.
          1    1    1    2  502    0 -0.60368189960E+01 -0.47897389562E+02  0.56669726009E+02  0.74445019689E+02  0.00000000000E+00 0. -1.
         22    1    3    3    0    0  0.14399284627E+02 -0.32497428198E+02  0.10643527930E+02  0.37104001457E+02  0.00000000000E+00 0.  1.
         22    1    3    3    0    0  0.11436304674E+02  0.11377776560E+03  0.75352939523E+02  0.13694610073E+03  0.00000000000E+00 0.  1.
</event>
<event>
 7    1  0.6507405E-006  0.8641818E+02  0.7818608E-02  0.1393805E+00
          2   -1    0    0  502    0  0.00000000000E+00  0.00000000000E+00  0.31712757692E+03  0.31712757692E+03  0.00000000000E+00 0. -1.
          1   -1    0    0  501    0 -0.00000000000E+00 -0.00000000000E+00 -0.16805601020E+04  0.16805601020E+04  0.00000000000E+00 0. -1.
         25    2    1    2    0    0 -0.36349821167E+02 -0.82215099406E+02 -0.20096203488E+03  0.25316248553E+03  0.12499949019E+03 0.  0.
          2    1    1    2  501    0 -0.31887287515E+02  0.28871720520E+02 -0.14467268178E+04  0.14473661806E+04  0.00000000000E+00 0. -1.
          1    1    1    2  502    0  0.68237108682E+02  0.53343378886E+02  0.28425632763E+03  0.29715901277E+03  0.00000000000E+00 0. -1.
         22    1    3    3    0    0 -0.28722990244E+02  0.27827832595E+02 -0.31256266837E+02  0.50757784153E+02  0.00000000000E+00 0. -1.
         22    1    3    3    0    0 -0.76268309230E+01 -0.11004293200E+03 -0.16970576804E+03  0.20240470138E+03  0.00000000000E+00 0. -1.
</event>
<event>
 7    1  0.6507405E-006  0.1864605E+03  0.7818608E-02  0.1347210E+00
          2   -1    0    0  502    0  0.00000000000E+00  0.00000000000E+00  0.17032037540E+04  0.17032037540E+04  0.00000000000E+00 0. -1.
          1   -1    0    0  501    0 -0.00000000000E+00 -0.00000000000E+00 -0.17601957521E+04  0.17601957521E+04  0.00000000000E+00 0. -1.
         25    2    1    2    0    0 -0.20241843950E+02  0.17316994381E+03  0.55862381461E+03  0.59840310654E+03  0.12501259929E+03 0.  0.
          2    1    1    2  501    0  0.22582279326E+02  0.18691422433E+02 -0.17319975309E+04  0.17322455875E+04  0.00000000000E+00 0. -1.
          1    1    1    2  502    0 -0.23404353761E+01 -0.19186136624E+03  0.11163817182E+04  0.11327508120E+04  0.00000000000E+00 0. -1.
         22    1    3    3    0    0  0.11604260560E+02  0.10107545802E+03  0.46510280743E+03  0.47610033454E+03  0.00000000000E+00 0.  1.
         22    1    3    3    0    0 -0.31846104510E+02  0.72094485786E+02  0.93521007185E+02  0.12230277200E+03  0.00000000000E+00 0.  1.
</event>
<event>
 7    1  0.6507405E-006  0.8532735E+02  0.7818608E-02  0.1402526E+00
          2   -1    0    0  502    0  0.00000000000E+00  0.00000000000E+00  0.24981997965E+04  0.24981997965E+04  0.00000000000E+00 0. -1.
          1   -1    0    0  501    0 -0.00000000000E+00 -0.00000000000E+00 -0.36240879897E+03  0.36240879897E+03  0.00000000000E+00 0. -1.
         25    2    1    2    0    0 -0.64120258161E+02 -0.15004351354E+02  0.75862200877E+03  0.77166640327E+03  0.12500059071E+03 0.  0.
          2    1    1    2  501    0 -0.67343709001E+01 -0.40089739036E+02 -0.35355908274E+03  0.35588841498E+03  0.00000000000E+00 0. -1.
          1    1    1    2  502    0  0.70854629061E+02  0.55094090390E+02  0.17307280715E+04  0.17330537772E+04  0.00000000000E+00 0. -1.
         22    1    3    3    0    0 -0.18328955845E+02  0.54809195528E+02  0.30832886155E+03  0.31369839879E+03  0.00000000000E+00 0. -1.
         22    1    3    3    0    0 -0.45791302316E+02 -0.69813546882E+02  0.45029314722E+03  0.45796800448E+03  0.00000000000E+00 0. -1.
</event>
<event>
 7    1  0.6507405E-006  0.6796588E+02  0.7818608E-02  0.1477005E+00
          2   -1    0    0  502    0  0.00000000000E+00  0.00000000000E+00  0.84059654008E+03  0.84059654008E+03  0.00000000000E+00 0. -1.
          1   -1    0    0  501    0 -0.00000000000E+00 -0.00000000000E+00 -0.20853632313E+03  0.20853632313E+03  0.00000000000E+00 0. -1.
         25    2    1    2    0    0  0.18688468038E+01  0.77953015678E+02  0.41719650107E+03  0.44244513484E+03  0.12499844638E+03 0.  0.
          2    1    1    2  501    0  0.24149770996E+02 -0.16477746848E+02 -0.19208657796E+03  0.19429869020E+03  0.00000000000E+00 0. -1.
          1    1    1    2  502    0 -0.26018617799E+02 -0.61475268829E+02  0.40695029384E+03  0.41238903817E+03  0.00000000000E+00 0. -1.
         22    1    3    3    0    0 -0.25283181370E+00  0.85939495523E+01  0.33399050609E+03  0.33410114943E+03  0.00000000000E+00 0. -1.
         22    1    3    3    0    0  0.21216786175E+01  0.69359066125E+02  0.83205994986E+02  0.10834398541E+03  0.00000000000E+00 0. -1.
</event>
<event>
 7    1  0.6507405E-006  0.8298352E+02  0.7818608E-02  0.1384581E+00
          2   -1    0    0  502    0  0.00000000000E+00  0.00000000000E+00  0.22015425181E+04  0.22015425181E+04  0.00000000000E+00 0. -1.
          1   -1    0    0  501    0 -0.00000000000E+00 -0.00000000000E+00 -0.12161206365E+03  0.12161206365E+03  0.00000000000E+00 0. -1.
         25    2    1    2    0    0  0.91698422441E+02  0.61082340640E+02  0.27153794852E+03  0.31858650661E+03  0.12499940675E+03 0.  0.
          2    1    1    2  501    0 -0.80682549455E+02 -0.14109685530E+02 -0.80627044807E+02  0.11493249047E+03  0.00000000000E+00 0. -1.
          1    1    1    2  502    0 -0.11015872985E+02 -0.46972655109E+02  0.18890195507E+04  0.18896355846E+04  0.00000000000E+00 0. -1.
         22    1    3    3    0    0  0.44632621971E+02  0.29377384278E+02  0.25345563429E+03  0.25902675577E+03  0.00000000000E+00 0.  1.
         22    1    3    3    0    0  0.47065800470E+02  0.31704956361E+02  0.18082314230E+02  0.59559750836E+02  0.00000000000E+00 0.  1.
</event>
<event>
 7    1  0.6507405E-006  0.8676843E+02  0.7818608E-02  0.1314891E+00
          2   -1    0    0  502    0  0.00000000000E+00  0.00000000000E+00  0.39083895925E+03  0.39083895925E+03  0.00000000000E+00 0. -1.
          1   -1    0    0  501    0 -0.00000000000E+00 -0.00000000000E+00 -0.11293879270E+03  0.11293879270E+03  0.00000000000E+00 0. -1.
         25    2    1    2    0    0  0.21483722305E+02 -0.62710932862E+01  0.40181017533E+02  0.13319179144E+03  0.12499864880E+03 0.  0.
          2    1    1    2  501    0  0.63924314816E+01 -0.86532635805E+02 -0.25220521623E+02  0.90359476263E+02  0.00000000000E+00 0. -1.
          1    1    1    2  502    0 -0.27876153786E+02  0.92803729091E+02  0.26293967064E+03  0.28022648426E+03  0.00000000000E+00 0. -1.
         22    1    3    3    0    0  0.10622805883E+02 -0.34634220945E+01 -0.45463186593E+02  0.46816029655E+02  0.00000000000E+00 0.  1.
         22    1    3    3    0    0  0.10860916421E+02 -0.28076711918E+01  0.85644204126E+02  0.86375761781E+02  0.00000000000E+00 0.  1.
</event>
<event>
 7    1  0.6507405E-006  0.9935605E+02  0.7818608E-02  0.1370078E+00
          2   -1    0    0  502    0  0.00000000000E+00  0.00000000000E+00  0.14459275837E+04  0.14459275837E+04  0.00000000000E+00 0. -1.
          1   -1    0    0  501    0 -0.00000000000E+00 -0.00000000000E+00 -0.11977077631E+03  0.11977077631E+03  0.00000000000E+00 0. -1.
         25    2    1    2    0    0 -0.34751712196E+02 -0.10956175981E+03  0.64805772071E+03  0.66993678143E+03  0.12500008410E+03 0.  0.
          2    1    1    2  501    0  0.43472138313E+02  0.13011102833E+02 -0.10096265600E+03  0.11069134344E+03  0.00000000000E+00 0. -1.
          1    1    1    2  502    0 -0.87204261174E+01  0.96550656978E+02  0.77906174263E+03  0.78507023509E+03  0.00000000000E+00 0. -1.
         22    1    3    3    0    0 -0.33961523676E+02  0.12439300477E+02  0.27664090575E+03  0.27899518279E+03  0.00000000000E+00 0.  1.
         22    1    3    3    0    0 -0.79018852022E+00 -0.12200106029E+03  0.37141681497E+03  0.39094159864E+03  0.00000000000E+00 0.  1.
</event>
<event>
 7    1  0.6507405E-006  0.6889372E+02  0.7818608E-02  0.1408481E+00
          2   -1    0    0  502    0  0.00000000000E+00  0.00000000000E+00  0.73750956930E+02  0.73750956930E+02  0.00000000000E+00 0. -1.
          1   -1    0    0  501    0 -0.00000000000E+00 -0.00000000000E+00 -0.61883207231E+03  0.61883207231E+03  0.00000000000E+00 0. -1.
         25    2    1    2    0    0 -0.68302808778E+02  0.39362100453E+02 -0.24603589026E+03  0.28700453816E+03  0.12499318779E+03 0.  0.
          2    1    1    2  501    0  0.41339872865E+02  0.24486163246E+02 -0.32724479550E+03  0.33075325162E+03  0.00000000000E+00 0. -1.
          1    1    1    2  502    0  0.26962935913E+02 -0.63848263699E+02  0.28199570372E+02  0.74825239456E+02  0.00000000000E+00 0. -1.
         22    1    3    3    0    0 -0.10111381390E+03  0.29255738717E+02 -0.22010584374E+03  0.24398049934E+03  0.00000000000E+00 0.  1.
         22    1    3    3    0    0  0.32811005119E+02  0.10106361736E+02 -0.25930046515E+02  0.43024038824E+02  0.00000000000E+00 0.  1.
</event>
<event>
 7    1  0.6507405E-006  0.1018558E+03  0.7818608E-02  0.1349603E+00
          2   -1    0    0  502    0  0.00000000000E+00  0.00000000000E+00  0.12039601595E+04  0.12039601595E+04  0.00000000000E+00 0. -1.
          1   -1    0    0  501    0 -0.00000000000E+00 -0.00000000000E+00 -0.20890269264E+04  0.20890269264E+04  0.00000000000E+00 0. -1.
         25    2    1    2    0    0 -0.77761097719E+02  0.16194446142E+02  0.24805640383E+03  0.28890552603E+03  0.12500150032E+03 0.  0.
          2    1    1    2  501    0 -0.36181072259E+01  0.52452069230E+02 -0.20652375374E+04  0.20659066766E+04  0.00000000000E+00 0. -1.
          1    1    1    2  502    0  0.81379204945E+02 -0.68646515372E+02  0.93211436674E+03  0.93817488335E+03  0.00000000000E+00 0. -1.
         22    1    3    3    0    0  0.30656332842E+02 -0.11809767288E+02  0.33695980492E+02  0.47060603992E+02  0.00000000000E+00 0. -1.
         22    1    3    3    0    0 -0.10841743056E+03  0.28004213430E+02  0.21436042334E+03  0.24184492203E+03  0.00000000000E+00 0. -1.
</event>
<event>
 7    1  0.6507405E-006  0.7251577E+02  0.7818608E-02  0.1413411E+00
          2   -1    0    0  502    0  0.00000000000E+00  0.00000000000E+00  0.25050550756E+03  0.25050550756E+03  0.00000000000E+00 0. -1.
          1   -1    0    0  501    0 -0.00000000000E+00 -0.00000000000E+00 -0.62620039869E+03  0.62620039869E+03  0.00000000000E+00 0. -1.
         25    2    1    2    0    0 -0.61373466113E+01 -0.75179479763E+02  0.15001242957E+02  0.14676573063E+03  0.12500208477E+03 0.  0.
          2    1    1    2  501    0 -0.36128166255E+02  0.63211697599E+02 -0.55505635915E+03  0.55981115114E+03  0.00000000000E+00 0. -1.
          1    1    1    2  502    0  0.42265512867E+02  0.11967782164E+02  0.16436022506E+03  0.17012902448E+03  0.00000000000E+00 0. -1.
         22    1    3    3    0    0 -0.15270837405E+01  0.16284852821E+02 -0.37706194012E+02  0.41100918275E+02  0.00000000000E+00 0.  1.
         22    1    3    3    0    0 -0.46102628708E+01 -0.91464332584E+02  0.52707436969E+02  0.10566481236E+03  0.00000000000E+00 0.  1.
</event>
<event>
 7    1  0.6507405E-006  0.9738793E+02  0.7818608E-02  0.1446791E+00
          2   -1    0    0  502    0  0.00000000000E+00  0.00000000000E+00  0.50692717321E+03  0.50692717321E+03  0.00000000000E+00 0. -1.
          1   -1    0    0  501    0 -0.00000000000E+00 -0.00000000000E+00 -0.14906790566E+03  0.14906790566E+03  0.00000000000E+00 0. -1.
         25    2    1    2    0    0  0.58097249083E+02  0.45163598562E+02  0.35062394287E+03  0.37944379006E+03  0.12500159805E+03 0.  0.
          2    1    1    2  501    0 -0.74523153194E+02 -0.64532692362E+02 -0.11513550033E+03  0.15157292694E+03  0.00000000000E+00 0. -1.
          1    1    1    2  502    0  0.16425904111E+02  0.19369093800E+02  0.12237082502E+03  0.12497836187E+03  0.00000000000E+00 0. -1.
         22    1    3    3    0    0  0.60825686230E+01  0.80798938823E+02  0.17510320021E+03  0.19294195210E+03  0.00000000000E+00 0.  1.
         22    1    3    3    0    0  0.52014680460E+02 -0.35635340262E+02  0.17552074266E+03  0.18650183796E+03  0.00000000000E+00 0.  1.
</event>
<event>
 7    1  0.6507405E-006  0.1659111E+03  0.7818608E-02  0.1330519E+00
          2   -1    0    0  502    0  0.00000000000E+00  0.00000000000E+00  0.40056233759E+03  0.40056233759E+03  0.00000000000E+00 0. -1.
          1   -1    0    0  501    0 -0.00000000000E+00 -0.00000000000E+00 -0.77027714628E+03  0.77027714628E+03  0.00000000000E+00 0. -1.
         25    2    1    2    0    0 -0.14062788496E+03  0.77889038993E+01 -0.19419464956E+02  0.18931173684E+03  0.12499979614E+03 0.  0.
          2    1    1    2  501    0  0.16831129298E+03  0.18359131809E+02 -0.65394120390E+03  0.67550340282E+03  0.00000000000E+00 0. -1.
          1    1    1    2  502    0 -0.27683408021E+02 -0.26148035709E+02  0.30364586016E+03  0.30602434421E+03  0.00000000000E+00 0. -1.
         22    1    3    3    0    0 -0.75822501822E+02 -0.14545911810E+02  0.49817872219E+02  0.91882836947E+02  0.00000000000E+00 0. -1.
         22    1    3    3    0    0 -0.64805383135E+02  0.22334815709E+02 -0.69237337175E+02  0.97428899897E+02  0.00000000000E+00 0. -1.
</event>
<event>
 7    1  0.6507405E-006  0.1812509E+03  0.7818608E-02  0.1257526E+00
          2   -1    0    0  502    0  0.00000000000E+00  0.00000000000E+00  0.10497117077E+04  0.10497117077E+04  0.00000000000E+00 0. -1.
          1   -1    0    0  501    0 -0.00000000000E+00 -0.00000000000E+00 -0.84156921648E+03  0.84156921648E+03  0.00000000000E+00 0. -1.
         25    2    1    2    0    0  0.77520968383E+02 -0.13820324323E+03 -0.41907472106E+03  0.46514363097E+03  0.12500135448E+03 0.  0.
          2    1    1    2  501    0 -0.57540910065E+02  0.20402635928E+03 -0.37006755847E+03  0.42648295329E+03  0.00000000000E+00 0. -1.
          1    1    1    2  502    0 -0.19980058317E+02 -0.65823116049E+02  0.99728477076E+03  0.99965433993E+03  0.00000000000E+00 0. -1.
         22    1    3    3    0    0  0.81408604014E+02 -0.61429087632E+02 -0.12571948651E+03  0.16188354736E+03  0.00000000000E+00 0. -1.
         22    1    3    3    0    0 -0.38876356317E+01 -0.76774155600E+02 -0.29335523455E+03  0.30326008362E+03  0.00000000000E+00 0. -1.
</event>
<event>
 7    1  0.6507405E-006  0.3927395E+02  0.7818608E-02  0.1560948E+00
          2   -1    0    0  502    0  0.00000000000E+00  0.00000000000E+00  0.10071827218E+04  0.10071827218E+04  0.00000000000E+00 0. -1.
          1   -1    0    0  501    0 -0.00000000000E+00 -0.00000000000E+00 -0.69252862254E+03  0.69252862254E+03  0.00000000000E+00 0. -1.
         25    2    1    2    0    0  0.41612382548E+02 -0.91794541317E+01 -0.14085370889E+03  0.19308327474E+03  0.12500212364E+03 0.  0.
          2    1    1    2  501    0 -0.23565368413E+02  0.31659002504E+02 -0.52460697353E+03  0.52608943698E+03  0.00000000000E+00 0. -1.
          1    1    1    2  502    0 -0.18047014135E+02 -0.22479548373E+02  0.98011478163E+03  0.98053863258E+03  0.00000000000E+00 0. -1.
         22    1    3    3    0    0  0.79462095623E+02 -0.24335912792E+02 -0.12330315433E+03  0.14869475162E+03  0.00000000000E+00 0. -1.
         22    1    3    3    0    0 -0.37849713075E+02  0.15156458660E+02 -0.17550554561E+02  0.44388523115E+02  0.00000000000E+00 0. -1.
</event>
<event>
 7    1  0.6507405E-006  0.3034386E+02  0.7818608E-02  0.1657081E+00
          2   -1    0    0  502    0  0.00000000000E+00  0.00000000000E+00  0.20524155520E+04  0.20524155520E+04  0.00000000000E+00 0. -1.
          1   -1    0    0  501    0 -0.00000000000E+00 -0.00000000000E+00 -0.43667925333E+02  0.43667925333E+02  0.00000000000E+00 0. -1.
         25    2    1    2    0    0  0.94507420465E+01 -0.25030274791E+01  0.17090624497E+03  0.21196715184E+03  0.12500218885E+03 0.  0.
          2    1    1    2  501    0  0.17524375493E+02 -0.11667437067E+02 -0.18197273419E+02  0.27827568777E+02  0.00000000000E+00 0. -1.
          1    1    1    2  502    0 -0.26975117540E+02  0.14170464546E+02  0.18560386551E+04  0.18562887567E+04  0.00000000000E+00 0. -1.
         22    1    3    3    0    0  0.42972535227E+02 -0.40679204118E+02  0.14124130418E+03  0.15313569943E+03  0.00000000000E+00 0.  1.
         22    1    3    3    0    0 -0.33521793180E+02  0.38176176639E+02  0.29664940784E+02  0.58831452408E+02  0.00000000000E+00 0.  1.
</event>
<event>
 7    1  0.1631007E-005  0.1025280E+03  0.7818608E-02  0.1312741E+00
          2   -1    0    0  502    0  0.00000000000E+00  0.00000000000E+00  0.18858440990E+04  0.18858440990E+04  0.00000000000E+00 0. -1.
          1   -1    0    0  501    0 -0.00000000000E+00 -0.00000000000E+00 -0.14222436954E+04  0.14222436954E+04  0.00000000000E+00 0. -1.
         25    2    1    2    0    0  0.46568154416E+01  0.42001227938E+02 -0.34039435094E+03  0.36507789591E+03  0.12501106693E+03 0.  0.
          2    1    1    2  501    0  0.62858195410E+02  0.35519039546E+02 -0.10668764003E+04  0.10693166081E+04  0.00000000000E+00 0. -1.
          1    1    1    2  502    0 -0.67515010852E+02 -0.77520267484E+02  0.18708711548E+04  0.18736932904E+04  0.00000000000E+00 0. -1.
         22    1    3    3    0    0  0.51218180591E+02 -0.19265015099E+02 -0.12971642821E+03  0.14078634372E+03  0.00000000000E+00 0.  1.
         22    1    3    3    0    0 -0.46561365150E+02  0.61266243038E+02 -0.21067792272E+03  0.22429155219E+03  0.00000000000E+00 0.  1.
</event>
<event>
 7    1  0.6507405E-006  0.6481108E+02  0.7818608E-02  0.1415057E+00
          2   -1    0    0  502    0  0.00000000000E+00  0.00000000000E+00  0.13025916282E+03  0.13025916282E+03  0.00000000000E+00 0. -1.
          1   -1    0    0  501    0 -0.00000000000E+00 -0.00000000000E+00 -0.45423640646E+03  0.45423640646E+03  0.00000000000E+00 0. -1.
         25    2    1    2    0    0 -0.79349793064E+02  0.37549561616E+02 -0.28826305689E+03  0.32622811742E+03  0.12499134127E+03 0.  0.
          2    1    1    2  501    0  0.59722269187E+02  0.68297332006E+01 -0.13498861708E+03  0.14776779566E+03  0.00000000000E+00 0. -1.
          1    1    1    2  502    0  0.19627523877E+02 -0.44379294816E+02  0.99274430332E+02  0.11049965620E+03  0.00000000000E+00 0. -1.
         22    1    3    3    0    0 -0.83118494599E+02  0.70766824033E+02 -0.26161405040E+03  0.28347581712E+03  0.00000000000E+00 0. -1.
         22    1    3    3    0    0  0.37687015352E+01 -0.33217262417E+02 -0.26649006493E+02  0.42752300299E+02  0.00000000000E+00 0. -1.
</event>
<event>
 7    1  0.6507405E-006  0.6229209E+02  0.7818608E-02  0.1508507E+00
          2   -1    0    0  502    0  0.00000000000E+00  0.00000000000E+00  0.46348171394E+02  0.46348171394E+02  0.00000000000E+00 0. -1.
          1   -1    0    0  501    0 -0.00000000000E+00 -0.00000000000E+00 -0.74277431292E+03  0.74277431292E+03  0.00000000000E+00 0. -1.
         25    2    1    2    0    0 -0.70849454765E+02  0.46661742675E+02 -0.48414873733E+03  0.50717079255E+03  0.12500099794E+03 0.  0.
          2    1    1    2  501    0  0.24785288260E+02 -0.65411467156E+01 -0.21900108832E+03  0.22049619906E+03  0.00000000000E+00 0. -1.
          1    1    1    2  502    0  0.46064166505E+02 -0.40120595959E+02  0.67236841222E+01  0.61455492709E+02  0.00000000000E+00 0. -1.
         22    1    3    3    0    0 -0.96379751857E+02 -0.63918997609E+00 -0.33702017859E+03  0.35053111974E+03  0.00000000000E+00 0. -1.
         22    1    3    3    0    0  0.25530297092E+02  0.47300932651E+02 -0.14712855874E+03  0.15663967281E+03  0.00000000000E+00 0. -1.
</event>
<event>
 7    1  0.6507405E-006  0.1306217E+03  0.7818608E-02  0.1372830E+00
          2   -1    0    0  502    0  0.00000000000E+00  0.00000000000E+00  0.15242035902E+04  0.15242035902E+04  0.00000000000E+00 0. -1.
          1   -1    0    0  501    0 -0.00000000000E+00 -0.00000000000E+00 -0.99031084631E+02  0.99031084631E+02  0.00000000000E+00 0. -1.
         25    2    1    2    0    0  0.73113074969E+02 -0.85857943193E+02  0.28733829034E+03  0.33302540790E+03  0.12500208426E+03 0.  0.
          2    1    1    2  501    0  0.33404622078E+02  0.47458101973E+01 -0.68557924472E+02  0.76410604621E+02  0.00000000000E+00 0. -1.
          1    1    1    2  502    0 -0.10651769705E+03  0.81112132995E+02  0.12063921397E+04  0.12137986623E+04  0.00000000000E+00 0. -1.
         22    1    3    3    0    0  0.73182926696E+02 -0.10557142643E+03  0.16499403453E+03  0.20910308049E+03  0.00000000000E+00 0. -1.
         22    1    3    3    0    0 -0.69851726198E-01  0.19713483241E+02  0.12234425581E+03  0.12392232741E+03  0.00000000000E+00 0. -1.
</event>
<event>
 7    1  0.6507405E-006  0.9439763E+02  0.7818608E-02  0.1366220E+00
          2   -1    0    0  502    0  0.00000000000E+00  0.00000000000E+00  0.15340661823E+04  0.15340661823E+04  0.00000000000E+00 0. -1.
          1   -1    0    0  501    0 -0.00000000000E+00 -0.00000000000E+00 -0.20256701033E+03  0.20256701033E+03  0.00000000000E+00 0. -1.
         25    2    1    2    0    0 -0.84968656507E+02  0.15437076782E+02  0.10744367539E+03  0.18608616696E+03  0.12500376884E+03 0.  0.
          2    1    1    2  501    0  0.90210114301E+02  0.33598789504E+02 -0.14857296560E+03  0.17703296158E+03  0.00000000000E+00 0. -1.
          1    1    1    2  502    0 -0.52414577947E+01 -0.49035866286E+02  0.13726284622E+04  0.13735140641E+04  0.00000000000E+00 0. -1.
         22    1    3    3    0    0 -0.39784627659E+01  0.38154978970E+02 -0.11821529226E+02  0.40141987238E+02  0.00000000000E+00 0. -1.
         22    1    3    3    0    0 -0.80990193741E+02 -0.22717902188E+02  0.11926520461E+03  0.14594417972E+03  0.00000000000E+00 0. -1.
</event>
<event>
 7    1  0.6507405E-006  0.2342976E+03  0.7818608E-02  0.1306269E+00
          2   -1    0    0  502    0  0.00000000000E+00  0.00000000000E+00  0.21675409025E+03  0.21675409025E+03  0.00000000000E+00 0. -1.
          1   -1    0    0  501    0 -0.00000000000E+00 -0.00000000000E+00 -0.15547496136E+04  0.15547496136E+04  0.00000000000E+00 0. -1.
         25    2    1    2    0    0 -0.17371771795E+03 -0.14540346505E+03 -0.18059919985E+03  0.31553310747E+03  0.12500023099E+03 0.  0.
          2    1    1    2  501    0  0.13703429118E+02 -0.30576663906E+02 -0.12115650790E+04  0.12120283235E+04  0.00000000000E+00 0. -1.
          1    1    1    2  502    0  0.16001428883E+03  0.17598012896E+03  0.54168755507E+02  0.24394227286E+03  0.00000000000E+00 0. -1.
         22    1    3    3    0    0 -0.19022757011E+03 -0.13991536573E+03 -0.18191241725E+03  0.29808550040E+03  0.00000000000E+00 0.  1.
         22    1    3    3    0    0  0.16509852165E+02 -0.54880993200E+01  0.13132174000E+01  0.17447607074E+02  0.00000000000E+00 0.  1.
</event>
<event>
 7    1  0.6507405E-006  0.4777669E+02  0.7818608E-02  0.1489214E+00
          2   -1    0    0  502    0  0.00000000000E+00  0.00000000000E+00  0.51575692719E+03  0.51575692719E+03  0.00000000000E+00 0. -1.
          1   -1    0    0  501    0 -0.00000000000E+00 -0.00000000000E+00 -0.65027024419E+03  0.65027024419E+03  0.00000000000E+00 0. -1.
         25    2    1    2    0    0  0.95727114770E+01 -0.44400351262E+02 -0.42431758523E+03  0.44467333625E+03  0.12500373928E+03 0.  0.
          2    1    1    2  501    0 -0.37732514225E+02  0.57479824339E+01 -0.21294333091E+03  0.21633687645E+03  0.00000000000E+00 0. -1.
          1    1    1    2  502    0  0.28159802748E+02  0.38652368828E+02  0.50274759915E+03  0.50501695869E+03  0.00000000000E+00 0. -1.
         22    1    3    3    0    0  0.28854033750E+02  0.20390201199E+02 -0.30892150440E+03  0.31093538146E+03  0.00000000000E+00 0.  1.
         22    1    3    3    0    0 -0.19281322273E+02 -0.64790552461E+02 -0.11539608084E+03  0.13373795478E+03  0.00000000000E+00 0.  1.
</event>
<event>
 7    1  0.6507405E-006  0.1602530E+03  0.7818608E-02  0.1352292E+00
          2   -1    0    0  502    0  0.00000000000E+00  0.00000000000E+00  0.19106669959E+04  0.19106669959E+04  0.00000000000E+00 0. -1.
          1   -1    0    0  501    0 -0.00000000000E+00 -0.00000000000E+00 -0.50805442617E+03  0.50805442617E+03  0.00000000000E+00 0. -1.
         25    2    1    2    0    0  0.88809394725E+02  0.12314250646E+03  0.66442880127E+03  0.69292298130E+03  0.12500176226E+03 0.  0.
          2    1    1    2  501    0 -0.65828244144E+02 -0.14634997409E+03 -0.48054547106E+03  0.50663164370E+03  0.00000000000E+00 0. -1.
          1    1    1    2  502    0 -0.22981150581E+02  0.23207467626E+02  0.12187292395E+04  0.12191667971E+04  0.00000000000E+00 0. -1.
         22    1    3    3    0    0  0.19855925518E+01  0.71187062075E+02  0.45261301601E+03  0.45818127706E+03  0.00000000000E+00 0.  1.
         22    1    3    3    0    0  0.86823802173E+02  0.51955444388E+02  0.21181578526E+03  0.23474170424E+03  0.00000000000E+00 0.  1.
</event>
<event>
 7    1  0.6507405E-006  0.6705078E+02  0.7818608E-02  0.1425547E+00
          2   -1    0    0  502    0  0.00000000000E+00  0.00000000000E+00  0.86878220280E+03  0.86878220280E+03  0.00000000000E+00 0. -1.
          1   -1    0    0  501    0 -0.00000000000E+00 -0.00000000000E+00 -0.74769013811E+03  0.74769013811E+03  0.00000000000E+00 0. -1.
         25    2    1    2    0    0 -0.17337805711E+02 -0.34188240622E+02 -0.39808310981E+03  0.41900488467E+03  0.12500198300E+03 0.  0.
          2    1    1    2  501    0  0.48832879219E+02  0.63860732428E+02 -0.33382595518E+03  0.34336949718E+03  0.00000000000E+00 0. -1.
          1    1    1    2  502    0 -0.31495073508E+02 -0.29672491806E+02  0.85300112968E+03  0.85409795906E+03  0.00000000000E+00 0. -1.
         22    1    3    3    0    0 -0.63225874972E+02 -0.51438655636E+02 -0.23672764498E+03  0.25036658015E+03  0.00000000000E+00 0. -1.
         22    1    3    3    0    0  0.45888069261E+02  0.17250415014E+02 -0.16135546483E+03  0.16863830452E+03  0.00000000000E+00 0. -1.
</event>
<event>
 7    1  0.6507405E-006  0.1533803E+03  0.7818608E-02  0.1267299E+00
          2   -1    0    0  502    0  0.00000000000E+00  0.00000000000E+00  0.28228854378E+03  0.28228854378E+03  0.00000000000E+00 0. -1.
          1   -1    0    0  501    0 -0.00000000000E+00 -0.00000000000E+00 -0.44303680172E+03  0.44303680172E+03  0.00000000000E+00 0. -1.
         25    2    1    2    0    0 -0.11341644102E+03  0.10818170119E+02  0.91868255651E+02  0.19247150909E+03  0.12500073407E+03 0.  0.
          2    1    1    2  501    0  0.13711148014E+03 -0.80786998652E+02 -0.36510308311E+03  0.39827924680E+03  0.00000000000E+00 0. -1.
          1    1    1    2  502    0 -0.23695039125E+02  0.69968828533E+02  0.11248656952E+03  0.13457458961E+03  0.00000000000E+00 0. -1.
         22    1    3    3    0    0 -0.11764316214E+03  0.33119194858E+02  0.10921443792E+03  0.16390420409E+03  0.00000000000E+00 0.  1.
         22    1    3    3    0    0  0.42267211229E+01 -0.22301024739E+02 -0.17346182271E+02  0.28567305005E+02  0.00000000000E+00 0.  1.
</event>
<event>
 7    1  0.9304187E-006  0.1120776E+03  0.7818608E-02  0.1293480E+00
          2   -1    0    0  502    0  0.00000000000E+00  0.00000000000E+00  0.18447977707E+04  0.18447977707E+04  0.00000000000E+00 0. -1.
          1   -1    0    0  501    0 -0.00000000000E+00 -0.00000000000E+00 -0.11571243142E+04  0.11571243142E+04  0.00000000000E+00 0. -1.
         25    2    1    2    0    0 -0.72805009461E+02 -0.15286267532E+03 -0.41575813992E+03  0.46599616540E+03  0.12502011178E+03 0.  0.
          2    1    1    2  501    0  0.73806524957E+02  0.74056878035E+02 -0.71157178561E+03  0.71921222903E+03  0.00000000000E+00 0. -1.
          1    1    1    2  502    0 -0.10015154963E+01  0.78805797283E+02  0.18150033820E+04  0.18167136905E+04  0.00000000000E+00 0. -1.
         22    1    3    3    0    0 -0.21494427344E+02 -0.12211076772E+03 -0.15512937909E+03  0.19859046869E+03  0.00000000000E+00 0. -1.
         22    1    3    3    0    0 -0.51310582117E+02 -0.30751907600E+02 -0.26062876083E+03  0.26740569671E+03  0.00000000000E+00 0. -1.
</event>
<event>
 7    1  0.6507405E-006  0.7791372E+02  0.7818608E-02  0.1398825E+00
          2   -1    0    0  502    0  0.00000000000E+00  0.00000000000E+00  0.18329956359E+03  0.18329956359E+03  0.00000000000E+00 0. -1.
          1   -1    0    0  501    0 -0.00000000000E+00 -0.00000000000E+00 -0.10598478515E+04  0.10598478515E+04  0.00000000000E+00 0. -1.
         25    2    1    2    0    0 -0.11884607980E+03  0.19523718682E+00  0.22232740713E+02  0.17390793815E+03  0.12500098956E+03 0.  0.
          2    1    1    2  501    0  0.75703330915E+02 -0.15693535642E+02 -0.97620510291E+03  0.97926180581E+03  0.00000000000E+00 0. -1.
          1    1    1    2  502    0  0.43142748889E+02  0.15498298455E+02  0.77424074247E+02  0.89977671172E+02  0.00000000000E+00 0. -1.
         22    1    3    3    0    0 -0.24913102383E+02  0.32584476855E+02 -0.39489776094E+02  0.56937274418E+02  0.00000000000E+00 0. -1.
         22    1    3    3    0    0 -0.93932977421E+02 -0.32389239668E+02  0.61722516808E+02  0.11697066373E+03  0.00000000000E+00 0. -1.
</event>
<event>
 7    1  0.6507405E-006  0.1019536E+03  0.7818608E-02  0.1432861E+00
          2   -1    0    0  502    0  0.00000000000E+00  0.00000000000E+00  0.25427705041E+04  0.25427705041E+04  0.00000000000E+00 0. -1.
          1   -1    0    0  501    0 -0.00000000000E+00 -0.00000000000E+00 -0.88969694362E+02  0.88969694362E+02  0.00000000000E+00 0. -1.
         25    2    1    2    0    0  0.76634387247E+02 -0.12191643234E+02  0.36681035587E+03  0.39521324452E+03  0.12498882349E+03 0.  0.
          2    1    1    2  501    0  0.25203510009E+02 -0.94620273179E+01 -0.71048547046E+02  0.75977910705E+02  0.00000000000E+00 0. -1.
          1    1    1    2  502    0 -0.10183789726E+03  0.21653670551E+02  0.21580390010E+04  0.21605490433E+04  0.00000000000E+00 0. -1.
         22    1    3    3    0    0  0.14613497942E+02 -0.58632865245E+02  0.23182906978E+03  0.23957480002E+03  0.00000000000E+00 0.  1.
         22    1    3    3    0    0  0.62020889305E+02  0.46441222011E+02  0.13498128609E+03  0.15563844450E+03  0.00000000000E+00 0.  1.
</event>
<event>
 7    1  0.6507405E-006  0.4064200E+02  0.7818608E-02  0.1511482E+00
          2   -1    0    0  502    0  0.00000000000E+00  0.00000000000E+00  0.20693690754E+03  0.20693690754E+03  0.00000000000E+00 0. -1.
          1   -1    0    0  501    0 -0.00000000000E+00 -0.00000000000E+00 -0.28914273319E+03  0.28914273319E+03  0.00000000000E+00 0. -1.
         25    2    1    2    0    0 -0.92985401819E+00 -0.78157224919E+01 -0.85000837649E+02  0.15136634786E+03  0.12499871487E+03 0.  0.
          2    1    1    2  501    0 -0.37959142047E+02 -0.64595670353E+01 -0.16625798569E+03  0.17065854880E+03  0.00000000000E+00 0. -1.
          1    1    1    2  502    0  0.38888996066E+02  0.14275289527E+02  0.16905299769E+03  0.17405474407E+03  0.00000000000E+00 0. -1.
         22    1    3    3    0    0  0.13746592350E+02 -0.11414754742E+02 -0.11574134559E+03  0.11711244386E+03  0.00000000000E+00 0.  1.
         22    1    3    3    0    0 -0.14676446368E+02  0.35990322497E+01  0.30740507943E+02  0.34253904007E+02  0.00000000000E+00 0.  1.
</event>
<event>
 7    1  0.6507405E-006  0.2743439E+02  0.7818608E-02  0.1641741E+00
          2   -1    0    0  502    0  0.00000000000E+00  0.00000000000E+00  0.13777526363E+04  0.13777526363E+04  0.00000000000E+00 0. -1.
          1   -1    0    0  501    0 -0.00000000000E+00 -0.00000000000E+00 -0.10203090141E+03  0.10203090141E+03  0.00000000000E+00 0. -1.
         25    2    1    2    0    0  0.15444251563E+02  0.41127772525E+02  0.36384989047E+03  0.38722213645E+03  0.12499688628E+03 0.  0.
          2    1    1    2  501    0  0.55327749165E+01 -0.26815439717E+02 -0.88105377411E+02  0.92261784799E+02  0.00000000000E+00 0. -1.
          1    1    1    2  502    0 -0.20977026480E+02 -0.14312332809E+02  0.99997722179E+03  0.10002996164E+04  0.00000000000E+00 0. -1.
         22    1    3    3    0    0  0.18298613557E+02  0.13980677345E+02  0.69075538347E+00  0.23038570705E+02  0.00000000000E+00 0. -1.
         22    1    3    3    0    0 -0.28543619936E+01  0.27147095180E+02  0.36315913509E+03  0.36418356574E+03  0.00000000000E+00 0. -1.
</event>
<event>
 7    1  0.6507405E-006  0.6225231E+02  0.7818608E-02  0.1461581E+00
          2   -1    0    0  502    0  0.00000000000E+00  0.00000000000E+00  0.14448605329E+03  0.14448605329E+03  0.00000000000E+00 0. -1.
          1   -1    0    0  501    0 -0.00000000000E+00 -0.00000000000E+00 -0.24716940554E+03  0.24716940554E+03  0.00000000000E+00 0. -1.
         25    2    1    2    0    0  0.11686725594E+02  0.56611153716E+02 -0.53856381224E+02  0.14787487449E+03  0.12500026571E+03 0.  0.
          2    1    1    2  501    0  0.33614317134E+02 -0.11879208042E+02 -0.13331025762E+03  0.13799515457E+03  0.00000000000E+00 0. -1.
          1    1    1    2  502    0 -0.45301042729E+02 -0.44731945674E+02  0.84483286587E+02  0.10578542976E+03  0.00000000000E+00 0. -1.
         22    1    3    3    0    0 -0.52214964897E+02  0.29686167423E+01 -0.87374820759E+01  0.53024134482E+02  0.00000000000E+00 0.  1.
         22    1    3    3    0    0  0.63901690491E+02  0.53642536973E+02 -0.45118899148E+02  0.94850740013E+02  0.00000000000E+00 0.  1.
</event>
<event>
 7    1  0.6507405E-006  0.1018069E+03  0.7818608E-02  0.1405913E+00
          2   -1    0    0  502    0  0.00000000000E+00  0.00000000000E+00  0.15084832607E+04  0.15084832607E+04  0.00000000000E+00 0. -1.
          1   -1    0    0  501    0 -0.00000000000E+00 -0.00000000000E+00 -0.15888352581E+03  0.15888352581E+03  0.00000000000E+00 0. -1.
         25    2    1    2    0    0 -0.86008827608E+02 -0.45094271803E+02  0.10275229870E+02  0.15862694571E+03  0.12500366307E+03 0.  0.
          2    1    1    2  501    0  0.15937383965E+02 -0.29096271854E+02 -0.79555057057E+02  0.86195129484E+02  0.00000000000E+00 0. -1.
          1    1    1    2  502    0  0.70071443643E+02  0.74190543656E+02  0.14188795621E+04  0.14225447113E+04  0.00000000000E+00 0. -1.
         22    1    3    3    0    0  0.26449444973E+02 -0.92506146114E+01 -0.22714862359E+02  0.36070929875E+02  0.00000000000E+00 0.  1.
         22    1    3    3    0    0 -0.11245827258E+03 -0.35843657191E+02  0.32990092230E+02  0.12255601584E+03  0.00000000000E+00 0.  1.
</event>
<event>
 7    1  0.6507405E-006  0.1136130E+03  0.7818608E-02  0.1336181E+00
          2   -1    0    0  502    0  0.00000000000E+00  0.00000000000E+00  0.75594337542E+03  0.75594337542E+03  0.00000000000E+00 0. -1.
          1   -1    0    0  501    0 -0.00000000000E+00 -0.00000000000E+00 -0.11658369723E+04  0.11658369723E+04  0.00000000000E+00 0. -1.
         25    2    1    2    0    0  0.12709135003E+03 -0.82810023831E+02  0.19910188379E+03  0.27977165016E+03  0.12498361814E+03 0.  0.
          2    1    1    2  501    0 -0.52810418920E+02  0.34136122717E+01 -0.11191480677E+04  0.11203985855E+04  0.00000000000E+00 0. -1.
          1    1    1    2  502    0 -0.74280931111E+02  0.79396411560E+02  0.51015258703E+03  0.52161011200E+03  0.00000000000E+00 0. -1.
         22    1    3    3    0    0  0.20756896635E+02 -0.13260858249E+02 -0.16406951606E+02  0.29595391202E+02  0.00000000000E+00 0. -1.
         22    1    3    3    0    0  0.10633445340E+03 -0.69549165583E+02  0.21550883539E+03  0.25017625895E+03  0.00000000000E+00 0. -1.
</event>
<event>
 7    1  0.6507405E-006  0.4647584E+02  0.7818608E-02  0.1570160E+00
          2   -1    0    0  502    0  0.00000000000E+00  0.00000000000E+00  0.15109470456E+03  0.15109470456E+03  0.00000000000E+00 0. -1.
          1   -1    0    0  501    0 -0.00000000000E+00 -0.00000000000E+00 -0.35917014320E+03  0.35917014320E+03  0.00000000000E+00 0. -1.
         25    2    1    2    0    0  0.61002401799E+02 -0.19573931370E+02 -0.43579955647E+02  0.14706831593E+03  0.12500178080E+03 0.  0.
          2    1    1    2  501    0 -0.15464033938E+02  0.17009820064E+02 -0.25807322788E+03  0.25909508153E+03  0.00000000000E+00 0. -1.
          1    1    1    2  502    0 -0.45538367861E+02  0.25641113068E+01  0.93577744894E+02  0.10410145030E+03  0.00000000000E+00 0. -1.
         22    1    3    3    0    0 -0.24403772923E+02  0.28718884318E+02 -0.29686856479E+02  0.47975284230E+02  0.00000000000E+00 0.  1.
         22    1    3    3    0    0  0.85406174722E+02 -0.48292815688E+02 -0.13893099167E+02  0.99093031703E+02  0.00000000000E+00 0.  1.
</event>
<event>
 7    1  0.6507405E-006  0.7036830E+02  0.7818608E-02  0.1437858E+00
          2   -1    0    0  502    0  0.00000000000E+00  0.00000000000E+00  0.45915667209E+04  0.45915667209E+04  0.00000000000E+00 0. -1.
          1   -1    0    0  501    0 -0.00000000000E+00 -0.00000000000E+00 -0.38134077414E+02  0.38134077414E+02  0.00000000000E+00 0. -1.
         25    2    1    2    0    0 -0.40740711374E+02  0.29226013108E+02  0.23107806329E+04  0.23147019029E+04  0.12499520262E+03 0.  0.
          2    1    1    2  501    0  0.28554115377E+02 -0.64760426949E+02 -0.12454370599E+01  0.70787015172E+02  0.00000000000E+00 0. -1.
          1    1    1    2  502    0  0.12186595997E+02  0.35534413841E+02  0.22438974477E+04  0.22442118802E+04  0.00000000000E+00 0. -1.
         22    1    3    3    0    0 -0.18514756904E+02  0.77365766877E+02  0.11796654350E+04  0.11823446184E+04  0.00000000000E+00 0. -1.
         22    1    3    3    0    0 -0.22225954470E+02 -0.48139753769E+02  0.11311151979E+04  0.11323572846E+04  0.00000000000E+00 0. -1.
</event>
<event>
 7    1  0.6507405E-006  0.1392516E+03  0.7818608E-02  0.1409212E+00
          2   -1    0    0  502    0  0.00000000000E+00  0.00000000000E+00  0.13162852824E+04  0.13162852824E+04  0.00000000000E+00 0. -1.
          1   -1    0    0  501    0 -0.00000000000E+00 -0.00000000000E+00 -0.32515798123E+03  0.32515798123E+03  0.00000000000E+00 0. -1.
         25    2    1    2    0    0 -0.12137963025E+03  0.35000798277E+01  0.12941841825E+03  0.21706943425E+03  0.12499898841E+03 0.  0.
          2    1    1    2  501    0 -0.19337640808E+02 -0.13590770035E+02 -0.27647319387E+03  0.27748167563E+03  0.00000000000E+00 0. -1.
          1    1    1    2  502    0  0.14071727106E+03  0.10090690208E+02  0.11381820768E+04  0.11468921538E+04  0.00000000000E+00 0. -1.
         22    1    3    3    0    0 -0.11274249998E+03 -0.24689340818E+01  0.15369013101E+03  0.19062429884E+03  0.00000000000E+00 0. -1.
         22    1    3    3    0    0 -0.86371302739E+01  0.59690139095E+01 -0.24271712763E+02  0.26445135410E+02  0.00000000000E+00 0. -1.
</event>
<event>
 7    1  0.6507405E-006  0.6860021E+02  0.7818608E-02  0.1453076E+00
          2   -1    0    0  502    0  0.00000000000E+00  0.00000000000E+00  0.20561905845E+04  0.20561905845E+04  0.00000000000E+00 0. -1.
          1   -1    0    0  501    0 -0.00000000000E+00 -0.00000000000E+00 -0.50780788503E+03  0.50780788503E+03  0.00000000000E+00 0. -1.
         25    2    1    2    0    0 -0.67480644335E+02  0.55352001062E+02 -0.34816944402E+03  0.38007375499E+03  0.12496645989E+03 0.  0.
          2    1    1    2  501    0  0.57773894704E+02 -0.22326558684E+02 -0.13685906197E+03  0.15022217205E+03  0.00000000000E+00 0. -1.
          1    1    1    2  502    0  0.97067496312E+01 -0.33025442378E+02  0.20334112054E+04  0.20337025425E+04  0.00000000000E+00 0. -1.
         22    1    3    3    0    0 -0.31609295630E+02  0.33865266910E+02 -0.22086414742E+02  0.51320693577E+02  0.00000000000E+00 0. -1.
         22    1    3    3    0    0 -0.35871348705E+02  0.21486734153E+02 -0.32608302928E+03  0.32875306141E+03  0.00000000000E+00 0. -1.
</event>
<event>
 7    1  0.6507405E-006  0.2602188E+03  0.7818608E-02  0.1205256E+00
          2   -1    0    0  502    0  0.00000000000E+00  0.00000000000E+00  0.19888834127E+04  0.19888834127E+04  0.00000000000E+00 0. -1.
          1   -1    0    0  501    0 -0.00000000000E+00 -0.00000000000E+00 -0.22537549232E+04  0.22537549232E+04  0.00000000000E+00 0. -1.
         25    2    1    2    0    0 -0.88585125147E+02  0.21779999634E+03  0.12943774895E+03  0.29608611903E+03  0.12501478404E+03 0.  0.
          2    1    1    2  501    0  0.16871474699E+03 -0.19987657220E+03 -0.21615936821E+04  0.21773613748E+04  0.00000000000E+00 0. -1.
          1    1    1    2  502    0 -0.80129621839E+02 -0.17923424140E+02  0.17672844226E+04  0.17691908421E+04  0.00000000000E+00 0. -1.
         22    1    3    3    0    0 -0.11868147073E+03  0.17959366276E+03  0.12029742501E+03  0.24659814610E+03  0.00000000000E+00 0.  1.
         22    1    3    3    0    0  0.30096345581E+02  0.38206333581E+02  0.91403239417E+01  0.49487972931E+02  0.00000000000E+00 0.  1.
</event>
<event>
 7    1  0.6507405E-006  0.8533816E+02  0.7818608E-02  0.1427611E+00
          2   -1    0    0  502    0  0.00000000000E+00  0.00000000000E+00  0.17073938652E+02  0.17073938652E+02  0.00000000000E+00 0. -1.
          1   -1    0    0  501    0 -0.00000000000E+00 -0.00000000000E+00 -0.23487164152E+04  0.23487164152E+04  0.00000000000E+00 0. -1.
         25    2    1    2    0    0  0.70293171323E+01  0.63808420493E+02 -0.14215958882E+04  0.14285241090E+04  0.12500133951E+03 0.  0.
          2    1    1    2  501    0  0.29337029888E+02  0.16107401520E+02 -0.77784269262E+03  0.77856237012E+03  0.00000000000E+00 0. -1.
          1    1    1    2  502    0 -0.36366347020E+02 -0.79915822013E+02 -0.13220389575E+03  0.15870387473E+03  0.00000000000E+00 0. -1.
         22    1    3    3    0    0 -0.29887409094E+01 -0.32528453394E+02 -0.16508545947E+03  0.16828619011E+03  0.00000000000E+00 0. -1.
         22    1    3    3    0    0  0.10018058042E+02  0.96336873887E+02 -0.12565104287E+04  0.12602379189E+04  0.00000000000E+00 0. -1.
</event>
<event>
 7    1  0.6507405E-006  0.1098584E+03  0.7818608E-02  0.1404963E+00
          2   -1    0    0  502    0  0.00000000000E+00  0.00000000000E+00  0.13239526284E+04  0.13239526284E+04  0.00000000000E+00 0. -1.
          1   -1    0    0  501    0 -0.00000000000E+00 -0.00000000000E+00 -0.89217464015E+02  0.89217464015E+02  0.00000000000E+00 0. -1.
         25    2    1    2    0    0 -0.34599358537E+02 -0.78391173839E+02  0.22706844662E+03  0.27299648301E+03  0.12499883415E+03 0.  0.
          2    1    1    2  501    0 -0.25675834586E+02 -0.17324481396E+02 -0.59473241073E+02  0.67055592914E+02  0.00000000000E+00 0. -1.
          1    1    1    2  502    0  0.60275193123E+02  0.95715655235E+02  0.10671399589E+04  0.10731180165E+04  0.00000000000E+00 0. -1.
         22    1    3    3    0    0 -0.38737387378E+02 -0.28439178851E+02  0.21650262679E+03  0.22177186359E+03  0.00000000000E+00 0. -1.
         22    1    3    3    0    0  0.41380288408E+01 -0.49951994988E+02  0.10565819829E+02  0.51224619419E+02  0.00000000000E+00 0. -1.
</event>
<event>
 7    1  0.6507405E-006  0.7660964E+02  0.7818608E-02  0.1388437E+00
          2   -1    0    0  502    0  0.00000000000E+00  0.00000000000E+00  0.31709595207E+03  0.31709595207E+03  0.00000000000E+00 0. -1.
          1   -1    0    0  501    0 -0.00000000000E+00 -0.00000000000E+00 -0.39387388083E+03  0.39387388083E+03  0.00000000000E+00 0. -1.
         25    2    1    2    0    0  0.36615091980E+02 -0.10008076117E+03 -0.40833286053E+02  0.16925739909E+03  0.12499554465E+03 0.  0.
          2    1    1    2  501    0  0.72229412388E+01  0.74693438957E+02 -0.28132289376E+03  0.29115949453E+03  0.00000000000E+00 0. -1.
          1    1    1    2  502    0 -0.43838033219E+02  0.25387322211E+02  0.24537825106E+03  0.25055293927E+03  0.00000000000E+00 0. -1.
         22    1    3    3    0    0  0.92832514280E+01  0.29922792837E+02 -0.99162113072E+01  0.32861581443E+02  0.00000000000E+00 0. -1.
         22    1    3    3    0    0  0.27331840552E+02 -0.13000355400E+03 -0.30917074746E+02  0.13639581765E+03  0.00000000000E+00 0. -1.
</event>
<event>
 7    1  0.6507405E-006  0.6916702E+02  0.7818608E-02  0.1399574E+00
          2   -1    0    0  502    0  0.00000000000E+00  0.00000000000E+00  0.79135619538E+03  0.79135619538E+03  0.00000000000E+00 0. -1.
          1   -1    0    0  501    0 -0.00000000000E+00 -0.00000000000E+00 -0.52513174714E+03  0.52513174714E+03  0.00000000000E+00 0. -1.
         25    2    1    2    0    0  0.97623038546E+02  0.12664993168E+02 -0.14676969831E+03  0.21646472770E+03  0.12499989716E+03 0.  0.
          2    1    1    2  501    0 -0.33705858879E+02 -0.38717479944E+02 -0.34000950819E+03  0.34386275436E+03  0.00000000000E+00 0. -1.
          1    1    1    2  502    0 -0.63917179667E+02  0.26052486776E+02  0.75300365474E+03  0.75616046046E+03  0.00000000000E+00 0. -1.
         22    1    3    3    0    0  0.12693361741E+03  0.16414887307E+02 -0.10642950555E+03  0.16645969904E+03  0.00000000000E+00 0. -1.
         22    1    3    3    0    0 -0.29310578862E+02 -0.37498941392E+01 -0.40340192758E+02  0.50005028657E+02  0.00000000000E+00 0. -1.
</event>
<event>
 7    1  0.6507405E-006  0.7363421E+02  0.7818608E-02  0.1466311E+00
          2   -1    0    0  502    0  0.00000000000E+00  0.00000000000E+00  0.61169399767E+02  0.61169399767E+02  0.00000000000E+00 0. -1.
          1   -1    0    0  501    0 -0.00000000000E+00 -0.00000000000E+00 -0.55081286460E+03  0.55081286460E+03  0.00000000000E+00 0. -1.
         25    2    1    2    0    0 -0.33971799127E+02  0.63533808722E+02 -0.31909261474E+03  0.35019410652E+03  0.12500074990E+03 0.  0.
          2    1    1    2  501    0  0.27199803157E+02  0.10422364112E+02 -0.18401998372E+03  0.18631105542E+03  0.00000000000E+00 0. -1.
          1    1    1    2  502    0  0.67719959704E+01 -0.73956172834E+02  0.13469133623E+02  0.75477102423E+02  0.00000000000E+00 0. -1.
         22    1    3    3    0    0 -0.83497866342E+01 -0.33321205725E+02 -0.35385550114E+02  0.49316922498E+02  0.00000000000E+00 0. -1.
         22    1    3    3    0    0 -0.25622012493E+02  0.96855014447E+02 -0.28370706463E+03  0.30087718403E+03  0.00000000000E+00 0. -1.
</event>
<event>
 7    1  0.6507405E-006  0.4658495E+02  0.7818608E-02  0.1475867E+00
          2   -1    0    0  502    0  0.00000000000E+00  0.00000000000E+00  0.43221762094E+03  0.43221762094E+03  0.00000000000E+00 0. -1.
          1   -1    0    0  501    0 -0.00000000000E+00 -0.00000000000E+00 -0.12457314492E+04  0.12457314492E+04  0.00000000000E+00 0. -1.
         25    2    1    2    0    0  0.96696554993E+01 -0.66304563620E+02 -0.24263682212E+03  0.28104339449E+03  0.12499185870E+03 0.  0.
          2    1    1    2  501    0  0.24097019623E+02  0.39681085611E+02 -0.98222238402E+03  0.98331890381E+03  0.00000000000E+00 0. -1.
          1    1    1    2  502    0 -0.33766675122E+02  0.26623478008E+02  0.41134537789E+03  0.41358677184E+03  0.00000000000E+00 0. -1.
         22    1    3    3    0    0 -0.39109800868E+02 -0.11574654201E+02 -0.17701739387E+02  0.44462351728E+02  0.00000000000E+00 0. -1.
         22    1    3    3    0    0  0.48779456368E+02 -0.54729909419E+02 -0.22493508274E+03  0.23658104276E+03  0.00000000000E+00 0. -1.
</event>
<event>
 7    1  0.6507405E-006  0.4544107E+02  0.7818608E-02  0.1481547E+00
          2   -1    0    0  502    0  0.00000000000E+00  0.00000000000E+00  0.37062899277E+04  0.37062899277E+04  0.00000000000E+00 0. -1.
          1   -1    0    0  501    0 -0.00000000000E+00 -0.00000000000E+00 -0.42794893322E+02  0.42794893322E+02  0.00000000000E+00 0. -1.
         25    2    1    2    0    0  0.62429304479E+02 -0.51295367822E+02  0.68074960631E+03  0.69683196138E+03  0.12500449231E+03 0.  0.
          2    1    1    2  501    0 -0.19811887712E+02  0.37425218738E+02 -0.21625213966E+02  0.47547952336E+02  0.00000000000E+00 0. -1.
          1    1    1    2  502    0 -0.42617416767E+02  0.13870149084E+02  0.30043706420E+04  0.30047049073E+04  0.00000000000E+00 0. -1.
         22    1    3    3    0    0  0.92522426869E+02 -0.42135192284E+01  0.44730026455E+03  0.45678844106E+03  0.00000000000E+00 0. -1.
         22    1    3    3    0    0 -0.30093122391E+02 -0.47081848593E+02  0.23344934176E+03  0.24004352033E+03  0.00000000000E+00 0. -1.
</event>
<event>
 7    1  0.6507405E-006  0.6993123E+02  0.7818608E-02  0.1371633E+00
          2   -1    0    0  502    0  0.00000000000E+00  0.00000000000E+00  0.41946664013E+02  0.41946664013E+02  0.00000000000E+00 0. -1.
          1   -1    0    0  501    0 -0.00000000000E+00 -0.00000000000E+00 -0.66773916785E+03  0.66773916785E+03  0.00000000000E+00 0. -1.
         25    2    1    2    0    0 -0.39847249021E+02  0.15053440413E+02 -0.19651293903E+03  0.23676265456E+03  0.12499924026E+03 0.  0.
          2    1    1    2  501    0 -0.20400578794E+02 -0.66889414971E+02 -0.36229464306E+03  0.36898209420E+03  0.00000000000E+00 0. -1.
          1    1    1    2  502    0  0.60247827815E+02  0.51835974558E+02 -0.66984921751E+02  0.10394108310E+03  0.00000000000E+00 0. -1.
         22    1    3    3    0    0  0.21851326888E+02 -0.10262261222E+01 -0.16351231989E+03  0.16496912555E+03  0.00000000000E+00 0.  1.
         22    1    3    3    0    0 -0.61698575909E+02  0.16079666535E+02 -0.33000619136E+02  0.71793529015E+02  0.00000000000E+00 0.  1.
</event>
<event>
 7    1  0.6507405E-006  0.9502922E+02  0.7818608E-02  0.1311116E+00
          2   -1    0    0  502    0  0.00000000000E+00  0.00000000000E+00  0.25961168337E+04  0.25961168337E+04  0.00000000000E+00 0. -1.
          1   -1    0    0  501    0 -0.00000000000E+00 -0.00000000000E+00 -0.11557246818E+04  0.11557246818E+04  0.00000000000E+00 0. -1.
         25    2    1    2    0    0  0.15790787206E+03 -0.41812008587E+02  0.85129632649E+03  0.87579311518E+03  0.12500001997E+03 0.  0.
          2    1    1    2  501    0 -0.94721311106E+02 -0.56899571784E+01 -0.11406033462E+04  0.11445437937E+04  0.00000000000E+00 0. -1.
          1    1    1    2  502    0 -0.63186560955E+02  0.47501965766E+02  0.17296991717E+04  0.17315046066E+04  0.00000000000E+00 0. -1.
         22    1    3    3    0    0  0.13859449906E+03 -0.31795345084E+02  0.83866853337E+03  0.85063757736E+03  0.00000000000E+00 0.  1.
         22    1    3    3    0    0  0.19313373003E+02 -0.10016663504E+02  0.12627793110E+02  0.25155537826E+02  0.00000000000E+00 0.  1.
</event>
<event>
 7    1  0.6507405E-006  0.4354889E+02  0.7818608E-02  0.1532173E+00
          2   -1    0    0  502    0  0.00000000000E+00  0.00000000000E+00  0.40363862800E+03  0.40363862800E+03  0.00000000000E+00 0. -1.
          1   -1    0    0  501    0 -0.00000000000E+00 -0.00000000000E+00 -0.39546462517E+03  0.39546462517E+03  0.00000000000E+00 0. -1.
         25    2    1    2    0    0 -0.53922517926E+01  0.12795686712E+02  0.61616023654E+02  0.14005223369E+03  0.12500115125E+03 0.  0.
          2    1    1    2  501    0 -0.37735250926E+01  0.31073832619E+02 -0.35389361740E+03  0.35527526652E+03  0.00000000000E+00 0. -1.
          1    1    1    2  502    0  0.91657768852E+01 -0.43869519331E+02  0.30045159659E+03  0.30377575295E+03  0.00000000000E+00 0. -1.
         22    1    3    3    0    0 -0.16878530141E+02  0.12816869333E+02 -0.35993353809E+02  0.41769348064E+02  0.00000000000E+00 0. -1.
         22    1    3    3    0    0  0.11486278348E+02 -0.21182621162E-01  0.97609377464E+02  0.98282885630E+02  0.00000000000E+00 0. -1.
</event>
<event>
 7    1  0.6507405E-006  0.1962416E+03  0.7818608E-02  0.1297212E+00
          2   -1    0    0  502    0  0.00000000000E+00  0.00000000000E+00  0.16681771746E+04  0.16681771746E+04  0.00000000000E+00 0. -1.
          1   -1    0    0  501    0 -0.00000000000E+00 -0.00000000000E+00 -0.33465973293E+04  0.33465973293E+04  0.00000000000E+00 0. -1.
         25    2    1    2    0    0  0.13201913580E+03  0.19756953609E+03  0.50385338259E+02  0.27318333556E+03  0.12501071437E+03 0.  0.
          2    1    1    2  501    0 -0.11658475813E+03 -0.15692333264E+03 -0.32319304943E+04  0.32378374972E+04  0.00000000000E+00 0. -1.
          1    1    1    2  502    0 -0.15434377666E+02 -0.40646203453E+02  0.15031250014E+04  0.15037536712E+04  0.00000000000E+00 0. -1.
         22    1    3    3    0    0  0.35627241520E+02  0.54018647741E+02  0.74410006342E+02  0.98611174245E+02  0.00000000000E+00 0.  1.
         22    1    3    3    0    0  0.96391894279E+02  0.14355088835E+03 -0.24024668083E+02  0.17457216131E+03  0.00000000000E+00 0.  1.
</event>
<event>
 7    1  0.6507405E-006  0.1142642E+03  0.7818608E-02  0.1275309E+00
          2   -1    0    0  502    0  0.00000000000E+00  0.00000000000E+00  0.45602231462E+03  0.45602231462E+03  0.00000000000E+00 0. -1.
          1   -1    0    0  501    0 -0.00000000000E+00 -0.00000000000E+00 -0.37905140138E+03  0.37905140138E+03  0.00000000000E+00 0. -1.
         25    2    1    2    0    0  0.44677871171E+02 -0.72630519211E+02  0.99780008684E+00  0.15131742282E+03  0.12499864939E+03 0.  0.
          2    1    1    2  501    0  0.34875648979E+02  0.11840915868E+03 -0.28537811257E+03  0.31093038913E+03  0.00000000000E+00 0. -1.
          1    1    1    2  502    0 -0.79553520150E+02 -0.45778639473E+02  0.36135122572E+03  0.37282590405E+03  0.00000000000E+00 0. -1.
         22    1    3    3    0    0 -0.57499606473E+01 -0.41799426480E+02  0.56312166383E+02  0.70365575278E+02  0.00000000000E+00 0.  1.
         22    1    3    3    0    0  0.50427831818E+02 -0.30831092731E+02 -0.55314366296E+02  0.80951847537E+02  0.00000000000E+00 0.  1.
</event>
<event>
 7    1  0.6507405E-006  0.7863544E+02  0.7818608E-02  0.1348761E+00
          2   -1    0    0  502    0  0.00000000000E+00  0.00000000000E+00  0.92338263442E+03  0.92338263442E+03  0.00000000000E+00 0. -1.
          1   -1    0    0  501    0 -0.00000000000E+00 -0.00000000000E+00 -0.15869442519E+04  0.15869442519E+04  0.00000000000E+00 0. -1.
         25    2    1    2    0    0 -0.50737433268E+02  0.95680008298E+02 -0.10445556648E+04  0.10575679384E+04  0.12499782487E+03 0.  0.
          2    1    1    2  501    0  0.66036157057E+02 -0.18555967638E+02 -0.53199076563E+03  0.53639469861E+03  0.00000000000E+00 0. -1.
          1    1    1    2  502    0 -0.15298723789E+02 -0.77124040660E+02  0.91298481302E+03  0.91636424930E+03  0.00000000000E+00 0. -1.
         22    1    3    3    0    0 -0.77034842241E+02  0.17044045049E+02 -0.61916672967E+03  0.62417329766E+03  0.00000000000E+00 0. -1.
         22    1    3    3    0    0  0.26297408973E+02  0.78635963250E+02 -0.42538893515E+03  0.43339464070E+03  0.00000000000E+00 0. -1.
</event>
<event>
 7    1  0.6507405E-006  0.6729430E+02  0.7818608E-02  0.1419057E+00
          2   -1    0    0  502    0  0.00000000000E+00  0.00000000000E+00  0.18128837607E+03  0.18128837607E+03  0.00000000000E+00 0. -1.
          1   -1    0    0  501    0 -0.00000000000E+00 -0.00000000000E+00 -0.11369930551E+04  0.11369930551E+04  0.00000000000E+00 0. -1.
         25    2    1    2    0    0  0.81948938965E+02  0.21112418382E+02 -0.22683841204E+03  0.27247403826E+03  0.12500029416E+03 0.  0.
          2    1    1    2  501    0 -0.46012352290E+02 -0.48714616168E+02 -0.88280162450E+03  0.88534115380E+03  0.00000000000E+00 0. -1.
          1    1    1    2  502    0 -0.35936586676E+02  0.27602197786E+02  0.15393535754E+03  0.16046623908E+03  0.00000000000E+00 0. -1.
         22    1    3    3    0    0  0.48181522233E-01  0.57834870694E+02 -0.11790687236E+03  0.13132747290E+03  0.00000000000E+00 0.  1.
         22    1    3    3    0    0  0.81900757443E+02 -0.36722452313E+02 -0.10893153968E+03  0.14114656535E+03  0.00000000000E+00 0.  1.
</event>
<event>
 7    1  0.6507405E-006  0.9041023E+02  0.7818608E-02  0.1383847E+00
          2   -1    0    0  502    0  0.00000000000E+00  0.00000000000E+00  0.10597436420E+03  0.10597436420E+03  0.00000000000E+00 0. -1.
          1   -1    0    0  501    0 -0.00000000000E+00 -0.00000000000E+00 -0.21817727020E+04  0.21817727020E+04  0.00000000000E+00 0. -1.
         25    2    1    2    0    0 -0.45057585360E+02 -0.70264462737E+02 -0.99599003793E+03  0.10072677412E+04  0.12499946415E+03 0.  0.
          2    1    1    2  501    0  0.80277188057E+01  0.95029795889E+02 -0.11731668755E+04  0.11770367981E+04  0.00000000000E+00 0. -1.
          1    1    1    2  502    0  0.37029866554E+02 -0.24765333152E+02  0.93358575589E+02  0.10344252694E+03  0.00000000000E+00 0. -1.
         22    1    3    3    0    0  0.41728788748E+01 -0.12054246682E+02 -0.55721015771E+01  0.13919989122E+02  0.00000000000E+00 0.  1.
         22    1    3    3    0    0 -0.49230464235E+02 -0.58210216055E+02 -0.99041793636E+03  0.99334775206E+03  0.00000000000E+00 0.  1.
</event>
<event>
 7    1  0.6507405E-006  0.8029274E+02  0.7818608E-02  0.1330456E+00
          2   -1    0    0  502    0  0.00000000000E+00  0.00000000000E+00  0.85142511177E+03  0.85142511177E+03  0.00000000000E+00 0. -1.
          1   -1    0    0  501    0 -0.00000000000E+00 -0.00000000000E+00 -0.93535714960E+03  0.93535714960E+03  0.00000000000E+00 0. -1.
         25    2    1    2    0    0 -0.86270414681E+02 -0.30593562124E+02  0.26429556206E+03  0.30636098354E+03  0.12500543035E+03 0.  0.
          2    1    1    2  501    0  0.19551006625E+02  0.77876067852E+02 -0.90959353094E+03  0.91313050291E+03  0.00000000000E+00 0. -1.
          1    1    1    2  502    0  0.66719408056E+02 -0.47282505728E+02  0.56136593106E+03  0.56729077493E+03  0.00000000000E+00 0. -1.
         22    1    3    3    0    0 -0.38938789106E+02  0.16401284260E+02  0.99398697019E+01  0.43405442425E+02  0.00000000000E+00 0.  1.
         22    1    3    3    0    0 -0.47331625575E+02 -0.46994846384E+02  0.25435569236E+03  0.26295554111E+03  0.00000000000E+00 0.  1.
</event>
<event>
 7    1  0.6507405E-006  0.8643879E+02  0.7818608E-02  0.1351440E+00
          2   -1    0    0  502    0  0.00000000000E+00  0.00000000000E+00  0.21640593402E+04  0.21640593402E+04  0.00000000000E+00 0. -1.
          1   -1    0    0  501    0 -0.00000000000E+00 -0.00000000000E+00 -0.36828494759E+03  0.36828494759E+03  0.00000000000E+00 0. -1.
         25    2    1    2    0    0  0.10755775566E+03  0.44753573193E+02  0.72692356234E+02  0.18568970349E+03  0.12499973684E+03 0.  0.
          2    1    1    2  501    0 -0.51433612396E+02 -0.68629482755E+02 -0.30542142288E+03  0.31723440535E+03  0.00000000000E+00 0. -1.
          1    1    1    2  502    0 -0.56124143269E+02  0.23875909562E+02  0.20285034592E+04  0.20294201789E+04  0.00000000000E+00 0. -1.
         22    1    3    3    0    0  0.58071314917E+02  0.45555515948E+02  0.10370111720E+03  0.12728513015E+03  0.00000000000E+00 0. -1.
         22    1    3    3    0    0  0.49486440747E+02 -0.80194275493E+00 -0.31008760968E+02  0.58404573338E+02  0.00000000000E+00 0. -1.
</event>
<event>
 7    1  0.6507405E-006  0.1174967E+03  0.7818608E-02  0.1303066E+00
          2   -1    0    0  502    0  0.00000000000E+00  0.00000000000E+00  0.19236908198E+04  0.19236908198E+04  0.00000000000E+00 0. -1.
          1   -1    0    0  501    0 -0.00000000000E+00 -0.00000000000E+00 -0.17958225660E+03  0.17958225660E+03  0.00000000000E+00 0. -1.
         25    2    1    2    0    0  0.53500116400E+02  0.16022644229E+03  0.34548212602E+03  0.40437404436E+03  0.12500277233E+03 0.  0.
          2    1    1    2  501    0 -0.17535258871E+01 -0.11488174862E+03 -0.12726550676E+03  0.17145670074E+03  0.00000000000E+00 0. -1.
          1    1    1    2  502    0 -0.51746590513E+02 -0.45344693672E+02  0.15258919440E+04  0.15274423313E+04  0.00000000000E+00 0. -1.
         22    1    3    3    0    0  0.57428211148E+02  0.35892694216E+02  0.20904460953E+03  0.21974060551E+03  0.00000000000E+00 0.  1.
         22    1    3    3    0    0 -0.39280947479E+01  0.12433374807E+03  0.13643751648E+03  0.18463343885E+03  0.00000000000E+00 0.  1.
</event>
<event>
 7    1  0.6507405E-006  0.4452091E+02  0.7818608E-02  0.1480811E+00
          2   -1    0    0  502    0  0.00000000000E+00  0.00000000000E+00  0.12926190830E+04  0.12926190830E+04  0.00000000000E+00 0. -1.
          1   -1    0    0  501    0 -0.00000000000E+00 -0.00000000000E+00 -0.39504802686E+03  0.39504802686E+03  0.00000000000E+00 0. -1.
         25    2    1    2    0    0 -0.27091452689E+01 -0.97787656947E+00  0.63996985672E+03  0.65207264853E+03  0.12501610189E+03 0.  0.
          2    1    1    2  501    0  0.43738752272E+01  0.44391789959E+02 -0.38698419889E+03  0.38954657230E+03  0.00000000000E+00 0. -1.
          1    1    1    2  502    0 -0.16647299583E+01 -0.43413913389E+02  0.64458539834E+03  0.64604788906E+03  0.00000000000E+00 0. -1.
         22    1    3    3    0    0 -0.60521864501E+02  0.17804315646E+02  0.28121679045E+03  0.28820612931E+03  0.00000000000E+00 0. -1.
         22    1    3    3    0    0  0.57812719232E+02 -0.18782192216E+02  0.35875306627E+03  0.36386651922E+03  0.00000000000E+00 0. -1.
</event>
<event>
 7    1  0.6507405E-006  0.8146753E+02  0.7818608E-02  0.1448372E+00
          2   -1    0    0  502    0  0.00000000000E+00  0.00000000000E+00  0.14073921024E+04  0.14073921024E+04  0.00000000000E+00 0. -1.
          1   -1    0    0  501    0 -0.00000000000E+00 -0.00000000000E+00 -0.22719169665E+03  0.22719169665E+03  0.00000000000E+00 0. -1.
         25    2    1    2    0    0 -0.47078014562E+02 -0.53864600268E+02  0.38154937040E+03  0.40782645305E+03  0.12499903654E+03 0.  0.
          2    1    1    2  501    0  0.17830836319E+02 -0.24134113458E+02 -0.21127823000E+03  0.21339841759E+03  0.00000000000E+00 0. -1.
          1    1    1    2  502    0  0.29247178243E+02  0.77998713725E+02  0.10099292653E+04  0.10133589284E+04  0.00000000000E+00 0. -1.
         22    1    3    3    0    0  0.11536472911E+02  0.50150843486E+00  0.27180573175E+03  0.27205090981E+03  0.00000000000E+00 0.  1.
         22    1    3    3    0    0 -0.58614487473E+02 -0.54366108702E+02  0.10974363866E+03  0.13577554324E+03  0.00000000000E+00 0.  1.
</event>
<event>
 7    1  0.6507405E-006  0.5193589E+02  0.7818608E-02  0.1507585E+00
          2   -1    0    0  502    0  0.00000000000E+00  0.00000000000E+00  0.20637613972E+04  0.20637613972E+04  0.00000000000E+00 0. -1.
          1   -1    0    0  501    0 -0.00000000000E+00 -0.00000000000E+00 -0.39168606656E+03  0.39168606656E+03  0.00000000000E+00 0. -1.
         25    2    1    2    0    0  0.56348560340E+02  0.44805003243E+02  0.25003036823E+03  0.28865658327E+03  0.12499915784E+03 0.  0.
          2    1    1    2  501    0 -0.49744304928E+02 -0.14579411011E+02 -0.37043481152E+03  0.37404412131E+03  0.00000000000E+00 0. -1.
          1    1    1    2  502    0 -0.66042554123E+01 -0.30225592232E+02  0.17924797739E+04  0.17927467592E+04  0.00000000000E+00 0. -1.
         22    1    3    3    0    0  0.81428781727E+02  0.85128423728E+01  0.22143109671E+03  0.23608228559E+03  0.00000000000E+00 0. -1.
         22    1    3    3    0    0 -0.25080221387E+02  0.36292160871E+02  0.28599271524E+02  0.52574297686E+02  0.00000000000E+00 0. -1.
</event>
<event>
 7    1  0.6507405E-006  0.7044467E+02  0.7818608E-02  0.1390549E+00
          2   -1    0    0  502    0  0.00000000000E+00  0.00000000000E+00  0.30889201034E+04  0.30889201034E+04  0.00000000000E+00 0. -1.
          1   -1    0    0  501    0 -0.00000000000E+00 -0.00000000000E+00 -0.14005423274E+03  0.14005423274E+03  0.00000000000E+00 0. -1.
         25    2    1    2    0    0 -0.44665789841E+02 -0.18236312151E+02  0.56949405909E+03  0.58504401439E+03  0.12500167827E+03 0.  0.
          2    1    1    2  501    0  0.22218492080E+02  0.67530302634E+02 -0.12241313865E+03  0.14155910313E+03  0.00000000000E+00 0. -1.
          1    1    1    2  502    0  0.22447297761E+02 -0.49293990484E+02  0.25017849502E+04  0.25023712186E+04  0.00000000000E+00 0. -1.
         22    1    3    3    0    0 -0.10260440762E+02  0.46735485761E+02  0.35697647888E+03  0.36016897249E+03  0.00000000000E+00 0.  1.
         22    1    3    3    0    0 -0.34405349079E+02 -0.64971797912E+02  0.21251758021E+03  0.22487504190E+03  0.00000000000E+00 0.  1.
</event>
<event>
 7    1  0.6507405E-006  0.6641520E+02  0.7818608E-02  0.1502566E+00
          2   -1    0    0  502    0  0.00000000000E+00  0.00000000000E+00  0.13986706887E+04  0.13986706887E+04  0.00000000000E+00 0. -1.
          1   -1    0    0  501    0 -0.00000000000E+00 -0.00000000000E+00 -0.64583915820E+03  0.64583915820E+03  0.00000000000E+00 0. -1.
         25    2    1    2    0    0  0.79745334922E+02  0.66186793166E+01 -0.11321589077E+02  0.14881639554E+03  0.12496005699E+03 0.  0.
          2    1    1    2  501    0 -0.64744493854E+02  0.13426535107E+02 -0.56371982483E+03  0.56758449788E+03  0.00000000000E+00 0. -1.
          1    1    1    2  502    0 -0.15000841067E+02 -0.20045214424E+02  0.13278729444E+04  0.13281089535E+04  0.00000000000E+00 0. -1.
         22    1    3    3    0    0 -0.29424082334E+02  0.23646470950E+02 -0.57788982798E+01  0.38188059323E+02  0.00000000000E+00 0.  1.
         22    1    3    3    0    0  0.10916941726E+03 -0.17027791633E+02 -0.55426907971E+01  0.11062833621E+03  0.00000000000E+00 0.  1.
</event>
<event>
 7    1  0.6507405E-006  0.5915375E+02  0.7818608E-02  0.1432474E+00
          2   -1    0    0  502    0  0.00000000000E+00  0.00000000000E+00  0.14027958510E+04  0.14027958510E+04  0.00000000000E+00 0. -1.
          1   -1    0    0  501    0 -0.00000000000E+00 -0.00000000000E+00 -0.54715684700E+03  0.54715684700E+03  0.00000000000E+00 0. -1.
         25    2    1    2    0    0 -0.66716407629E+02  0.49227374804E+02  0.36741952794E+03  0.39685965508E+03  0.12500425129E+03 0.  0.
          2    1    1    2  501    0  0.46201132912E+02  0.55690349860E+01 -0.53057896606E+03  0.53261580718E+03  0.00000000000E+00 0. -1.
          1    1    1    2  502    0  0.20515274717E+02 -0.54796409790E+02  0.10187984421E+04  0.10204772358E+04  0.00000000000E+00 0. -1.
         22    1    3    3    0    0 -0.54974557771E+02 -0.28394587213E+02  0.23414193191E+03  0.24217947656E+03  0.00000000000E+00 0. -1.
         22    1    3    3    0    0 -0.11741849858E+02  0.77621962017E+02  0.13327759603E+03  0.15468017853E+03  0.00000000000E+00 0. -1.
</event>
<event>
 7    1  0.6507405E-006  0.4564547E+02  0.7818608E-02  0.1563350E+00
          2   -1    0    0  502    0  0.00000000000E+00  0.00000000000E+00  0.73721259298E+03  0.73721259298E+03  0.00000000000E+00 0. -1.
          1   -1    0    0  501    0 -0.00000000000E+00 -0.00000000000E+00 -0.33999142905E+03  0.33999142905E+03  0.00000000000E+00 0. -1.
         25    2    1    2    0    0  0.41824504735E+02  0.27634706592E+02 -0.56400607731E+02  0.14600956306E+03  0.12499919099E+03 0.  0.
          2    1    1    2  501    0 -0.45586266513E+02 -0.34962330417E+01 -0.23637969539E+03  0.24076065238E+03  0.00000000000E+00 0. -1.
          1    1    1    2  502    0  0.37617617785E+01 -0.24138473551E+02  0.69000146704E+03  0.69043380659E+03  0.00000000000E+00 0. -1.
         22    1    3    3    0    0 -0.22658384021E+02  0.58438805844E+02 -0.32860897406E+02  0.70769590738E+02  0.00000000000E+00 0.  1.
         22    1    3    3    0    0  0.64482888756E+02 -0.30804099251E+02 -0.23539710325E+02  0.75239972323E+02  0.00000000000E+00 0.  1.
</event>
<event>
 7    1  0.6507405E-006  0.7476398E+02  0.7818608E-02  0.1480576E+00
          2   -1    0    0  502    0  0.00000000000E+00  0.00000000000E+00  0.59389682480E+03  0.59389682480E+03  0.00000000000E+00 0. -1.
          1   -1    0    0  501    0 -0.00000000000E+00 -0.00000000000E+00 -0.80199096617E+02  0.80199096617E+02  0.00000000000E+00 0. -1.
         25    2    1    2    0    0 -0.59986002234E+02  0.86216611900E+01  0.24967341878E+03  0.28571686075E+03  0.12499861987E+03 0.  0.
          2    1    1    2  501    0  0.68721381944E+02 -0.33019293261E+02 -0.38039918835E+02  0.85205266790E+02  0.00000000000E+00 0. -1.
          1    1    1    2  502    0 -0.87353797102E+01  0.24397632071E+02  0.30206422824E+03  0.30317379387E+03  0.00000000000E+00 0. -1.
         22    1    3    3    0    0 -0.98607169596E+02  0.12834003654E+02  0.19122748071E+03  0.21553662084E+03  0.00000000000E+00 0. -1.
         22    1    3    3    0    0  0.38621167362E+02 -0.42123424640E+01  0.58445938069E+02  0.70180239912E+02  0.00000000000E+00 0. -1.
</event>
<event>
 7    1  0.6507405E-006  0.8273940E+02  0.7818608E-02  0.1431824E+00
          2   -1    0    0  502    0  0.00000000000E+00  0.00000000000E+00  0.10696974781E+03  0.10696974781E+03  0.00000000000E+00 0. -1.
          1   -1    0    0  501    0 -0.00000000000E+00 -0.00000000000E+00 -0.49946841061E+03  0.49946841061E+03  0.00000000000E+00 0. -1.
         25    2    1    2    0    0  0.27964716850E+02 -0.60313941679E+02 -0.17966083811E+03  0.22874294638E+03  0.12500208727E+03 0.  0.
          2    1    1    2  501    0 -0.22761834416E+02 -0.24489269618E+02 -0.27207439303E+03  0.27412096012E+03  0.00000000000E+00 0. -1.
          1    1    1    2  502    0 -0.52028824336E+01  0.84803211297E+02  0.59236568344E+02  0.10357425192E+03  0.00000000000E+00 0. -1.
         22    1    3    3    0    0 -0.39109173133E+02 -0.49497944707E+02 -0.13028990314E+03  0.14475853279E+03  0.00000000000E+00 0. -1.
         22    1    3    3    0    0  0.67073889983E+02 -0.10815996971E+02 -0.49370934962E+02  0.83984413595E+02  0.00000000000E+00 0. -1.
</event>
<event>
 7    1  0.6507405E-006  0.3333716E+03  0.7818608E-02  0.1193343E+00
          2   -1    0    0  502    0  0.00000000000E+00  0.00000000000E+00  0.80109625956E+03  0.80109625956E+03  0.00000000000E+00 0. -1.
          1   -1    0    0  501    0 -0.00000000000E+00 -0.00000000000E+00 -0.13386073892E+04  0.13386073892E+04  0.00000000000E+00 0. -1.
         25    2    1    2    0    0  0.20596805608E+03  0.32810432897E+03 -0.42974497658E+03  0.59192983035E+03  0.12499955339E+03 0.  0.
          2    1    1    2  501    0 -0.66789088008E+02 -0.29355347492E+02 -0.78828144985E+03  0.79165027814E+03  0.00000000000E+00 0. -1.
          1    1    1    2  502    0 -0.13917896808E+03 -0.29874898148E+03  0.68051529676E+03  0.75612354031E+03  0.00000000000E+00 0. -1.
         22    1    3    3    0    0  0.12275021494E+03  0.83875589944E+02 -0.16945254196E+03  0.22542602741E+03  0.00000000000E+00 0.  1.
         22    1    3    3    0    0  0.83217841141E+02  0.24422873903E+03 -0.26029243462E+03  0.36650380295E+03  0.00000000000E+00 0.  1.
</event>
<event>
 7    1  0.6507405E-006  0.8033754E+02  0.7818608E-02  0.1473121E+00
          2   -1    0    0  502    0  0.00000000000E+00  0.00000000000E+00  0.32759612286E+04  0.32759612286E+04  0.00000000000E+00 0. -1.
          1   -1    0    0  501    0 -0.00000000000E+00 -0.00000000000E+00 -0.28336811498E+02  0.28336811498E+02  0.00000000000E+00 0. -1.
         25    2    1    2    0    0 -0.36081495098E+02 -0.42879474461E+02  0.28819000835E+03  0.31909324875E+03  0.12500598732E+03 0.  0.
          2    1    1    2  501    0 -0.19413230685E+02 -0.16420289936E+02  0.78251763467E+00  0.25438391873E+02  0.00000000000E+00 0. -1.
          1    1    1    2  502    0  0.55494725783E+02  0.59299764397E+02  0.29586518911E+04  0.29597663995E+04  0.00000000000E+00 0. -1.
         22    1    3    3    0    0 -0.21774245361E+02 -0.22431144684E+02  0.14771296231E+01  0.31296260556E+02  0.00000000000E+00 0.  1.
         22    1    3    3    0    0 -0.14307249737E+02 -0.20448329777E+02  0.28671287873E+03  0.28779698820E+03  0.00000000000E+00 0.  1.
</event>
<event>
 7    1  0.6507405E-006  0.1155084E+03  0.7818608E-02  0.1274266E+00
          2   -1    0    0  502    0  0.00000000000E+00  0.00000000000E+00  0.14555991120E+04  0.14555991120E+04  0.00000000000E+00 0. -1.
          1   -1    0    0  501    0 -0.00000000000E+00 -0.00000000000E+00 -0.22314554876E+03  0.22314554876E+03  0.00000000000E+00 0. -1.
         25    2    1    2    0    0 -0.67071027853E+02  0.23094121383E+02  0.62100606791E+03  0.63742056262E+03  0.12499830421E+03 0.  0.
          2    1    1    2  501    0 -0.91243542010E+02 -0.92351036177E+01 -0.19705507547E+03  0.21735080829E+03  0.00000000000E+00 0. -1.
          1    1    1    2  502    0  0.15831456986E+03 -0.13859017765E+02  0.80850257081E+03  0.82397328986E+03  0.00000000000E+00 0. -1.
         22    1    3    3    0    0 -0.73462710413E+02 -0.10102384934E+02  0.17405677726E+03  0.18919458161E+03  0.00000000000E+00 0. -1.
         22    1    3    3    0    0  0.63916825601E+01  0.33196506316E+02  0.44694929065E+03  0.44822598101E+03  0.00000000000E+00 0. -1.
</event>
<event>
 7    1  0.6507405E-006  0.5992629E+02  0.7818608E-02  0.1416825E+00
          2   -1    0    0  502    0  0.00000000000E+00  0.00000000000E+00  0.59720756932E+03  0.59720756932E+03  0.00000000000E+00 0. -1.
          1   -1    0    0  501    0 -0.00000000000E+00 -0.00000000000E+00 -0.21890215257E+04  0.21890215257E+04  0.00000000000E+00 0. -1.
         25    2    1    2    0    0  0.17472308782E+02 -0.21619858498E+02  0.44946956968E+02  0.13570848495E+03  0.12499545629E+03 0.  0.
          2    1    1    2  501    0  0.44038185391E+02  0.27214805465E+02 -0.21414452389E+04  0.21420708949E+04  0.00000000000E+00 0. -1.
          1    1    1    2  502    0 -0.61510494173E+02 -0.55949469662E+01  0.50468432561E+03  0.50844971515E+03  0.00000000000E+00 0. -1.
         22    1    3    3    0    0 -0.50316626097E+02 -0.16669565513E+02  0.42080381486E+02  0.67678621308E+02  0.00000000000E+00 0. -1.
         22    1    3    3    0    0  0.67788934879E+02 -0.49502929859E+01  0.28665754821E+01  0.68029863646E+02  0.00000000000E+00 0. -1.
</event>
<event>
 7    1  0.6507405E-006  0.8455471E+02  0.7818608E-02  0.1482326E+00
          2   -1    0    0  502    0  0.00000000000E+00  0.00000000000E+00  0.42661985979E+03  0.42661985979E+03  0.00000000000E+00 0. -1.
          1   -1    0    0  501    0 -0.00000000000E+00 -0.00000000000E+00 -0.28261148103E+03  0.28261148103E+03  0.00000000000E+00 0. -1.
         25    2    1    2    0    0 -0.30032049578E+02 -0.65630672541E+02 -0.20740898198E+03  0.25269175053E+03  0.12500130320E+03 0.  0.
          2    1    1    2  501    0 -0.22615148434E+02 -0.89283068940E+00 -0.45414044692E+02  0.50741280440E+02  0.00000000000E+00 0. -1.
          1    1    1    2  502    0  0.52647198013E+02  0.66523503231E+02  0.39683140543E+03  0.40579830985E+03  0.00000000000E+00 0. -1.
         22    1    3    3    0    0 -0.10718463795E+02  0.31377609072E+01 -0.17308286339E+03  0.17344281078E+03  0.00000000000E+00 0.  1.
         22    1    3    3    0    0 -0.19313585784E+02 -0.68768433449E+02 -0.34326118580E+02  0.79248939751E+02  0.00000000000E+00 0.  1.
</event>
<event>
 7    1  0.6763181E-006  0.8386230E+02  0.7818608E-02  0.1327678E+00
          2   -1    0    0  502    0  0.00000000000E+00  0.00000000000E+00  0.28444225677E+04  0.28444225677E+04  0.00000000000E+00 0. -1.
          1   -1    0    0  501    0 -0.00000000000E+00 -0.00000000000E+00 -0.51089825311E+03  0.51089825311E+03  0.00000000000E+00 0. -1.
         25    2    1    2    0    0 -0.29639244561E+02  0.48704036579E+02 -0.14859663995E+03  0.20237397559E+03  0.12499478626E+03 0.  0.
          2    1    1    2  501    0  0.73792248769E+02  0.22837678829E+02 -0.33032909489E+03  0.33924057317E+03  0.00000000000E+00 0. -1.
          1    1    1    2  502    0 -0.44153004208E+02 -0.71541715409E+02  0.28124500494E+04  0.28137062720E+04  0.00000000000E+00 0. -1.
         22    1    3    3    0    0 -0.41819577640E+02  0.10670007457E+01  0.40260130838E+01  0.42026471966E+02  0.00000000000E+00 0.  1.
         22    1    3    3    0    0  0.12180333079E+02  0.47637035833E+02 -0.15262265304E+03  0.16034750362E+03  0.00000000000E+00 0.  1.
</event>
<event>
 7    1  0.6507405E-006  0.1010159E+03  0.7818608E-02  0.1339360E+00
          2   -1    0    0  502    0  0.00000000000E+00  0.00000000000E+00  0.70554872364E+03  0.70554872364E+03  0.00000000000E+00 0. -1.
          1   -1    0    0  501    0 -0.00000000000E+00 -0.00000000000E+00 -0.34999008651E+03  0.34999008651E+03  0.00000000000E+00 0. -1.
         25    2    1    2    0    0  0.15202160453E+03 -0.77595242463E+01  0.20795968202E+03  0.28643041938E+03  0.12499750933E+03 0.  0.
          2    1    1    2  501    0 -0.96479654371E+02  0.24107648333E+02 -0.30088988245E+03  0.31689781283E+03  0.00000000000E+00 0. -1.
          1    1    1    2  502    0 -0.55541950159E+02 -0.16348124087E+02  0.44848883755E+03  0.45221057793E+03  0.00000000000E+00 0. -1.
         22    1    3    3    0    0  0.15973557058E+03 -0.31976652166E+02  0.14332921131E+03  0.21698207670E+03  0.00000000000E+00 0.  1.
         22    1    3    3    0    0 -0.77139660534E+01  0.24217127920E+02  0.64630470714E+02  0.69448342684E+02  0.00000000000E+00 0.  1.
</event>
<event>
 7    1  0.6507405E-006  0.6045998E+02  0.7818608E-02  0.1481710E+00
          2   -1    0    0  502    0  0.00000000000E+00  0.00000000000E+00  0.67246409375E+02  0.67246409375E+02  0.00000000000E+00 0. -1.
          1   -1    0    0  501    0 -0.00000000000E+00 -0.00000000000E+00 -0.14087575748E+04  0.14087575748E+04  0.00000000000E+00 0. -1.
         25    2    1    2    0    0  0.16793843382E+02  0.48706053904E+02 -0.93766081268E+02  0.16452898554E+03  0.12499358474E+03 0.  0.
          2    1    1    2  501    0 -0.28367429875E+02  0.14349077385E+02 -0.12469565029E+04  0.12473616666E+04  0.00000000000E+00 0. -1.
          1    1    1    2  502    0  0.11573586493E+02 -0.63055131289E+02 -0.78858124379E+00  0.64113332050E+02  0.00000000000E+00 0. -1.
         22    1    3    3    0    0  0.45000189299E+02 -0.18442950768E+02 -0.38056736764E+01  0.48781580767E+02  0.00000000000E+00 0.  1.
         22    1    3    3    0    0 -0.28206345917E+02  0.67149004671E+02 -0.89960407591E+02  0.11574740478E+03  0.00000000000E+00 0.  1.
</event>
<event>
 7    1  0.6507405E-006  0.7031616E+02  0.7818608E-02  0.1427325E+00
          2   -1    0    0  502    0  0.00000000000E+00  0.00000000000E+00  0.10795689425E+04  0.10795689425E+04  0.00000000000E+00 0. -1.
          1   -1    0    0  501    0 -0.00000000000E+00 -0.00000000000E+00 -0.10229146653E+03  0.10229146653E+03  0.00000000000E+00 0. -1.
         25    2    1    2    0    0 -0.99178031127E+01 -0.38951741689E+02  0.27964322414E+03  0.30893319912E+03  0.12499515073E+03 0.  0.
          2    1    1    2  501    0  0.47753980088E+02  0.53966303538E+02 -0.72205528480E+02  0.10201197417E+03  0.00000000000E+00 0. -1.
          1    1    1    2  502    0 -0.37836176975E+02 -0.15014561849E+02  0.76983978028E+03  0.77091523572E+03  0.00000000000E+00 0. -1.
         22    1    3    3    0    0 -0.37411404962E+02 -0.74977597653E+02  0.15326479633E+03  0.17467498723E+03  0.00000000000E+00 0. -1.
         22    1    3    3    0    0  0.27493601850E+02  0.36025855964E+02  0.12637842782E+03  0.13425821188E+03  0.00000000000E+00 0. -1.
</event>
<event>
 7    1  0.6507405E-006  0.1115322E+03  0.7818608E-02  0.1456278E+00
          2   -1    0    0  502    0  0.00000000000E+00  0.00000000000E+00  0.13740701479E+04  0.13740701479E+04  0.00000000000E+00 0. -1.
          1   -1    0    0  501    0 -0.00000000000E+00 -0.00000000000E+00 -0.12925651466E+04  0.12925651466E+04  0.00000000000E+00 0. -1.
         25    2    1    2    0    0 -0.41520100519E+02 -0.11662001470E+03  0.55287393457E+01  0.17602337615E+03  0.12501806037E+03 0.  0.
          2    1    1    2  501    0  0.19210246743E+02  0.76617360245E+01 -0.12048191698E+04  0.12049966671E+04  0.00000000000E+00 0. -1.
          1    1    1    2  502    0  0.22309853776E+02  0.10895827867E+03  0.12807954317E+04  0.12856152512E+04  0.00000000000E+00 0. -1.
         22    1    3    3    0    0 -0.72696707209E+02 -0.29001285964E+02 -0.17530244606E+02  0.80207202311E+02  0.00000000000E+00 0.  1.
         22    1    3    3    0    0  0.31176606689E+02 -0.87618728731E+02  0.23058983952E+02  0.95816173844E+02  0.00000000000E+00 0.  1.
</event>
<event>
 7    1  0.6507405E-006  0.4423565E+02  0.7818608E-02  0.1583577E+00
          2   -1    0    0  502    0  0.00000000000E+00  0.00000000000E+00  0.17977647888E+04  0.17977647888E+04  0.00000000000E+00 0. -1.
          1   -1    0    0  501    0 -0.00000000000E+00 -0.00000000000E+00 -0.18277549885E+02  0.18277549885E+02  0.00000000000E+00 0. -1.
         25    2    1    2    0    0 -0.22888736899E+02 -0.30720445292E+02  0.82119185767E+03  0.83153395339E+03  0.12500003398E+03 0.  0.
          2    1    1    2  501    0  0.17079181937E+02 -0.14221416867E+02 -0.27507192447E+01  0.22394499541E+02  0.00000000000E+00 0. -1.
          1    1    1    2  502    0  0.58095549623E+01  0.44941862159E+02  0.96104610050E+03  0.96211388577E+03  0.00000000000E+00 0. -1.
         22    1    3    3    0    0 -0.50612775709E+02 -0.42699599848E+02  0.22409713986E+03  0.23367592299E+03  0.00000000000E+00 0. -1.
         22    1    3    3    0    0  0.27724038810E+02  0.11979154555E+02  0.59709471781E+03  0.59785803039E+03  0.00000000000E+00 0. -1.
</event>
<event>
 7    1  0.6507405E-006  0.1351528E+03  0.7818608E-02  0.1251011E+00
          2   -1    0    0  502    0  0.00000000000E+00  0.00000000000E+00  0.75834488099E+02  0.75834488099E+02  0.00000000000E+00 0. -1.
          1   -1    0    0  501    0 -0.00000000000E+00 -0.00000000000E+00 -0.27533047298E+04  0.27533047298E+04  0.00000000000E+00 0. -1.
         25    2    1    2    0    0 -0.19621361701E+02  0.20805222146E+03 -0.11244822304E+04  0.11505459461E+04  0.12499985128E+03 0.  0.
          2    1    1    2  501    0  0.55071159213E+02 -0.81557436656E+02 -0.15437684478E+04  0.15469018936E+04  0.00000000000E+00 0. -1.
          1    1    1    2  502    0 -0.35449797513E+02 -0.12649478480E+03 -0.92195634139E+01  0.13169137814E+03  0.00000000000E+00 0. -1.
         22    1    3    3    0    0  0.28833920405E+02  0.18447920570E+03 -0.93951570862E+03  0.95789025417E+03  0.00000000000E+00 0.  1.
         22    1    3    3    0    0 -0.48455282106E+02  0.23573015761E+02 -0.18496652181E+03  0.19265569192E+03  0.00000000000E+00 0.  1.
</event>
<event>
 7    1  0.6507405E-006  0.6313437E+02  0.7818608E-02  0.1425525E+00
          2   -1    0    0  502    0  0.00000000000E+00  0.00000000000E+00  0.15539800626E+04  0.15539800626E+04  0.00000000000E+00 0. -1.
          1   -1    0    0  501    0 -0.00000000000E+00 -0.00000000000E+00 -0.36491038487E+03  0.36491038487E+03  0.00000000000E+00 0. -1.
         25    2    1    2    0    0 -0.81058694780E+02 -0.17631783859E+02 -0.19454219803E+03  0.24566741546E+03  0.12499768159E+03 0.  0.
          2    1    1    2  501    0  0.36874405655E+02 -0.27438773220E+02 -0.14048857814E+03  0.14781626655E+03  0.00000000000E+00 0. -1.
          1    1    1    2  502    0  0.44184289125E+02  0.45070557079E+02  0.15241004539E+04  0.15254067655E+04  0.00000000000E+00 0. -1.
         22    1    3    3    0    0 -0.80445718086E+02  0.31276508867E+02 -0.67617176733E+02  0.10964404295E+03  0.00000000000E+00 0.  1.
         22    1    3    3    0    0 -0.61297669424E+00 -0.48908292727E+02 -0.12692502129E+03  0.13602337251E+03  0.00000000000E+00 0.  1.
</event>
<event>
 7    1  0.6507405E-006  0.4021019E+02  0.7818608E-02  0.1583689E+00
          2   -1    0    0  502    0  0.00000000000E+00  0.00000000000E+00  0.36847767136E+03  0.36847767136E+03  0.00000000000E+00 0. -1.
          1   -1    0    0  501    0 -0.00000000000E+00 -0.00000000000E+00 -0.18559985514E+03  0.18559985514E+03  0.00000000000E+00 0. -1.
         25    2    1    2    0    0  0.58059313195E+02 -0.51286765712E+01 -0.95678737900E+02  0.16785933670E+03  0.12500059543E+03 0.  0.
          2    1    1    2  501    0 -0.21579805882E+02 -0.11457886553E+02 -0.49775955827E+02  0.55449228711E+02  0.00000000000E+00 0. -1.
          1    1    1    2  502    0 -0.36479507313E+02  0.16586563124E+02  0.32833250995E+03  0.33076896109E+03  0.00000000000E+00 0. -1.
         22    1    3    3    0    0  0.95795851209E+02 -0.18069332727E+02 -0.74495471583E+02  0.12269034673E+03  0.00000000000E+00 0.  1.
         22    1    3    3    0    0 -0.37736538013E+02  0.12940656156E+02 -0.21183266318E+02  0.45168989969E+02  0.00000000000E+00 0.  1.
</event>
<event>
 7    1  0.6507405E-006  0.1507846E+03  0.7818608E-02  0.1386904E+00
          2   -1    0    0  502    0  0.00000000000E+00  0.00000000000E+00  0.60481003040E+03  0.60481003040E+03  0.00000000000E+00 0. -1.
          1   -1    0    0  501    0 -0.00000000000E+00 -0.00000000000E+00 -0.88558371061E+03  0.88558371061E+03  0.00000000000E+00 0. -1.
         25    2    1    2    0    0  0.16426612649E+03  0.64429393252E+02 -0.62512076442E+03  0.66146355203E+03  0.12499421393E+03 0.  0.
          2    1    1    2  501    0 -0.24472255598E+02 -0.89524862790E+01 -0.23191016624E+03  0.23336958565E+03  0.00000000000E+00 0. -1.
          1    1    1    2  502    0 -0.13979387090E+03 -0.55476906973E+02  0.57625725045E+03  0.59556060333E+03  0.00000000000E+00 0. -1.
         22    1    3    3    0    0  0.19458428587E+02  0.35955526444E+02 -0.37104830513E+02  0.55210495128E+02  0.00000000000E+00 0. -1.
         22    1    3    3    0    0  0.14480769791E+03  0.28473866808E+02 -0.58801593391E+03  0.60625305690E+03  0.00000000000E+00 0. -1.
</event>
<event>
 7    1  0.6507405E-006  0.6212537E+02  0.7818608E-02  0.1506608E+00
          2   -1    0    0  502    0  0.00000000000E+00  0.00000000000E+00  0.20974451895E+04  0.20974451895E+04  0.00000000000E+00 0. -1.
          1   -1    0    0  501    0 -0.00000000000E+00 -0.00000000000E+00 -0.56147805062E+03  0.56147805062E+03  0.00000000000E+00 0. -1.
         25    2    1    2    0    0  0.63576518022E+02  0.58145355422E+02  0.19109178571E+03  0.24405462098E+03  0.12499492572E+03 0.  0.
          2    1    1    2  501    0 -0.39859397692E+02 -0.47402217775E+02 -0.53311367589E+03  0.53669910867E+03  0.00000000000E+00 0. -1.
          1    1    1    2  502    0 -0.23717120330E+02 -0.10743137647E+02  0.18779890290E+04  0.18781695104E+04  0.00000000000E+00 0. -1.
         22    1    3    3    0    0  0.51347827482E+02  0.95529969478E+02  0.11305472838E+03  0.15666507609E+03  0.00000000000E+00 0.  1.
         22    1    3    3    0    0  0.12228690540E+02 -0.37384614056E+02  0.78037057326E+02  0.87389544892E+02  0.00000000000E+00 0.  1.
</event>
<event>
 7    1  0.6507405E-006  0.6230893E+02  0.7818608E-02  0.1410203E+00
          2   -1    0    0  502    0  0.00000000000E+00  0.00000000000E+00  0.17507282154E+04  0.17507282154E+04  0.00000000000E+00 0. -1.
          1   -1    0    0  501    0 -0.00000000000E+00 -0.00000000000E+00 -0.24532632246E+03  0.24532632246E+03  0.00000000000E+00 0. -1.
         25    2    1    2    0    0  0.87993344795E+02  0.73119610812E+02  0.91367070710E+03  0.92925230782E+03  0.12500553733E+03 0.  0.
          2    1    1    2  501    0 -0.49130787253E+02 -0.37947099636E+02 -0.23263286842E+03  0.24077347880E+03  0.00000000000E+00 0. -1.
          1    1    1    2  502    0 -0.38862557542E+02 -0.35172511176E+02  0.82436405426E+03  0.82602875124E+03  0.00000000000E+00 0. -1.
         22    1    3    3    0    0  0.76991944102E+02  0.43245046682E+02  0.87370654399E+03  0.87815774125E+03  0.00000000000E+00 0.  1.
         22    1    3    3    0    0  0.11001400693E+02  0.29874564131E+02  0.39964163113E+02  0.51094566565E+02  0.00000000000E+00 0.  1.
</event>
<event>
 7    1  0.6507405E-006  0.6044013E+02  0.7818608E-02  0.1467592E+00
          2   -1    0    0  502    0  0.00000000000E+00  0.00000000000E+00  0.22455758544E+02  0.22455758544E+02  0.00000000000E+00 0. -1.
          1   -1    0    0  501    0 -0.00000000000E+00 -0.00000000000E+00 -0.19959296279E+04  0.19959296279E+04  0.00000000000E+00 0. -1.
         25    2    1    2    0    0  0.23139653282E+02 -0.39874562629E+02 -0.41013459173E+03  0.43123333919E+03  0.12500554064E+03 0.  0.
          2    1    1    2  501    0 -0.55700390124E+02  0.26603284966E+02 -0.15472560096E+04  0.15484868186E+04  0.00000000000E+00 0. -1.
          1    1    1    2  502    0  0.32560736842E+02  0.13271277663E+02 -0.16083268024E+02  0.38665228627E+02  0.00000000000E+00 0. -1.
         22    1    3    3    0    0 -0.51704350121E+02 -0.10070573211E+02 -0.16229045749E+03  0.17062517065E+03  0.00000000000E+00 0.  1.
         22    1    3    3    0    0  0.74844003403E+02 -0.29803989418E+02 -0.24784413424E+03  0.26060816854E+03  0.00000000000E+00 0.  1.
</event>
<event>
 7    1  0.6507405E-006  0.4229600E+02  0.7818608E-02  0.1555493E+00
          2   -1    0    0  502    0  0.00000000000E+00  0.00000000000E+00  0.12040109615E+03  0.12040109615E+03  0.00000000000E+00 0. -1.
          1   -1    0    0  501    0 -0.00000000000E+00 -0.00000000000E+00 -0.43056422309E+03  0.43056422309E+03  0.00000000000E+00 0. -1.
         25    2    1    2    0    0  0.56631597909E+02 -0.23324065664E+02 -0.36199715447E+03  0.38784028408E+03  0.12500798449E+03 0.  0.
          2    1    1    2  501    0 -0.14499185789E+02  0.23616005434E+02 -0.47630035807E+02  0.55105012587E+02  0.00000000000E+00 0. -1.
          1    1    1    2  502    0 -0.42132412120E+02 -0.29193977058E+00  0.99464063337E+02  0.10802002257E+03  0.00000000000E+00 0. -1.
         22    1    3    3    0    0  0.32855621062E+02 -0.72818501102E+02 -0.16481573053E+03  0.18315635662E+03  0.00000000000E+00 0. -1.
         22    1    3    3    0    0  0.23775976847E+02  0.49494435438E+02 -0.19718142394E+03  0.20468392746E+03  0.00000000000E+00 0. -1.
</event>
<event>
 7    1  0.6507405E-006  0.6865026E+02  0.7818608E-02  0.1385743E+00
          2   -1    0    0  502    0  0.00000000000E+00  0.00000000000E+00  0.93091396885E+03  0.93091396885E+03  0.00000000000E+00 0. -1.
          1   -1    0    0  501    0 -0.00000000000E+00 -0.00000000000E+00 -0.10748581390E+03  0.10748581390E+03  0.00000000000E+00 0. -1.
         25    2    1    2    0    0  0.75273170729E+02 -0.66647170771E+02  0.28458338517E+03  0.32668012897E+03  0.12499723177E+03 0.  0.
          2    1    1    2  501    0 -0.17507426392E+02  0.65641203293E+02 -0.71510648248E+02  0.98635948627E+02  0.00000000000E+00 0. -1.
          1    1    1    2  502    0 -0.57765744337E+02  0.10059674776E+01  0.61035541804E+03  0.61308370515E+03  0.00000000000E+00 0. -1.
         22    1    3    3    0    0 -0.19438260156E+02  0.12934099291E+02  0.11158942126E+03  0.11400585871E+03  0.00000000000E+00 0. -1.
         22    1    3    3    0    0  0.94711430885E+02 -0.79581270062E+02  0.17299396391E+03  0.21267427027E+03  0.00000000000E+00 0. -1.
</event>
<event>
 7    1  0.6507405E-006  0.1547644E+03  0.7818608E-02  0.1217119E+00
          2   -1    0    0  502    0  0.00000000000E+00  0.00000000000E+00  0.39591661329E+03  0.39591661329E+03  0.00000000000E+00 0. -1.
          1   -1    0    0  501    0 -0.00000000000E+00 -0.00000000000E+00 -0.10099318922E+04  0.10099318922E+04  0.00000000000E+00 0. -1.
         25    2    1    2    0    0 -0.83062657628E+02 -0.18668483350E+03 -0.24985307523E+03  0.34612366498E+03  0.12499760040E+03 0.  0.
          2    1    1    2  501    0  0.11614419393E+03  0.36231664393E+02 -0.68929217285E+03  0.69994707431E+03  0.00000000000E+00 0. -1.
          1    1    1    2  502    0 -0.33081536298E+02  0.15045316911E+03  0.32512996921E+03  0.35977776615E+03  0.00000000000E+00 0. -1.
         22    1    3    3    0    0 -0.11421317389E+02  0.18567171607E+02 -0.17764109966E+02  0.28120276586E+02  0.00000000000E+00 0.  1.
         22    1    3    3    0    0 -0.71641340238E+02 -0.20525200511E+03 -0.23208896527E+03  0.31800338840E+03  0.00000000000E+00 0.  1.
</event>
<event>
 7    1  0.6507405E-006  0.6599374E+02  0.7818608E-02  0.1384874E+00
          2   -1    0    0  502    0  0.00000000000E+00  0.00000000000E+00  0.15034455113E+04  0.15034455113E+04  0.00000000000E+00 0. -1.
          1   -1    0    0  501    0 -0.00000000000E+00 -0.00000000000E+00 -0.43157696235E+03  0.43157696235E+03  0.00000000000E+00 0. -1.
         25    2    1    2    0    0  0.10664266366E+03  0.23624877159E+02 -0.14402293173E+03  0.21976888696E+03  0.12499986511E+03 0.  0.
          2    1    1    2  501    0 -0.48306259852E+02 -0.39750966748E+02 -0.24512600888E+03  0.25298299217E+03  0.00000000000E+00 0. -1.
          1    1    1    2  502    0 -0.58336403810E+02  0.16126089589E+02  0.14610174896E+04  0.14622705945E+04  0.00000000000E+00 0. -1.
         22    1    3    3    0    0  0.48559092761E+02 -0.10935321210E+01 -0.14873872558E+03  0.15646849456E+03  0.00000000000E+00 0.  1.
         22    1    3    3    0    0  0.58083570902E+02  0.24718409280E+02  0.47157938521E+01  0.63300392398E+02  0.00000000000E+00 0.  1.
</event>
<event>
 7    1  0.6507405E-006  0.9019691E+02  0.7818608E-02  0.1432926E+00
          2   -1    0    0  502    0  0.00000000000E+00  0.00000000000E+00  0.28597922610E+04  0.28597922610E+04  0.00000000000E+00 0. -1.
          1   -1    0    0  501    0 -0.00000000000E+00 -0.00000000000E+00 -0.28166174026E+03  0.28166174026E+03  0.00000000000E+00 0. -1.
         25    2    1    2    0    0  0.70259833018E+02 -0.63668753716E+02  0.14137719849E+04  0.14224504032E+04  0.12499508021E+03 0.  0.
          2    1    1    2  501    0 -0.82733992656E+02  0.35929207584E+02 -0.26982276613E+03  0.28449981831E+03  0.00000000000E+00 0. -1.
          1    1    1    2  502    0  0.12474159638E+02  0.27739546132E+02  0.14341813020E+04  0.14345037797E+04  0.00000000000E+00 0. -1.
         22    1    3    3    0    0 -0.13284951071E+02  0.10624035249E+02  0.67977446440E+03  0.67998726643E+03  0.00000000000E+00 0. -1.
         22    1    3    3    0    0  0.83544784089E+02 -0.74292788966E+02  0.73399752048E+03  0.74246313680E+03  0.00000000000E+00 0. -1.
</event>
<event>
 7    1  0.6507405E-006  0.8391987E+02  0.7818608E-02  0.1362167E+00
          2   -1    0    0  502    0  0.00000000000E+00  0.00000000000E+00  0.40596593475E+03  0.40596593475E+03  0.00000000000E+00 0. -1.
          1   -1    0    0  501    0 -0.00000000000E+00 -0.00000000000E+00 -0.20922933316E+04  0.20922933316E+04  0.00000000000E+00 0. -1.
         25    2    1    2    0    0 -0.25514532785E+02  0.37101892549E+02  0.19782237883E+02  0.13432784060E+03  0.12500036004E+03 0.  0.
          2    1    1    2  501    0  0.81207556645E+02 -0.23282986550E+02 -0.20316332963E+04  0.20333889484E+04  0.00000000000E+00 0. -1.
          1    1    1    2  502    0 -0.55693023861E+02 -0.13818905999E+02  0.32552366160E+03  0.33054247735E+03  0.00000000000E+00 0. -1.
         22    1    3    3    0    0 -0.73068992804E+02  0.52811462035E+01 -0.15118729970E+01  0.73275193446E+02  0.00000000000E+00 0. -1.
         22    1    3    3    0    0  0.47554460020E+02  0.31820746345E+02  0.21294110880E+02  0.61052647149E+02  0.00000000000E+00 0. -1.
</event>
<event>
 7    1  0.6507405E-006  0.1434288E+03  0.7818608E-02  0.1326406E+00
          2   -1    0    0  502    0  0.00000000000E+00  0.00000000000E+00  0.23532851851E+04  0.23532851851E+04  0.00000000000E+00 0. -1.
          1   -1    0    0  501    0 -0.00000000000E+00 -0.00000000000E+00 -0.12058444593E+04  0.12058444593E+04  0.00000000000E+00 0. -1.
         25    2    1    2    0    0  0.42770967932E+02 -0.15883061521E+03 -0.77229302441E+03  0.79944853653E+03  0.12499970789E+03 0.  0.
          2    1    1    2  501    0 -0.57676951652E+02  0.11565558922E+03 -0.40980171048E+03  0.42969790316E+03  0.00000000000E+00 0. -1.
          1    1    1    2  502    0  0.14905983720E+02  0.43175025984E+02  0.23295354608E+04  0.23299832047E+04  0.00000000000E+00 0. -1.
         22    1    3    3    0    0  0.58362420602E+02 -0.13930079903E+03 -0.75267285016E+03  0.76767656218E+03  0.00000000000E+00 0.  1.
         22    1    3    3    0    0 -0.15591452670E+02 -0.19529816178E+02 -0.19620174252E+02  0.31771974349E+02  0.00000000000E+00 0.  1.
</event>
<event>
 7    1  0.6507405E-006  0.1084208E+03  0.7818608E-02  0.1377682E+00
          2   -1    0    0  502    0  0.00000000000E+00  0.00000000000E+00  0.36612086528E+02  0.36612086528E+02  0.00000000000E+00 0. -1.
          1   -1    0    0  501    0 -0.00000000000E+00 -0.00000000000E+00 -0.16910516001E+04  0.16910516001E+04  0.00000000000E+00 0. -1.
         25    2    1    2    0    0 -0.12829315118E+03 -0.44584560053E+02 -0.51284136532E+03  0.54504880258E+03  0.12500006231E+03 0.  0.
          2    1    1    2  501    0  0.38800472198E+02 -0.45036888317E+01 -0.10324038086E+04  0.10331424800E+04  0.00000000000E+00 0. -1.
          1    1    1    2  502    0  0.89492678983E+02  0.49088248884E+02 -0.10919433958E+03  0.14947240403E+03  0.00000000000E+00 0. -1.
         22    1    3    3    0    0 -0.97157689443E+02 -0.76350084869E+02 -0.45831894456E+03  0.47468432355E+03  0.00000000000E+00 0. -1.
         22    1    3    3    0    0 -0.31135461738E+02  0.31765524816E+02 -0.54522420756E+02  0.70364479032E+02  0.00000000000E+00 0. -1.
</event>
<event>
 7    1  0.6507405E-006  0.1701043E+03  0.7818608E-02  0.1306850E+00
          2   -1    0    0  502    0  0.00000000000E+00  0.00000000000E+00  0.85091518384E+03  0.85091518384E+03  0.00000000000E+00 0. -1.
          1   -1    0    0  501    0 -0.00000000000E+00 -0.00000000000E+00 -0.76435178249E+03  0.76435178249E+03  0.00000000000E+00 0. -1.
         25    2    1    2    0    0  0.11953094517E+03  0.10037624709E+03 -0.12116709520E+03  0.23381184733E+03  0.12499390849E+03 0.  0.
          2    1    1    2  501    0 -0.10072350128E+03 -0.14225447140E+03 -0.57323098870E+03  0.59914549547E+03  0.00000000000E+00 0. -1.
          1    1    1    2  502    0 -0.18807443890E+02  0.41878224314E+02  0.78096148525E+03  0.78230962352E+03  0.00000000000E+00 0. -1.
         22    1    3    3    0    0  0.11116837303E+03  0.33109539900E+02 -0.29288509476E+02  0.11963471729E+03  0.00000000000E+00 0. -1.
         22    1    3    3    0    0  0.83625721405E+01  0.67266707191E+02 -0.91878585724E+02  0.11417713004E+03  0.00000000000E+00 0. -1.
</event>
<event>
 7    1  0.6507405E-006  0.1332975E+03  0.7818608E-02  0.1261116E+00
          2   -1    0    0  502    0  0.00000000000E+00  0.00000000000E+00  0.69466376489E+03  0.69466376489E+03  0.00000000000E+00 0. -1.
          1   -1    0    0  501    0 -0.00000000000E+00 -0.00000000000E+00 -0.28983906251E+03  0.28983906251E+03  0.00000000000E+00 0. -1.
         25    2    1    2    0    0 -0.33046738663E+02  0.98484658640E+02 -0.17813583098E+03  0.24116347627E+03  0.12504452440E+03 0.  0.
          2    1    1    2  501    0 -0.84526037276E+02 -0.31741081377E+02 -0.45076057530E+02  0.10091579751E+03  0.00000000000E+00 0. -1.
          1    1    1    2  502    0  0.11757277594E+03 -0.66743577263E+02  0.62803659089E+03  0.64242355362E+03  0.00000000000E+00 0. -1.
         22    1    3    3    0    0  0.32387354353E+02  0.72199183584E+01 -0.32687513969E+01  0.33342955459E+02  0.00000000000E+00 0. -1.
         22    1    3    3    0    0 -0.65434093016E+02  0.91264740282E+02 -0.17486707958E+03  0.20782052081E+03  0.00000000000E+00 0. -1.
</event>
<event>
 7    1  0.6507405E-006  0.6498594E+02  0.7818608E-02  0.1519437E+00
          2   -1    0    0  502    0  0.00000000000E+00  0.00000000000E+00  0.26998329523E+04  0.26998329523E+04  0.00000000000E+00 0. -1.
          1   -1    0    0  501    0 -0.00000000000E+00 -0.00000000000E+00 -0.79324378432E+03  0.79324378432E+03  0.00000000000E+00 0. -1.
         25    2    1    2    0    0  0.21855887340E+02  0.36419245342E+02 -0.72488184217E+02  0.15060995253E+03  0.12499911883E+03 0.  0.
          2    1    1    2  501    0  0.15014455324E+02  0.17192590805E+02 -0.68110571679E+03  0.68148808977E+03  0.00000000000E+00 0. -1.
          1    1    1    2  502    0 -0.36870342663E+02 -0.53611836147E+02  0.26601830690E+04  0.26609786943E+04  0.00000000000E+00 0. -1.
         22    1    3    3    0    0  0.46026754140E+02  0.28122105230E+01  0.19246086362E+02  0.49967814290E+02  0.00000000000E+00 0. -1.
         22    1    3    3    0    0 -0.24170866800E+02  0.33607034819E+02 -0.91734270579E+02  0.10064213824E+03  0.00000000000E+00 0. -1.
</event>
<event>
 7    1  0.6507405E-006  0.2014420E+03  0.7818608E-02  0.1350605E+00
          2   -1    0    0  502    0  0.00000000000E+00  0.00000000000E+00  0.64010308110E+02  0.64010308110E+02  0.00000000000E+00 0. -1.
          1   -1    0    0  501    0 -0.00000000000E+00 -0.00000000000E+00 -0.12769514050E+04  0.12769514050E+04  0.00000000000E+00 0. -1.
         25    2    1    2    0    0  0.20642154570E+03 -0.42095685778E+02 -0.41939435989E+03  0.48569326685E+03  0.12499767624E+03 0.  0.
          2    1    1    2  501    0 -0.20066253598E+02 -0.17090970441E+02 -0.51091296885E+03  0.51159243304E+03  0.00000000000E+00 0. -1.
          1    1    1    2  502    0 -0.18635529210E+03  0.59186656220E+02 -0.28263376819E+03  0.34367601326E+03  0.00000000000E+00 0. -1.
         22    1    3    3    0    0  0.21499212752E+03 -0.29697571742E+02 -0.41744815129E+03  0.47049603577E+03  0.00000000000E+00 0. -1.
         22    1    3    3    0    0 -0.85705818219E+01 -0.12398114036E+02 -0.19462086005E+01  0.15197231075E+02  0.00000000000E+00 0. -1.
</event>
<event>
 7    1  0.6507405E-006  0.5357808E+02  0.7818608E-02  0.1439848E+00
          2   -1    0    0  502    0  0.00000000000E+00  0.00000000000E+00  0.42787280808E+02  0.42787280808E+02  0.00000000000E+00 0. -1.
          1   -1    0    0  501    0 -0.00000000000E+00 -0.00000000000E+00 -0.61957316431E+03  0.61957316431E+03  0.00000000000E+00 0. -1.
         25    2    1    2    0    0 -0.45527248766E+02  0.42355588829E+02 -0.19020218078E+03  0.23594129396E+03  0.12499879333E+03 0.  0.
          2    1    1    2  501    0  0.46846210952E+02  0.12971749811E+02 -0.36303423616E+03  0.36627406460E+03  0.00000000000E+00 0. -1.
          1    1    1    2  502    0 -0.13189621861E+01 -0.55327338640E+02 -0.23549466558E+02  0.60145086561E+02  0.00000000000E+00 0. -1.
         22    1    3    3    0    0 -0.20587253128E+01 -0.36828859952E+02 -0.10681973499E+03  0.11300911051E+03  0.00000000000E+00 0.  1.
         22    1    3    3    0    0 -0.43468523453E+02  0.79184448781E+02 -0.83382445792E+02  0.12293218344E+03  0.00000000000E+00 0.  1.
</event>
<event>
 7    1  0.6507405E-006  0.2463042E+03  0.7818608E-02  0.1119529E+00
          2   -1    0    0  502    0  0.00000000000E+00  0.00000000000E+00  0.17702421099E+04  0.17702421099E+04  0.00000000000E+00 0. -1.
          1   -1    0    0  501    0 -0.00000000000E+00 -0.00000000000E+00 -0.96097854464E+03  0.96097854464E+03  0.00000000000E+00 0. -1.
         25    2    1    2    0    0 -0.21473164361E+03 -0.16347101793E+03 -0.98175624122E+02  0.31320393814E+03  0.12500320485E+03 0.  0.
          2    1    1    2  501    0  0.23378000573E+03 -0.82095538315E+02 -0.72548054998E+03  0.76662559107E+03  0.00000000000E+00 0. -1.
          1    1    1    2  502    0 -0.19048362114E+02  0.24556655624E+03  0.16329197394E+04  0.16513911253E+04  0.00000000000E+00 0. -1.
         22    1    3    3    0    0 -0.86166574124E+02  0.13815065006E+01 -0.46204600671E+02  0.97782678321E+02  0.00000000000E+00 0. -1.
         22    1    3    3    0    0 -0.12856506949E+03 -0.16485252443E+03 -0.51971023451E+02  0.21542125982E+03  0.00000000000E+00 0. -1.
</event>
<event>
 7    1  0.6507405E-006  0.1024186E+03  0.7818608E-02  0.1418619E+00
          2   -1    0    0  502    0  0.00000000000E+00  0.00000000000E+00  0.35502863407E+03  0.35502863407E+03  0.00000000000E+00 0. -1.
          1   -1    0    0  501    0 -0.00000000000E+00 -0.00000000000E+00 -0.56062028049E+03  0.56062028049E+03  0.00000000000E+00 0. -1.
         25    2    1    2    0    0  0.84909629085E+02  0.60580813474E+02 -0.18791705128E+02  0.16388313621E+03  0.12499949632E+03 0.  0.
          2    1    1    2  501    0 -0.63038063248E+02 -0.80930122692E+02 -0.46286120972E+03  0.47409279855E+03  0.00000000000E+00 0. -1.
          1    1    1    2  502    0 -0.21871565837E+02  0.20349309217E+02  0.27606126843E+03  0.27767297979E+03  0.00000000000E+00 0. -1.
         22    1    3    3    0    0  0.97215435200E+02  0.21240329579E+02  0.26163379547E+02  0.10289079099E+03  0.00000000000E+00 0.  1.
         22    1    3    3    0    0 -0.12305806115E+02  0.39340483895E+02 -0.44955084676E+02  0.60992345220E+02  0.00000000000E+00 0.  1.
</event>
<event>
 7    1  0.6507405E-006  0.1503858E+03  0.7818608E-02  0.1314043E+00
          2   -1    0    0  502    0  0.00000000000E+00  0.00000000000E+00  0.98742530859E+03  0.98742530859E+03  0.00000000000E+00 0. -1.
          1   -1    0    0  501    0 -0.00000000000E+00 -0.00000000000E+00 -0.53685655762E+03  0.53685655762E+03  0.00000000000E+00 0. -1.
         25    2    1    2    0    0  0.20381695286E+00 -0.16558743744E+03 -0.23550876863E+03  0.31385980097E+03  0.12499741431E+03 0.  0.
          2    1    1    2  501    0  0.43456756514E+02  0.21866727002E+02 -0.25390016795E+03  0.25851873959E+03  0.00000000000E+00 0. -1.
          1    1    1    2  502    0 -0.43660573467E+02  0.14372071044E+03  0.93997768755E+03  0.95190332565E+03  0.00000000000E+00 0. -1.
         22    1    3    3    0    0 -0.48229112583E+02 -0.10997655699E+03 -0.19687124980E+03  0.23060611307E+03  0.00000000000E+00 0. -1.
         22    1    3    3    0    0  0.48432929536E+02 -0.55610880450E+02 -0.38637518835E+02  0.83253687904E+02  0.00000000000E+00 0. -1.
</event>
<event>
 7    1  0.6507405E-006  0.4537586E+02  0.7818608E-02  0.1593419E+00
          2   -1    0    0  502    0  0.00000000000E+00  0.00000000000E+00  0.54624228719E+03  0.54624228719E+03  0.00000000000E+00 0. -1.
          1   -1    0    0  501    0 -0.00000000000E+00 -0.00000000000E+00 -0.75600236819E+02  0.75600236819E+02  0.00000000000E+00 0. -1.
         25    2    1    2    0    0 -0.17597995201E+02  0.57540368640E+02  0.13661507575E+03  0.19470300084E+03  0.12499998462E+03 0.  0.
          2    1    1    2  501    0  0.23301563991E+02 -0.37951173470E+02 -0.35560389876E+02  0.56989435691E+02  0.00000000000E+00 0. -1.
          1    1    1    2  502    0 -0.57035687898E+01 -0.19589195170E+02  0.36958736449E+03  0.37015008747E+03  0.00000000000E+00 0. -1.
         22    1    3    3    0    0  0.40054260947E+02  0.65896802743E+02  0.98463369882E+02  0.12506705258E+03  0.00000000000E+00 0. -1.
         22    1    3    3    0    0 -0.57652256148E+02 -0.83564341029E+01  0.38151705869E+02  0.69635948264E+02  0.00000000000E+00 0. -1.
</event>
<event>
 7    1  0.6507405E-006  0.1761303E+03  0.7818608E-02  0.1266708E+00
          2   -1    0    0  502    0  0.00000000000E+00  0.00000000000E+00  0.37089576967E+03  0.37089576967E+03  0.00000000000E+00 0. -1.
          1   -1    0    0  501    0 -0.00000000000E+00 -0.00000000000E+00 -0.58187719842E+03  0.58187719842E+03  0.00000000000E+00 0. -1.
         25    2    1    2    0    0  0.34222905182E+02 -0.22825986329E+03 -0.27358693501E+02  0.26390734188E+03  0.12499925823E+03 0.  0.
          2    1    1    2  501    0 -0.39997446629E+02  0.16381762408E+03 -0.41534951164E+03  0.44827583754E+03  0.00000000000E+00 0. -1.
          1    1    1    2  502    0  0.57745414475E+01  0.64442239204E+02  0.23172677639E+03  0.24058978868E+03  0.00000000000E+00 0. -1.
         22    1    3    3    0    0  0.65891808189E+02 -0.66080841963E+02 -0.31849409049E+02  0.98604223630E+02  0.00000000000E+00 0.  1.
         22    1    3    3    0    0 -0.31668903007E+02 -0.16217902132E+03  0.44907155487E+01  0.16530311825E+03  0.00000000000E+00 0.  1.
</event>
<event>
 7    1  0.6507405E-006  0.1851497E+03  0.7818608E-02  0.1249816E+00
          2   -1    0    0  502    0  0.00000000000E+00  0.00000000000E+00  0.25726299161E+03  0.25726299161E+03  0.00000000000E+00 0. -1.
          1   -1    0    0  501    0 -0.00000000000E+00 -0.00000000000E+00 -0.14848350730E+04  0.14848350730E+04  0.00000000000E+00 0. -1.
         25    2    1    2    0    0 -0.13027588810E+03  0.56010351859E+02 -0.86112797524E+03  0.88163187091E+03  0.12499759810E+03 0.  0.
          2    1    1    2  501    0 -0.59948167758E+01  0.72450179017E+02 -0.57533981761E+03  0.57991453853E+03  0.00000000000E+00 0. -1.
          1    1    1    2  502    0  0.13627070488E+03 -0.12846053088E+03  0.20889571141E+03  0.28055165522E+03  0.00000000000E+00 0. -1.
         22    1    3    3    0    0 -0.65637943242E+02  0.93458757223E+02 -0.53614948365E+03  0.54817802557E+03  0.00000000000E+00 0.  1.
         22    1    3    3    0    0 -0.64637944861E+02 -0.37448405364E+02 -0.32497849158E+03  0.33345384534E+03  0.00000000000E+00 0.  1.
</event>
<event>
 7    1  0.6507405E-006  0.7570298E+02  0.7818608E-02  0.1365698E+00
          2   -1    0    0  502    0  0.00000000000E+00  0.00000000000E+00  0.26711857174E+04  0.26711857174E+04  0.00000000000E+00 0. -1.
          1   -1    0    0  501    0 -0.00000000000E+00 -0.00000000000E+00 -0.21423109190E+03  0.21423109190E+03  0.00000000000E+00 0. -1.
         25    2    1    2    0    0 -0.50863399355E+02 -0.60149876985E+02 -0.39226642550E+02  0.15286880660E+03  0.12500019781E+03 0.  0.
          2    1    1    2  501    0  0.59876707436E+02 -0.15141275927E+02 -0.10952499329E+03  0.12573862766E+03  0.00000000000E+00 0. -1.
          1    1    1    2  502    0 -0.90133080809E+01  0.75291152912E+02  0.26057062613E+04  0.26068093750E+04  0.00000000000E+00 0. -1.
         22    1    3    3    0    0 -0.80740687157E+02 -0.42597419029E+02 -0.62937292529E+02  0.11088147483E+03  0.00000000000E+00 0.  1.
         22    1    3    3    0    0  0.29877287802E+02 -0.17552457956E+02  0.23710649979E+02  0.41987331769E+02  0.00000000000E+00 0.  1.
</event>
<event>
 7    1  0.6507405E-006  0.8546494E+02  0.7818608E-02  0.1329610E+00
          2   -1    0    0  502    0  0.00000000000E+00  0.00000000000E+00  0.15894278836E+04  0.15894278836E+04  0.00000000000E+00 0. -1.
          1   -1    0    0  501    0 -0.00000000000E+00 -0.00000000000E+00 -0.71013744225E+03  0.71013744225E+03  0.00000000000E+00 0. -1.
         25    2    1    2    0    0 -0.41430897211E+02  0.63128654335E+02  0.80886899640E+02  0.16694158385E+03  0.12500022257E+03 0.  0.
          2    1    1    2  501    0  0.86312998134E+02 -0.36441222796E+01 -0.66336021028E+03  0.66896186876E+03  0.00000000000E+00 0. -1.
          1    1    1    2  502    0 -0.44882100923E+02 -0.59484532055E+02  0.14617637520E+04  0.14636618732E+04  0.00000000000E+00 0. -1.
         22    1    3    3    0    0  0.30766972041E+02  0.41936160426E+02  0.75264749565E+02  0.91487871584E+02  0.00000000000E+00 0. -1.
         22    1    3    3    0    0 -0.72197869252E+02  0.21192493909E+02  0.56221500742E+01  0.75453712262E+02  0.00000000000E+00 0. -1.
</event>
<event>
 7    1  0.6507405E-006  0.7117028E+02  0.7818608E-02  0.1483043E+00
          2   -1    0    0  502    0  0.00000000000E+00  0.00000000000E+00  0.27113901849E+03  0.27113901849E+03  0.00000000000E+00 0. -1.
          1   -1    0    0  501    0 -0.00000000000E+00 -0.00000000000E+00 -0.22908779251E+03  0.22908779251E+03  0.00000000000E+00 0. -1.
         25    2    1    2    0    0  0.11158560828E+02  0.51156107888E+02 -0.45557468741E+02  0.14297534851E+03  0.12500002588E+03 0.  0.
          2    1    1    2  501    0 -0.16397452857E+02  0.21139785257E+02 -0.12749045486E+03  0.13026735224E+03  0.00000000000E+00 0. -1.
          1    1    1    2  502    0  0.52388920286E+01 -0.72295893144E+02  0.21509914958E+03  0.22698411025E+03  0.00000000000E+00 0. -1.
         22    1    3    3    0    0  0.64380997374E+02  0.66280567874E+01 -0.32276364442E+02  0.72322940076E+02  0.00000000000E+00 0. -1.
         22    1    3    3    0    0 -0.53222436545E+02  0.44528051100E+02 -0.13281104299E+02  0.70652408438E+02  0.00000000000E+00 0. -1.
</event>
<event>
 7    1  0.6507405E-006  0.7636574E+02  0.7818608E-02  0.1343163E+00
          2   -1    0    0  502    0  0.00000000000E+00  0.00000000000E+00  0.42311866162E+03  0.42311866162E+03  0.00000000000E+00 0. -1.
          1   -1    0    0  501    0 -0.00000000000E+00 -0.00000000000E+00 -0.18427120057E+04  0.18427120057E+04  0.00000000000E+00 0. -1.
         25    2    1    2    0    0  0.42153642800E+02 -0.12625004252E+03 -0.21095143619E+03  0.27900069540E+03  0.12499950705E+03 0.  0.
          2    1    1    2  501    0 -0.53418001461E+02  0.51368369377E+02 -0.15931821077E+04  0.15949048312E+04  0.00000000000E+00 0. -1.
          1    1    1    2  502    0  0.11264358661E+02  0.74881673142E+02  0.38454019976E+03  0.39192514079E+03  0.00000000000E+00 0. -1.
         22    1    3    3    0    0 -0.60648748419E+01 -0.32289851577E+02 -0.15701315186E+03  0.16041367485E+03  0.00000000000E+00 0.  1.
         22    1    3    3    0    0  0.48218517642E+02 -0.93960190943E+02 -0.53938284329E+02  0.11858702055E+03  0.00000000000E+00 0.  1.
</event>
<event>
 7    1  0.6507405E-006  0.6472102E+02  0.7818608E-02  0.1425513E+00
          2   -1    0    0  502    0  0.00000000000E+00  0.00000000000E+00  0.51282960385E+03  0.51282960385E+03  0.00000000000E+00 0. -1.
          1   -1    0    0  501    0 -0.00000000000E+00 -0.00000000000E+00 -0.18437813765E+04  0.18437813765E+04  0.00000000000E+00 0. -1.
         25    2    1    2    0    0  0.15161971145E+02 -0.25930566592E+02 -0.19573911589E+02  0.13005781459E+03  0.12501846851E+03 0.  0.
          2    1    1    2  501    0 -0.20572333932E+02 -0.39842905633E+02 -0.17662999337E+04  0.17668690200E+04  0.00000000000E+00 0. -1.
          1    1    1    2  502    0  0.54103627869E+01  0.65773472225E+02  0.45492207264E+03  0.45968414575E+03  0.00000000000E+00 0. -1.
         22    1    3    3    0    0 -0.41515354728E+02  0.12505814109E+02 -0.39587628520E+02  0.58712012371E+02  0.00000000000E+00 0. -1.
         22    1    3    3    0    0  0.56677325873E+02 -0.38436380701E+02  0.20013716932E+02  0.71345802224E+02  0.00000000000E+00 0. -1.
</event>
<event>
 7    1  0.6507405E-006  0.8211781E+02  0.7818608E-02  0.1464972E+00
          2   -1    0    0  502    0  0.00000000000E+00  0.00000000000E+00  0.51184793150E+03  0.51184793150E+03  0.00000000000E+00 0. -1.
          1   -1    0    0  501    0 -0.00000000000E+00 -0.00000000000E+00 -0.46523179439E+03  0.46523179439E+03  0.00000000000E+00 0. -1.
         25    2    1    2    0    0 -0.66541294025E+02  0.57789211715E+01  0.26135007265E+03  0.29730538236E+03  0.12500196064E+03 0.  0.
          2    1    1    2  501    0 -0.23036200293E+02 -0.12838662470E+02 -0.43816191324E+03  0.43895484960E+03  0.00000000000E+00 0. -1.
          1    1    1    2  502    0  0.89577494317E+02  0.70597412987E+01  0.22342797770E+03  0.24081949393E+03  0.00000000000E+00 0. -1.
         22    1    3    3    0    0 -0.89500240972E+02 -0.26071675435E+02  0.22601038207E+03  0.24448050679E+03  0.00000000000E+00 0.  1.
         22    1    3    3    0    0  0.22958946948E+02  0.31850596607E+02  0.35339690579E+02  0.52824875573E+02  0.00000000000E+00 0.  1.
</event>
<event>
 7    1  0.6507405E-006  0.1237277E+03  0.7818608E-02  0.1300531E+00
          2   -1    0    0  502    0  0.00000000000E+00  0.00000000000E+00  0.12164217177E+04  0.12164217177E+04  0.00000000000E+00 0. -1.
          1   -1    0    0  501    0 -0.00000000000E+00 -0.00000000000E+00 -0.10702824658E+03  0.10702824658E+03  0.00000000000E+00 0. -1.
         25    2    1    2    0    0  0.33832084121E+02  0.82293422309E+02  0.29887136100E+03  0.33595743834E+03  0.12500597059E+03 0.  0.
          2    1    1    2  501    0  0.13152122533E+02 -0.12988734447E+03 -0.38289214058E+02  0.13605059535E+03  0.00000000000E+00 0. -1.
          1    1    1    2  502    0 -0.46984206654E+02  0.47593922163E+02  0.84881132416E+03  0.85144193056E+03  0.00000000000E+00 0. -1.
         22    1    3    3    0    0  0.76246025332E+02  0.25989913166E+02  0.18857076192E+03  0.20505575880E+03  0.00000000000E+00 0. -1.
         22    1    3    3    0    0 -0.42413941211E+02  0.56303509143E+02  0.11030059908E+03  0.13090167955E+03  0.00000000000E+00 0. -1.
</event>
<event>
 7    1  0.6507405E-006  0.4419986E+02  0.7818608E-02  0.1500331E+00
          2   -1    0    0  502    0  0.00000000000E+00  0.00000000000E+00  0.14322207030E+03  0.14322207030E+03  0.00000000000E+00 0. -1.
          1   -1    0    0  501    0 -0.00000000000E+00 -0.00000000000E+00 -0.12067467957E+03  0.12067467957E+03  0.00000000000E+00 0. -1.
         25    2    1    2    0    0 -0.64853736933E+01  0.60991128458E+02 -0.59898400930E+01  0.13936488229E+03  0.12499885763E+03 0.  0.
          2    1    1    2  501    0  0.30077735436E+02 -0.30945337313E+02 -0.31460583148E+02  0.53404609936E+02  0.00000000000E+00 0. -1.
          1    1    1    2  502    0 -0.23592361743E+02 -0.30045791145E+02  0.59997813972E+02  0.71127257641E+02  0.00000000000E+00 0. -1.
         22    1    3    3    0    0  0.57218172439E+02  0.15068945767E+02  0.76409459588E+01  0.59660509879E+02  0.00000000000E+00 0. -1.
         22    1    3    3    0    0 -0.63703546133E+02  0.45922182691E+02 -0.13630786052E+02  0.79704372411E+02  0.00000000000E+00 0. -1.
</event>
<event>
 7    1  0.6507405E-006  0.1003319E+03  0.7818608E-02  0.1406527E+00
          2   -1    0    0  502    0  0.00000000000E+00  0.00000000000E+00  0.43703886534E+03  0.43703886534E+03  0.00000000000E+00 0. -1.
          1   -1    0    0  501    0 -0.00000000000E+00 -0.00000000000E+00 -0.95917399348E+03  0.95917399348E+03  0.00000000000E+00 0. -1.
         25    2    1    2    0    0 -0.90202081241E+02 -0.29426568332E+02 -0.29706315772E+03  0.33596632030E+03  0.12499804124E+03 0.  0.
          2    1    1    2  501    0  0.81631797543E+02  0.61812819002E+02 -0.63789781223E+03  0.64606361436E+03  0.00000000000E+00 0. -1.
          1    1    1    2  502    0  0.85702836987E+01 -0.32386250670E+02  0.41282584182E+03  0.41418292416E+03  0.00000000000E+00 0. -1.
         22    1    3    3    0    0 -0.88910564948E+02 -0.34297621823E+02 -0.30881245397E+03  0.32318191031E+03  0.00000000000E+00 0. -1.
         22    1    3    3    0    0 -0.12915162930E+01  0.48710534912E+01  0.11749296248E+02  0.12784409989E+02  0.00000000000E+00 0. -1.
</event>
<event>
 7    1  0.6507405E-006  0.1390219E+03  0.7818608E-02  0.1244188E+00
          2   -1    0    0  502    0  0.00000000000E+00  0.00000000000E+00  0.10747279949E+04  0.10747279949E+04  0.00000000000E+00 0. -1.
          1   -1    0    0  501    0 -0.00000000000E+00 -0.00000000000E+00 -0.22316979172E+03  0.22316979172E+03  0.00000000000E+00 0. -1.
         25    2    1    2    0    0  0.15282800654E+03  0.42498552179E+02  0.28649185782E+03  0.35052134403E+03  0.12500040602E+03 0.  0.
          2    1    1    2  501    0 -0.23768856417E+02 -0.99651384598E+02 -0.17021672134E+03  0.19866828940E+03  0.00000000000E+00 0. -1.
          1    1    1    2  502    0 -0.12905915012E+03  0.57152832420E+02  0.73528306675E+03  0.74870815324E+03  0.00000000000E+00 0. -1.
         22    1    3    3    0    0  0.93980744520E+02  0.62818346826E+02  0.90277303949E+02  0.14466691621E+03  0.00000000000E+00 0.  1.
         22    1    3    3    0    0  0.58847262018E+02 -0.20319794647E+02  0.19621455387E+03  0.20585442782E+03  0.00000000000E+00 0.  1.
</event>
<event>
 7    1  0.6507405E-006  0.4858446E+02  0.7818608E-02  0.1458659E+00
          2   -1    0    0  502    0  0.00000000000E+00  0.00000000000E+00  0.25409284474E+03  0.25409284474E+03  0.00000000000E+00 0. -1.
          1   -1    0    0  501    0 -0.00000000000E+00 -0.00000000000E+00 -0.10801032013E+04  0.10801032013E+04  0.00000000000E+00 0. -1.
         25    2    1    2    0    0  0.46314331734E+02 -0.20560320834E+01 -0.25108456735E+03  0.28428241672E+03  0.12499515151E+03 0.  0.
          2    1    1    2  501    0 -0.22792163849E+02 -0.40715574790E+02 -0.80923235186E+03  0.81057648625E+03  0.00000000000E+00 0. -1.
          1    1    1    2  502    0 -0.23522167885E+02  0.42771606873E+02  0.23430656267E+03  0.23933714306E+03  0.00000000000E+00 0. -1.
         22    1    3    3    0    0  0.28415754577E+02 -0.37587474695E+02 -0.23767134398E+03  0.24229721647E+03  0.00000000000E+00 0. -1.
         22    1    3    3    0    0  0.17898577157E+02  0.35531442611E+02 -0.13413223373E+02  0.41985200244E+02  0.00000000000E+00 0. -1.
</event>
<event>
 7    1  0.6507405E-006  0.1517652E+03  0.7818608E-02  0.1285782E+00
          2   -1    0    0  502    0  0.00000000000E+00  0.00000000000E+00  0.25953302728E+04  0.25953302728E+04  0.00000000000E+00 0. -1.
          1   -1    0    0  501    0 -0.00000000000E+00 -0.00000000000E+00 -0.16194630876E+04  0.16194630876E+04  0.00000000000E+00 0. -1.
         25    2    1    2    0    0  0.16227778106E+02  0.16250097151E+03  0.31616044993E+03  0.37716443809E+03  0.12500270694E+03 0.  0.
          2    1    1    2  501    0 -0.60134986120E+02 -0.17233776289E+02 -0.15857832594E+04  0.15870166242E+04  0.00000000000E+00 0. -1.
          1    1    1    2  502    0  0.43907208014E+02 -0.14526719522E+03  0.22454899946E+04  0.22506122982E+04  0.00000000000E+00 0. -1.
         22    1    3    3    0    0 -0.52920902962E+02  0.58009214344E+02  0.14693592507E+03  0.16660089134E+03  0.00000000000E+00 0. -1.
         22    1    3    3    0    0  0.69148681068E+02  0.10449175716E+03  0.16922452486E+03  0.21056354675E+03  0.00000000000E+00 0. -1.
</event>
<event>
 7    1  0.6507405E-006  0.1059296E+03  0.7818608E-02  0.1286816E+00
          2   -1    0    0  502    0  0.00000000000E+00  0.00000000000E+00  0.32671873387E+04  0.32671873387E+04  0.00000000000E+00 0. -1.
          1   -1    0    0  501    0 -0.00000000000E+00 -0.00000000000E+00 -0.30716112681E+02  0.30716112681E+02  0.00000000000E+00 0. -1.
         25    2    1    2    0    0 -0.11011916693E+03 -0.12652097432E+03  0.15657134905E+04  0.15796257892E+04  0.12500044610E+03 0.  0.
          2    1    1    2  501    0  0.25656201884E+02  0.99256632755E+02  0.94206027608E+02  0.13922965014E+03  0.00000000000E+00 0. -1.
          1    1    1    2  502    0  0.84462965045E+02  0.27264341568E+02  0.15765517079E+04  0.15790480121E+04  0.00000000000E+00 0. -1.
         22    1    3    3    0    0 -0.88965898400E+02 -0.66330384454E+02  0.50750869416E+03  0.51949949531E+03  0.00000000000E+00 0. -1.
         22    1    3    3    0    0 -0.21153268529E+02 -0.60190589868E+02  0.10582047964E+04  0.10601262939E+04  0.00000000000E+00 0. -1.
</event>
<event>
 7    1  0.6507405E-006  0.8064223E+02  0.7818608E-02  0.1344234E+00
          2   -1    0    0  502    0  0.00000000000E+00  0.00000000000E+00  0.30237740172E+02  0.30237740172E+02  0.00000000000E+00 0. -1.
          1   -1    0    0  501    0 -0.00000000000E+00 -0.00000000000E+00 -0.96059869730E+03  0.96059869730E+03  0.00000000000E+00 0. -1.
         25    2    1    2    0    0 -0.12226343700E+02  0.56534777678E+02 -0.45234441179E+03  0.47284893160E+03  0.12499992269E+03 0.  0.
          2    1    1    2  501    0 -0.68320164703E+02 -0.12939191012E+02 -0.36950532069E+03  0.37599102328E+03  0.00000000000E+00 0. -1.
          1    1    1    2  502    0  0.80546508403E+02 -0.43595586667E+02 -0.10851122464E+03  0.14199648258E+03  0.00000000000E+00 0. -1.
         22    1    3    3    0    0 -0.37760707789E+02  0.70192212060E+01 -0.37800070861E+03  0.37994693871E+03  0.00000000000E+00 0. -1.
         22    1    3    3    0    0  0.25534364089E+02  0.49515556472E+02 -0.74343703174E+02  0.92901992895E+02  0.00000000000E+00 0. -1.
</event>
<event>
 7    1  0.6507405E-006  0.8233360E+02  0.7818608E-02  0.1443064E+00
          2   -1    0    0  502    0  0.00000000000E+00  0.00000000000E+00  0.36649923292E+03  0.36649923292E+03  0.00000000000E+00 0. -1.
          1   -1    0    0  501    0 -0.00000000000E+00 -0.00000000000E+00 -0.79000231297E+03  0.79000231297E+03  0.00000000000E+00 0. -1.
         25    2    1    2    0    0  0.27899136967E+02 -0.95953263631E+02 -0.17683505587E+03  0.23849791792E+03  0.12500091689E+03 0.  0.
          2    1    1    2  501    0  0.15772351911E+02  0.26550921115E+02 -0.57690882334E+03  0.57773480849E+03  0.00000000000E+00 0. -1.
          1    1    1    2  502    0 -0.43671488878E+02  0.69402342516E+02  0.33024079915E+03  0.34026881948E+03  0.00000000000E+00 0. -1.
         22    1    3    3    0    0  0.23875867445E+02  0.18793095842E+02 -0.88683384748E+02  0.93744227705E+02  0.00000000000E+00 0. -1.
         22    1    3    3    0    0  0.40232695219E+01 -0.11474635947E+03 -0.88151671119E+02  0.14475369021E+03  0.00000000000E+00 0. -1.
</event>
<event>
 7    1  0.6507405E-006  0.1866880E+03  0.7818608E-02  0.1181681E+00
          2   -1    0    0  502    0  0.00000000000E+00  0.00000000000E+00  0.37610656949E+03  0.37610656949E+03  0.00000000000E+00 0. -1.
          1   -1    0    0  501    0 -0.00000000000E+00 -0.00000000000E+00 -0.31299240461E+03  0.31299240461E+03  0.00000000000E+00 0. -1.
         25    2    1    2    0    0 -0.29354981990E+02  0.23205801978E+03 -0.83504961968E+02  0.27804727081E+03  0.12499826647E+03 0.  0.
          2    1    1    2  501    0  0.12501092862E+03 -0.11876753841E+03 -0.35659972593E+02  0.17608263429E+03  0.00000000000E+00 0. -1.
          1    1    1    2  502    0 -0.95655946628E+02 -0.11329048137E+03  0.18227909944E+03  0.23496906900E+03  0.00000000000E+00 0. -1.
         22    1    3    3    0    0 -0.41016299332E+02  0.10434275016E+03 -0.98098131750E+02  0.14897311762E+03  0.00000000000E+00 0.  1.
         22    1    3    3    0    0  0.11661317341E+02  0.12771526962E+03  0.14593169782E+02  0.12907415319E+03  0.00000000000E+00 0.  1.
</event>
<event>
 7    1  0.6507405E-006  0.5019424E+02  0.7818608E-02  0.1448105E+00
          2   -1    0    0  502    0  0.00000000000E+00  0.00000000000E+00  0.57539526141E+02  0.57539526141E+02  0.00000000000E+00 0. -1.
          1   -1    0    0  501    0 -0.00000000000E+00 -0.00000000000E+00 -0.52495609411E+03  0.52495609411E+03  0.00000000000E+00 0. -1.
         25    2    1    2    0    0 -0.88825932977E+01  0.22384147821E+02 -0.26044620440E+03  0.28988979150E+03  0.12499566109E+03 0.  0.
          2    1    1    2  501    0 -0.43852037271E+02 -0.21406564140E+02 -0.22995206790E+03  0.23507274553E+03  0.00000000000E+00 0. -1.
          1    1    1    2  502    0  0.52734630569E+02 -0.97758368139E+00  0.22981704330E+02  0.57533083222E+02  0.00000000000E+00 0. -1.
         22    1    3    3    0    0  0.40066824003E+02  0.24451091720E+02 -0.33377314681E+02  0.57595584964E+02  0.00000000000E+00 0.  1.
         22    1    3    3    0    0 -0.48949417301E+02 -0.20669438989E+01 -0.22706888972E+03  0.23229420654E+03  0.00000000000E+00 0.  1.
</event>
<event>
 7    1  0.6507405E-006  0.1432806E+03  0.7818608E-02  0.1300519E+00
          2   -1    0    0  502    0  0.00000000000E+00  0.00000000000E+00  0.28217268406E+03  0.28217268406E+03  0.00000000000E+00 0. -1.
          1   -1    0    0  501    0 -0.00000000000E+00 -0.00000000000E+00 -0.25300814706E+03  0.25300814706E+03  0.00000000000E+00 0. -1.
         25    2    1    2    0    0  0.18036967913E+02 -0.12896841131E+03  0.73969066741E+01  0.18065921576E+03  0.12499941873E+03 0.  0.
          2    1    1    2  501    0  0.57744574545E+02 -0.12424086988E+01 -0.12902583997E+03  0.14136352730E+03  0.00000000000E+00 0. -1.
          1    1    1    2  502    0 -0.75781542457E+02  0.13021082001E+03  0.15079347029E+03  0.21315808806E+03  0.00000000000E+00 0. -1.
         22    1    3    3    0    0 -0.53374761416E+02 -0.54517122769E+02  0.12768125365E+02  0.77356362741E+02  0.00000000000E+00 0. -1.
         22    1    3    3    0    0  0.71411729328E+02 -0.74451288542E+02 -0.53712186910E+01  0.10330285302E+03  0.00000000000E+00 0. -1.
</event>
<event>
 7    1  0.6507405E-006  0.1117736E+03  0.7818608E-02  0.1404803E+00
          2   -1    0    0  502    0  0.00000000000E+00  0.00000000000E+00  0.72389224213E+03  0.72389224213E+03  0.00000000000E+00 0. -1.
          1   -1    0    0  501    0 -0.00000000000E+00 -0.00000000000E+00 -0.12991195857E+04  0.12991195857E+04  0.00000000000E+00 0. -1.
         25    2    1    2    0    0 -0.13359161133E+03 -0.10362501384E+02 -0.68082774406E+03  0.70505703640E+03  0.12499962973E+03 0.  0.
          2    1    1    2  501    0  0.10311077616E+03  0.10585139369E+02 -0.60141540959E+03  0.61028220704E+03  0.00000000000E+00 0. -1.
          1    1    1    2  502    0  0.30480835167E+02 -0.22263798471E+00  0.70701581013E+03  0.70767258436E+03  0.00000000000E+00 0. -1.
         22    1    3    3    0    0 -0.15349612114E+03 -0.22676616176E+02 -0.63393425802E+03  0.65264686594E+03  0.00000000000E+00 0. -1.
         22    1    3    3    0    0  0.19904509818E+02  0.12314114792E+02 -0.46893486045E+02  0.52410170460E+02  0.00000000000E+00 0. -1.
</event>
<event>
 7    1  0.6507405E-006  0.1485891E+03  0.7818608E-02  0.1327122E+00
          2   -1    0    0  502    0  0.00000000000E+00  0.00000000000E+00  0.19478898928E+03  0.19478898928E+03  0.00000000000E+00 0. -1.
          1   -1    0    0  501    0 -0.00000000000E+00 -0.00000000000E+00 -0.95691847986E+03  0.95691847986E+03  0.00000000000E+00 0. -1.
         25    2    1    2    0    0 -0.92383173250E+02 -0.63333311013E+02 -0.80755668148E+02  0.18625444352E+03  0.12499392309E+03 0.  0.
          2    1    1    2  501    0  0.13504569754E+03  0.73300737616E+02 -0.81265513827E+03  0.82705423783E+03  0.00000000000E+00 0. -1.
          1    1    1    2  502    0 -0.42662524285E+02 -0.99674266022E+01  0.13128131584E+03  0.13839878779E+03  0.00000000000E+00 0. -1.
         22    1    3    3    0    0  0.23706417996E+02 -0.39934216993E+01  0.11390058225E+02  0.26602163398E+02  0.00000000000E+00 0. -1.
         22    1    3    3    0    0 -0.11608959125E+03 -0.59339889314E+02 -0.92145726373E+02  0.15965228012E+03  0.00000000000E+00 0. -1.
</event>
<event>
 7    1  0.6507405E-006  0.9014258E+02  0.7818608E-02  0.1442095E+00
          2   -1    0    0  502    0  0.00000000000E+00  0.00000000000E+00  0.78857326053E+03  0.78857326053E+03  0.00000000000E+00 0. -1.
          1   -1    0    0  501    0 -0.00000000000E+00 -0.00000000000E+00 -0.79713818525E+03  0.79713818525E+03  0.00000000000E+00 0. -1.
         25    2    1    2    0    0  0.60915549479E+02 -0.38804376225E+02  0.57244880995E+02  0.15530064519E+03  0.12499932085E+03 0.  0.
          2    1    1    2  501    0  0.26174036315E+02  0.11050699365E+02 -0.74477694890E+03  0.74531865785E+03  0.00000000000E+00 0. -1.
          1    1    1    2  502    0 -0.87089585794E+02  0.27753676860E+02  0.67896714318E+03  0.68509214274E+03  0.00000000000E+00 0. -1.
         22    1    3    3    0    0  0.60389205186E+02 -0.10327849099E+02 -0.26569540646E+02  0.66779196313E+02  0.00000000000E+00 0. -1.
         22    1    3    3    0    0  0.52634429262E+00 -0.28476527126E+02  0.83814421641E+02  0.88521448873E+02  0.00000000000E+00 0. -1.
</event>
<event>
 7    1  0.6507405E-006  0.2398855E+02  0.7818608E-02  0.1678823E+00
          2   -1    0    0  502    0  0.00000000000E+00  0.00000000000E+00  0.13628396683E+04  0.13628396683E+04  0.00000000000E+00 0. -1.
          1   -1    0    0  501    0 -0.00000000000E+00 -0.00000000000E+00 -0.32116632843E+03  0.32116632843E+03  0.00000000000E+00 0. -1.
         25    2    1    2    0    0 -0.81266651152E+01 -0.17678498359E+02 -0.26623297154E+03  0.29475809062E+03  0.12499505934E+03 0.  0.
          2    1    1    2  501    0 -0.15283642787E+02  0.22913779118E+02 -0.35888200887E+02  0.45239296781E+02  0.00000000000E+00 0. -1.
          1    1    1    2  502    0  0.23410307902E+02 -0.52352807590E+01  0.13437945123E+04  0.13440086093E+04  0.00000000000E+00 0. -1.
         22    1    3    3    0    0  0.52115386503E+02 -0.33353847424E+02 -0.16116981098E+03  0.17263893135E+03  0.00000000000E+00 0. -1.
         22    1    3    3    0    0 -0.60242051618E+02  0.15675349064E+02 -0.10506316056E+03  0.12211915926E+03  0.00000000000E+00 0. -1.
</event>
<event>
 7    1  0.6507405E-006  0.5996343E+02  0.7818608E-02  0.1420836E+00
          2   -1    0    0  502    0  0.00000000000E+00  0.00000000000E+00  0.37565588468E+03  0.37565588468E+03  0.00000000000E+00 0. -1.
          1   -1    0    0  501    0 -0.00000000000E+00 -0.00000000000E+00 -0.91894917362E+02  0.91894917362E+02  0.00000000000E+00 0. -1.
         25    2    1    2    0    0 -0.43641102171E+02 -0.90519381458E+02  0.62216541002E+02  0.17202883261E+03  0.12499886822E+03 0.  0.
          2    1    1    2  501    0  0.11630957846E+02  0.51897835779E+02 -0.13754917823E+02  0.54935073526E+02  0.00000000000E+00 0. -1.
          1    1    1    2  502    0  0.32010144325E+02  0.38621545678E+02  0.23529934414E+03  0.24058689591E+03  0.00000000000E+00 0. -1.
         22    1    3    3    0    0  0.21587856738E+02 -0.77355906254E+02  0.68001518274E+02  0.10523392171E+03  0.00000000000E+00 0.  1.
         22    1    3    3    0    0 -0.65228958909E+02 -0.13163475203E+02 -0.57849772717E+01  0.66794910898E+02  0.00000000000E+00 0.  1.
</event>
<event>
 7    1  0.6507405E-006  0.6876638E+02  0.7818608E-02  0.1448961E+00
          2   -1    0    0  502    0  0.00000000000E+00  0.00000000000E+00  0.14862328235E+03  0.14862328235E+03  0.00000000000E+00 0. -1.
          1   -1    0    0  501    0 -0.00000000000E+00 -0.00000000000E+00 -0.13481547422E+04  0.13481547422E+04  0.00000000000E+00 0. -1.
         25    2    1    2    0    0  0.47882238963E+02 -0.23792513556E+02 -0.42824719647E+03  0.44931026671E+03  0.12500104789E+03 0.  0.
          2    1    1    2  501    0 -0.98117256729E+01 -0.34007522373E+02 -0.90033423886E+03  0.90102970162E+03  0.00000000000E+00 0. -1.
          1    1    1    2  502    0 -0.38070513290E+02  0.57800035929E+02  0.12904997549E+03  0.14643805622E+03  0.00000000000E+00 0. -1.
         22    1    3    3    0    0  0.59200306046E+02  0.32512691880E+02 -0.31697575676E+03  0.32409162553E+03  0.00000000000E+00 0.  1.
         22    1    3    3    0    0 -0.11318067083E+02 -0.56305205436E+02 -0.11127143972E+03  0.12521864118E+03  0.00000000000E+00 0.  1.
</event>
<event>
 7    1  0.6507405E-006  0.1351799E+03  0.7818608E-02  0.1314154E+00
          2   -1    0    0  502    0  0.00000000000E+00  0.00000000000E+00  0.79920813890E+03  0.79920813890E+03  0.00000000000E+00 0. -1.
          1   -1    0    0  501    0 -0.00000000000E+00 -0.00000000000E+00 -0.10793338438E+04  0.10793338438E+04  0.00000000000E+00 0. -1.
         25    2    1    2    0    0 -0.16875829610E+03 -0.46509826505E+02 -0.14254625587E+03  0.25804631918E+03  0.12500376520E+03 0.  0.
          2    1    1    2  501    0  0.11683320245E+03  0.61574879090E+02 -0.87307930290E+03  0.88301128650E+03  0.00000000000E+00 0. -1.
          1    1    1    2  502    0  0.51925093655E+02 -0.15065052585E+02  0.73549985392E+03  0.73748437698E+03  0.00000000000E+00 0. -1.
         22    1    3    3    0    0 -0.64391475518E+02 -0.23562989640E+02 -0.13439555477E+03  0.15087624645E+03  0.00000000000E+00 0. -1.
         22    1    3    3    0    0 -0.10436682058E+03 -0.22946836865E+02 -0.81507010995E+01  0.10717007273E+03  0.00000000000E+00 0. -1.
</event>
<event>
 7    1  0.6507405E-006  0.9577568E+02  0.7818608E-02  0.1323730E+00
          2   -1    0    0  502    0  0.00000000000E+00  0.00000000000E+00  0.25555459978E+04  0.25555459978E+04  0.00000000000E+00 0. -1.
          1   -1    0    0  501    0 -0.00000000000E+00 -0.00000000000E+00 -0.19663970201E+03  0.19663970201E+03  0.00000000000E+00 0. -1.
         25    2    1    2    0    0  0.98772812053E+02  0.12021379102E+01  0.10556363237E+04  0.10675904594E+04  0.12499531031E+03 0.  0.
          2    1    1    2  501    0 -0.22336278738E+02 -0.66386802040E+02 -0.18247578045E+03  0.19545722622E+03  0.00000000000E+00 0. -1.
          1    1    1    2  502    0 -0.76436533315E+02  0.65184664130E+02  0.14857457525E+04  0.14891380142E+04  0.00000000000E+00 0. -1.
         22    1    3    3    0    0  0.22128332803E+02 -0.32369259537E+02  0.87965109492E+02  0.96308320324E+02  0.00000000000E+00 0. -1.
         22    1    3    3    0    0  0.76644479250E+02  0.33571397447E+02  0.96767121417E+03  0.97128213906E+03  0.00000000000E+00 0. -1.
</event>
<event>
 7    1  0.6507405E-006  0.9912353E+02  0.7818608E-02  0.1298260E+00
          2   -1    0    0  502    0  0.00000000000E+00  0.00000000000E+00  0.15581611785E+04  0.15581611785E+04  0.00000000000E+00 0. -1.
          1   -1    0    0  501    0 -0.00000000000E+00 -0.00000000000E+00 -0.37325670757E+02  0.37325670757E+02  0.00000000000E+00 0. -1.
         25    2    1    2    0    0 -0.57740602268E+00 -0.73959403451E+02  0.74206842569E+03  0.75614861729E+03  0.12499942507E+03 0.  0.
          2    1    1    2  501    0  0.96773086075E+02  0.21457953874E+02  0.68080058580E+02  0.12025127172E+03  0.00000000000E+00 0. -1.
          1    1    1    2  502    0 -0.96195680053E+02  0.52501449578E+02  0.71068702344E+03  0.71908696022E+03  0.00000000000E+00 0. -1.
         22    1    3    3    0    0  0.40499814839E+02 -0.90764261039E+02  0.46047932632E+03  0.47108342791E+03  0.00000000000E+00 0. -1.
         22    1    3    3    0    0 -0.41077220862E+02  0.16804857588E+02  0.28158909936E+03  0.28506518937E+03  0.00000000000E+00 0. -1.
</event>
<event>
 7    1  0.6507405E-006  0.1087607E+03  0.7818608E-02  0.1327055E+00
          2   -1    0    0  502    0  0.00000000000E+00  0.00000000000E+00  0.23916353383E+04  0.23916353383E+04  0.00000000000E+00 0. -1.
          1   -1    0    0  501    0 -0.00000000000E+00 -0.00000000000E+00 -0.15698258294E+04  0.15698258294E+04  0.00000000000E+00 0. -1.
         25    2    1    2    0    0  0.15364823421E+03  0.48855521253E+02 -0.26742020845E+02  0.20575423949E+03  0.12500011823E+03 0.  0.
          2    1    1    2  501    0 -0.10707995612E+03 -0.11195651148E+02 -0.14511937015E+04  0.14551819883E+04  0.00000000000E+00 0. -1.
          1    1    1    2  502    0 -0.46568278091E+02 -0.37659870105E+02  0.22997452313E+04  0.23005249399E+04  0.00000000000E+00 0. -1.
         22    1    3    3    0    0 -0.13358142321E+02  0.30586688714E+02  0.77103036367E+01  0.34255426941E+02  0.00000000000E+00 0.  1.
         22    1    3    3    0    0  0.16700637653E+03  0.18268832539E+02 -0.34452324482E+02  0.17149881255E+03  0.00000000000E+00 0.  1.
</event>
<event>
 7    1  0.6507405E-006  0.7035008E+02  0.7818608E-02  0.1391879E+00
          2   -1    0    0  502    0  0.00000000000E+00  0.00000000000E+00  0.11690571728E+04  0.11690571728E+04  0.00000000000E+00 0. -1.
          1   -1    0    0  501    0 -0.00000000000E+00 -0.00000000000E+00 -0.23347639302E+03  0.23347639302E+03  0.00000000000E+00 0. -1.
         25    2    1    2    0    0 -0.82700664691E+02  0.73817008038E+02  0.32771825845E+03  0.36784828248E+03  0.12499900555E+03 0.  0.
          2    1    1    2  501    0  0.52026148624E+02 -0.13146785779E+02 -0.20860291237E+03  0.21539436661E+03  0.00000000000E+00 0. -1.
          1    1    1    2  502    0  0.30674516067E+02 -0.60670222259E+02  0.81646543366E+03  0.81929091669E+03  0.00000000000E+00 0. -1.
         22    1    3    3    0    0 -0.90555961221E+02  0.32532065309E+02  0.30553240181E+03  0.32032603070E+03  0.00000000000E+00 0.  1.
         22    1    3    3    0    0  0.78552965307E+01  0.41284942729E+02  0.22185856635E+02  0.47522251781E+02  0.00000000000E+00 0.  1.
</event>
<event>
 7    1  0.6507405E-006  0.1014195E+03  0.7818608E-02  0.1300326E+00
          2   -1    0    0  502    0  0.00000000000E+00  0.00000000000E+00  0.14492188165E+04  0.14492188165E+04  0.00000000000E+00 0. -1.
          1   -1    0    0  501    0 -0.00000000000E+00 -0.00000000000E+00 -0.19045719642E+03  0.19045719642E+03  0.00000000000E+00 0. -1.
         25    2    1    2    0    0 -0.43604753322E+01 -0.27128392696E+02  0.21770375736E+03  0.25253620289E+03  0.12499857746E+03 0.  0.
          2    1    1    2  501    0 -0.22198337333E+02  0.10443623994E+03 -0.15504250995E+03  0.18824950009E+03  0.00000000000E+00 0. -1.
          1    1    1    2  502    0  0.26558812665E+02 -0.77307847245E+02  0.11961003727E+04  0.11988903100E+04  0.00000000000E+00 0. -1.
         22    1    3    3    0    0 -0.44519047619E+00 -0.69734757727E+02  0.70191964145E+02  0.98944663627E+02  0.00000000000E+00 0. -1.
         22    1    3    3    0    0 -0.39152848560E+01  0.42606365031E+02  0.14751179321E+03  0.15359153926E+03  0.00000000000E+00 0. -1.
</event>
<event>
 7    1  0.6507405E-006  0.1017211E+03  0.7818608E-02  0.1416169E+00
          2   -1    0    0  502    0  0.00000000000E+00  0.00000000000E+00  0.19134746720E+02  0.19134746720E+02  0.00000000000E+00 0. -1.
          1   -1    0    0  501    0 -0.00000000000E+00 -0.00000000000E+00 -0.13645551639E+04  0.13645551639E+04  0.00000000000E+00 0. -1.
         25    2    1    2    0    0  0.70626414467E+02  0.48087506394E+02 -0.58011044461E+03  0.59954440352E+03  0.12499946060E+03 0.  0.
          2    1    1    2  501    0  0.30649613596E+02 -0.46609466037E+00 -0.42077601731E+03  0.42189106746E+03  0.00000000000E+00 0. -1.
          1    1    1    2  502    0 -0.10127602806E+03 -0.47621411734E+02 -0.34453395524E+03  0.36225443963E+03  0.00000000000E+00 0. -1.
         22    1    3    3    0    0 -0.20406309906E+02 -0.25888057423E+02 -0.16030799777E+03  0.16366203943E+03  0.00000000000E+00 0. -1.
         22    1    3    3    0    0  0.91032724373E+02  0.73975563817E+02 -0.41980244684E+03  0.43588236408E+03  0.00000000000E+00 0. -1.
</event>
<event>
 7    1  0.9425215E-006  0.1428700E+03  0.7818608E-02  0.1242462E+00
          2   -1    0    0  502    0  0.00000000000E+00  0.00000000000E+00  0.24909565092E+04  0.24909565092E+04  0.00000000000E+00 0. -1.
          1   -1    0    0  501    0 -0.00000000000E+00 -0.00000000000E+00 -0.11408056991E+04  0.11408056991E+04  0.00000000000E+00 0. -1.
         25    2    1    2    0    0  0.33258271356E+02  0.27280071598E+02 -0.18866370975E+03  0.23036784566E+03  0.12500013607E+03 0.  0.
          2    1    1    2  501    0  0.64376512558E+02  0.78394301159E+02 -0.92642402238E+03  0.93196108881E+03  0.00000000000E+00 0. -1.
          1    1    1    2  502    0 -0.97634783914E+02 -0.10567437276E+03  0.24652385422E+04  0.24694332738E+04  0.00000000000E+00 0. -1.
         22    1    3    3    0    0  0.60158090638E+02 -0.17014152588E+02 -0.43314889991E+02  0.76056932310E+02  0.00000000000E+00 0. -1.
         22    1    3    3    0    0 -0.26899819282E+02  0.44294224186E+02 -0.14534881976E+03  0.15431091335E+03  0.00000000000E+00 0. -1.
</event>
<event>
 7    1  0.6507405E-006  0.1866714E+03  0.7818608E-02  0.1267827E+00
          2   -1    0    0  502    0  0.00000000000E+00  0.00000000000E+00  0.18142996959E+04  0.18142996959E+04  0.00000000000E+00 0. -1.
          1   -1    0    0  501    0 -0.00000000000E+00 -0.00000000000E+00 -0.11417126701E+04  0.11417126701E+04  0.00000000000E+00 0. -1.
         25    2    1    2    0    0  0.10903567449E+03  0.18327525439E+03  0.43907360447E+02  0.25105927761E+03  0.12499722952E+03 0.  0.
          2    1    1    2  501    0 -0.13407251024E+03 -0.12832293369E+03 -0.10292884015E+04  0.10458856662E+04  0.00000000000E+00 0. -1.
          1    1    1    2  502    0  0.25036835750E+02 -0.54952320708E+02  0.16579680668E+04  0.16590674222E+04  0.00000000000E+00 0. -1.
         22    1    3    3    0    0  0.10754787445E+03  0.19928326873E+03  0.27545830089E+02  0.22812088736E+03  0.00000000000E+00 0. -1.
         22    1    3    3    0    0  0.14878000429E+01 -0.16008014333E+02  0.16361530358E+02  0.22938390255E+02  0.00000000000E+00 0. -1.
</event>
<event>
 7    1  0.6507405E-006  0.5928820E+02  0.7818608E-02  0.1540844E+00
          2   -1    0    0  502    0  0.00000000000E+00  0.00000000000E+00  0.47939257401E+03  0.47939257401E+03  0.00000000000E+00 0. -1.
          1   -1    0    0  501    0 -0.00000000000E+00 -0.00000000000E+00 -0.57979007744E+03  0.57979007744E+03  0.00000000000E+00 0. -1.
         25    2    1    2    0    0 -0.15942899890E+02  0.60659456375E+02 -0.28177701125E+03  0.31457520593E+03  0.12500212165E+03 0.  0.
          2    1    1    2  501    0  0.33975853974E+02 -0.48544046404E+02 -0.27823779896E+03  0.28447698653E+03  0.00000000000E+00 0. -1.
          1    1    1    2  502    0 -0.18032954084E+02 -0.12115409971E+02  0.45961730678E+03  0.46013045898E+03  0.00000000000E+00 0. -1.
         22    1    3    3    0    0 -0.31796376202E+02  0.59838647760E+02 -0.55082563991E+02  0.87325609995E+02  0.00000000000E+00 0.  1.
         22    1    3    3    0    0  0.15853476312E+02  0.82080861510E+00 -0.22669444726E+03  0.22724959594E+03  0.00000000000E+00 0.  1.
</event>
<event>
 7    1  0.6507405E-006  0.8540902E+02  0.7818608E-02  0.1335833E+00
          2   -1    0    0  502    0  0.00000000000E+00  0.00000000000E+00  0.42891046240E+03  0.42891046240E+03  0.00000000000E+00 0. -1.
          1   -1    0    0  501    0 -0.00000000000E+00 -0.00000000000E+00 -0.41004136344E+03  0.41004136344E+03  0.00000000000E+00 0. -1.
         25    2    1    2    0    0 -0.22008510838E+02  0.54947794112E+01 -0.17059405135E+02  0.12818033985E+03  0.12499843627E+03 0.  0.
          2    1    1    2  501    0 -0.47416440816E+02  0.52320850766E+02 -0.32814476855E+03  0.33565574538E+03  0.00000000000E+00 0. -1.
          1    1    1    2  502    0  0.69424951655E+02 -0.57815630177E+02  0.36407327264E+03  0.37511574061E+03  0.00000000000E+00 0. -1.
         22    1    3    3    0    0 -0.35434464612E+02  0.23224815529E+02  0.45269463648E+02  0.62002561863E+02  0.00000000000E+00 0. -1.
         22    1    3    3    0    0  0.13425953774E+02 -0.17730036117E+02 -0.62328868782E+02  0.66177777986E+02  0.00000000000E+00 0. -1.
</event>
<event>
 7    1  0.6507405E-006  0.5955455E+02  0.7818608E-02  0.1489830E+00
          2   -1    0    0  502    0  0.00000000000E+00  0.00000000000E+00  0.21376696488E+04  0.21376696488E+04  0.00000000000E+00 0. -1.
          1   -1    0    0  501    0 -0.00000000000E+00 -0.00000000000E+00 -0.11086208281E+04  0.11086208281E+04  0.00000000000E+00 0. -1.
         25    2    1    2    0    0 -0.30180497910E+02  0.13272193948E+02  0.70467891845E+02  0.14723156378E+03  0.12499758400E+03 0.  0.
          2    1    1    2  501    0  0.59553747219E+02 -0.51019364106E+01 -0.10692897619E+04  0.10709590438E+04  0.00000000000E+00 0. -1.
          1    1    1    2  502    0 -0.29373249309E+02 -0.81702575370E+01  0.20278706908E+04  0.20280998692E+04  0.00000000000E+00 0. -1.
         22    1    3    3    0    0 -0.45827652780E+01 -0.55601084186E+02  0.29673743190E+02  0.63190294627E+02  0.00000000000E+00 0.  1.
         22    1    3    3    0    0 -0.25597732632E+02  0.68873278133E+02  0.40794148655E+02  0.84041269155E+02  0.00000000000E+00 0.  1.
</event>
<event>
 7    1  0.6507405E-006  0.6403321E+02  0.7818608E-02  0.1484128E+00
          2   -1    0    0  502    0  0.00000000000E+00  0.00000000000E+00  0.14672779222E+04  0.14672779222E+04  0.00000000000E+00 0. -1.
          1   -1    0    0  501    0 -0.00000000000E+00 -0.00000000000E+00 -0.54801661194E+02  0.54801661194E+02  0.00000000000E+00 0. -1.
         25    2    1    2    0    0  0.17260174414E+02 -0.90518091176E+02  0.25749337867E+03  0.30069786302E+03  0.12499970527E+03 0.  0.
          2    1    1    2  501    0 -0.20367300701E+01  0.29439450436E+02 -0.25633503646E+02  0.39088438451E+02  0.00000000000E+00 0. -1.
          1    1    1    2  502    0 -0.15223444343E+02  0.61078640739E+02  0.11806163860E+04  0.11822932820E+04  0.00000000000E+00 0. -1.
         22    1    3    3    0    0 -0.30040600963E+02 -0.94172162409E+02  0.21650282644E+03  0.23800064650E+03  0.00000000000E+00 0. -1.
         22    1    3    3    0    0  0.47300775376E+02  0.36540712332E+01  0.40990552231E+02  0.62697216525E+02  0.00000000000E+00 0. -1.
</event>
<event>
 7    1  0.6507405E-006  0.7880108E+02  0.7818608E-02  0.1334015E+00
          2   -1    0    0  502    0  0.00000000000E+00  0.00000000000E+00  0.22710209311E+03  0.22710209311E+03  0.00000000000E+00 0. -1.
          1   -1    0    0  501    0 -0.00000000000E+00 -0.00000000000E+00 -0.52306532769E+03  0.52306532769E+03  0.00000000000E+00 0. -1.
         25    2    1    2    0    0  0.26364337396E+02  0.58187969411E+02  0.45672246982E+02  0.14762172722E+03  0.12500120853E+03 0.  0.
          2    1    1    2  501    0  0.52419290268E+02 -0.59846431824E+02 -0.45642745146E+03  0.46330917954E+03  0.00000000000E+00 0. -1.
          1    1    1    2  502    0 -0.78783627665E+02  0.16584624133E+01  0.11479196990E+03  0.13923651403E+03  0.00000000000E+00 0. -1.
         22    1    3    3    0    0  0.52436513951E+02 -0.21171520117E+02  0.13746487858E+02  0.58196109731E+02  0.00000000000E+00 0.  1.
         22    1    3    3    0    0 -0.26072176555E+02  0.79359489527E+02  0.31925759124E+02  0.89425617493E+02  0.00000000000E+00 0.  1.
</event>
<event>
 7    1  0.6507405E-006  0.1040301E+03  0.7818608E-02  0.1350702E+00
          2   -1    0    0  502    0  0.00000000000E+00  0.00000000000E+00  0.75142298957E+03  0.75142298957E+03  0.00000000000E+00 0. -1.
          1   -1    0    0  501    0 -0.00000000000E+00 -0.00000000000E+00 -0.38983615472E+03  0.38983615472E+03  0.00000000000E+00 0. -1.
         25    2    1    2    0    0  0.25604151502E+02 -0.12907555393E+03  0.14489907654E+03  0.23224199307E+03  0.12499811906E+03 0.  0.
          2    1    1    2  501    0 -0.42258849453E+02  0.28547174990E+02 -0.33963340873E+03  0.34344083025E+03  0.00000000000E+00 0. -1.
          1    1    1    2  502    0  0.16654697950E+02  0.10052837894E+03  0.55632116704E+03  0.56557632096E+03  0.00000000000E+00 0. -1.
         22    1    3    3    0    0  0.75359858022E+01  0.25049783731E+02  0.17606700424E+02  0.31532184302E+02  0.00000000000E+00 0.  1.
         22    1    3    3    0    0  0.18068165700E+02 -0.15412533766E+03  0.12729237611E+03  0.20070980877E+03  0.00000000000E+00 0.  1.
</event>
<event>
 7    1  0.6507405E-006  0.1569391E+03  0.7818608E-02  0.1265760E+00
          2   -1    0    0  502    0  0.00000000000E+00  0.00000000000E+00  0.72022496290E+03  0.72022496290E+03  0.00000000000E+00 0. -1.
          1   -1    0    0  501    0 -0.00000000000E+00 -0.00000000000E+00 -0.10084912181E+04  0.10084912181E+04  0.00000000000E+00 0. -1.
         25    2    1    2    0    0  0.12696531545E+03  0.62803580573E+02 -0.20960608322E+03  0.28217908202E+03  0.12500337254E+03 0.  0.
          2    1    1    2  501    0 -0.16366384054E+03  0.63104152957E+00 -0.75180566895E+03  0.76941407238E+03  0.00000000000E+00 0. -1.
          1    1    1    2  502    0  0.36698525091E+02 -0.63434622103E+02  0.67314549698E+03  0.67712302658E+03  0.00000000000E+00 0. -1.
         22    1    3    3    0    0  0.10153684135E+03  0.10019074710E+03 -0.17132297082E+03  0.22293379351E+03  0.00000000000E+00 0.  1.
         22    1    3    3    0    0  0.25428474096E+02 -0.37387166526E+02 -0.38283112397E+02  0.59245288509E+02  0.00000000000E+00 0.  1.
</event>
<event>
 7    1  0.6507405E-006  0.2230854E+03  0.7818608E-02  0.1229050E+00
          2   -1    0    0  502    0  0.00000000000E+00  0.00000000000E+00  0.14603511695E+04  0.14603511695E+04  0.00000000000E+00 0. -1.
          1   -1    0    0  501    0 -0.00000000000E+00 -0.00000000000E+00 -0.19303496525E+03  0.19303496525E+03  0.00000000000E+00 0. -1.
         25    2    1    2    0    0 -0.15541569371E+03  0.22227252511E+03  0.41161762223E+03  0.50854015134E+03  0.12499962127E+03 0.  0.
          2    1    1    2  501    0  0.69078474929E+02 -0.27940480004E+02 -0.12272793394E+03  0.14357803415E+03  0.00000000000E+00 0. -1.
          1    1    1    2  502    0  0.86337218777E+02 -0.19433204510E+03  0.97842651592E+03  0.10012679492E+04  0.00000000000E+00 0. -1.
         22    1    3    3    0    0 -0.15332284148E+03  0.23659679647E+03  0.37496160321E+03  0.46912913116E+03  0.00000000000E+00 0.  1.
         22    1    3    3    0    0 -0.20928522243E+01 -0.14324271364E+02  0.36656019028E+02  0.39411020178E+02  0.00000000000E+00 0.  1.
</event>
<event>
 7    1  0.6507405E-006  0.7958703E+02  0.7818608E-02  0.1433686E+00
          2   -1    0    0  502    0  0.00000000000E+00  0.00000000000E+00  0.10033190274E+04  0.10033190274E+04  0.00000000000E+00 0. -1.
          1   -1    0    0  501    0 -0.00000000000E+00 -0.00000000000E+00 -0.51361868353E+03  0.51361868353E+03  0.00000000000E+00 0. -1.
         25    2    1    2    0    0  0.30646914893E+02  0.61041158456E+02  0.11557107983E+03  0.18343012298E+03  0.12499871641E+03 0.  0.
          2    1    1    2  501    0 -0.20651537609E+01 -0.79954456205E+02 -0.47600755755E+03  0.48268019928E+03  0.00000000000E+00 0. -1.
          1    1    1    2  502    0 -0.28581761132E+02  0.18913297749E+02  0.85013682164E+03  0.85082738872E+03  0.00000000000E+00 0. -1.
         22    1    3    3    0    0 -0.54953967837E+01  0.81910832562E+02  0.28548466388E+02  0.86917195133E+02  0.00000000000E+00 0. -1.
         22    1    3    3    0    0  0.36142311677E+02 -0.20869674106E+02  0.87022613444E+02  0.96512927846E+02  0.00000000000E+00 0. -1.
</event>
<event>
 7    1  0.6507405E-006  0.9501113E+02  0.7818608E-02  0.1402325E+00
          2   -1    0    0  502    0  0.00000000000E+00  0.00000000000E+00  0.15655393293E+04  0.15655393293E+04  0.00000000000E+00 0. -1.
          1   -1    0    0  501    0 -0.00000000000E+00 -0.00000000000E+00 -0.85638937735E+03  0.85638937735E+03  0.00000000000E+00 0. -1.
         25    2    1    2    0    0 -0.40904913688E+02  0.64769576090E+02  0.39488443680E+03  0.42122113842E+03  0.12500087630E+03 0.  0.
          2    1    1    2  501    0  0.18176902232E+02 -0.93414416049E+02 -0.84024550507E+03  0.84561762144E+03  0.00000000000E+00 0. -1.
          1    1    1    2  502    0  0.22728011455E+02  0.28644839959E+02  0.11545110203E+04  0.11550899468E+04  0.00000000000E+00 0. -1.
         22    1    3    3    0    0 -0.31153370539E+02 -0.17653163214E+02  0.26277537344E+03  0.26520381512E+03  0.00000000000E+00 0.  1.
         22    1    3    3    0    0 -0.97515431493E+01  0.82422739304E+02  0.13210906336E+03  0.15601732330E+03  0.00000000000E+00 0.  1.
</event>
<event>
 7    1  0.6507405E-006  0.9750481E+02  0.7818608E-02  0.1386327E+00
          2   -1    0    0  502    0  0.00000000000E+00  0.00000000000E+00  0.44114978366E+03  0.44114978366E+03  0.00000000000E+00 0. -1.
          1   -1    0    0  501    0 -0.00000000000E+00 -0.00000000000E+00 -0.19000273906E+03  0.19000273906E+03  0.00000000000E+00 0. -1.
         25    2    1    2    0    0  0.73414098922E+02 -0.85180838877E+02  0.13145361057E+03  0.21342522780E+03  0.12499948358E+03 0.  0.
          2    1    1    2  501    0 -0.84896847903E+02  0.46357696953E+02 -0.13152660116E+03  0.16326591091E+03  0.00000000000E+00 0. -1.
          1    1    1    2  502    0  0.11482748981E+02  0.38823141924E+02  0.25122003519E+03  0.25446138401E+03  0.00000000000E+00 0. -1.
         22    1    3    3    0    0  0.49460342838E+02 -0.63086528549E+01 -0.89068564324E+01  0.50650337669E+02  0.00000000000E+00 0. -1.
         22    1    3    3    0    0  0.23953756084E+02 -0.78872186022E+02  0.14036046700E+03  0.16277489013E+03  0.00000000000E+00 0. -1.
</event>
<event>
 7    1  0.8103867E-006  0.8488395E+02  0.7818608E-02  0.1461981E+00
          2   -1    0    0  502    0  0.00000000000E+00  0.00000000000E+00  0.18124486698E+04  0.18124486698E+04  0.00000000000E+00 0. -1.
          1   -1    0    0  501    0 -0.00000000000E+00 -0.00000000000E+00 -0.13866642899E+04  0.13866642899E+04  0.00000000000E+00 0. -1.
         25    2    1    2    0    0  0.66984420987E+02  0.42784656686E+02 -0.17440235829E+03  0.22882068381E+03  0.12500113305E+03 0.  0.
          2    1    1    2  501    0 -0.12869268329E+02  0.22672750028E+02 -0.11838990754E+04  0.11841860886E+04  0.00000000000E+00 0. -1.
          1    1    1    2  502    0 -0.54115152658E+02 -0.65457406714E+02  0.17840858136E+04  0.17861061873E+04  0.00000000000E+00 0. -1.
         22    1    3    3    0    0 -0.39078546911E+01 -0.46107807911E+01 -0.13456057181E+03  0.13469624388E+03  0.00000000000E+00 0.  1.
         22    1    3    3    0    0  0.70892275678E+02  0.47395437477E+02 -0.39841786474E+02  0.94124439939E+02  0.00000000000E+00 0.  1.
</event>
<event>
 7    1  0.6507405E-006  0.9530538E+02  0.7818608E-02  0.1312747E+00
          2   -1    0    0  502    0  0.00000000000E+00  0.00000000000E+00  0.39697544539E+03  0.39697544539E+03  0.00000000000E+00 0. -1.
          1   -1    0    0  501    0 -0.00000000000E+00 -0.00000000000E+00 -0.27294525163E+04  0.27294525163E+04  0.00000000000E+00 0. -1.
         25    2    1    2    0    0  0.16637089175E+03  0.26067628384E+02 -0.13657955811E+03  0.25027347031E+03  0.12499615744E+03 0.  0.
          2    1    1    2  501    0 -0.94184663751E+02  0.25913654283E+01 -0.25307041146E+04  0.25324574590E+04  0.00000000000E+00 0. -1.
          1    1    1    2  502    0 -0.72186227999E+02 -0.28658993812E+02  0.33480660181E+03  0.34369703236E+03  0.00000000000E+00 0. -1.
         22    1    3    3    0    0  0.15499622160E+03 -0.16499170361E+02 -0.71032359245E+02  0.17129403782E+03  0.00000000000E+00 0.  1.
         22    1    3    3    0    0  0.11374670145E+02  0.42566798745E+02 -0.65547198866E+02  0.78979432484E+02  0.00000000000E+00 0.  1.
</event>
<event>
 7    1  0.6507405E-006  0.8308241E+02  0.7818608E-02  0.1419866E+00
          2   -1    0    0  502    0  0.00000000000E+00  0.00000000000E+00  0.13869946767E+03  0.13869946767E+03  0.00000000000E+00 0. -1.
          1   -1    0    0  501    0 -0.00000000000E+00 -0.00000000000E+00 -0.77296921974E+03  0.77296921974E+03  0.00000000000E+00 0. -1.
         25    2    1    2    0    0 -0.81050785776E+02 -0.40671587874E+02 -0.31162152992E+03  0.34778567744E+03  0.12499396621E+03 0.  0.
          2    1    1    2  501    0  0.28060704312E+02 -0.23302869639E+02 -0.42809468622E+03  0.42964576948E+03  0.00000000000E+00 0. -1.
          1    1    1    2  502    0  0.52990081464E+02  0.63974457514E+02  0.10544646407E+03  0.13423724049E+03  0.00000000000E+00 0. -1.
         22    1    3    3    0    0 -0.54367248920E+00 -0.66387347472E+02 -0.17460333392E+03  0.18679908913E+03  0.00000000000E+00 0.  1.
         22    1    3    3    0    0 -0.80507113287E+02  0.25715759598E+02 -0.13701819600E+03  0.16098658831E+03  0.00000000000E+00 0.  1.
</event>
<event>
 7    1  0.6507405E-006  0.7829070E+02  0.7818608E-02  0.1416108E+00
          2   -1    0    0  502    0  0.00000000000E+00  0.00000000000E+00  0.96319077509E+02  0.96319077509E+02  0.00000000000E+00 0. -1.
          1   -1    0    0  501    0 -0.00000000000E+00 -0.00000000000E+00 -0.76430003239E+03  0.76430003239E+03  0.00000000000E+00 0. -1.
         25    2    1    2    0    0 -0.47756263252E+01  0.73779737494E+02 -0.26760310602E+03  0.30447222039E+03  0.12500261744E+03 0.  0.
          2    1    1    2  501    0 -0.39082931393E+02 -0.77585359804E+01 -0.45700285033E+03  0.45873660810E+03  0.00000000000E+00 0. -1.
          1    1    1    2  502    0  0.43858557718E+02 -0.66021201513E+02  0.56625001461E+02  0.97410281412E+02  0.00000000000E+00 0. -1.
         22    1    3    3    0    0 -0.33746546146E+02 -0.16951778769E+02 -0.14143602286E+03  0.14639105417E+03  0.00000000000E+00 0. -1.
         22    1    3    3    0    0  0.28970919821E+02  0.90731516263E+02 -0.12616708316E+03  0.15808116621E+03  0.00000000000E+00 0. -1.
</event>
<event>
 7    1  0.6507405E-006  0.9953587E+02  0.7818608E-02  0.1371686E+00
          2   -1    0    0  502    0  0.00000000000E+00  0.00000000000E+00  0.15303307907E+04  0.15303307907E+04  0.00000000000E+00 0. -1.
          1   -1    0    0  501    0 -0.00000000000E+00 -0.00000000000E+00 -0.65047925794E+02  0.65047925794E+02  0.00000000000E+00 0. -1.
         25    2    1    2    0    0 -0.62658058978E+02 -0.91677281021E+02  0.19859685582E+03  0.25960548101E+03  0.12499415355E+03 0.  0.
          2    1    1    2  501    0 -0.21656136277E+02  0.39100773837E+02 -0.17314469077E+02  0.47933804278E+02  0.00000000000E+00 0. -1.
          1    1    1    2  502    0  0.84314195255E+02  0.52576507184E+02  0.12840004782E+04  0.12878394312E+04  0.00000000000E+00 0. -1.
         22    1    3    3    0    0 -0.71655606106E+02 -0.11666210090E+03  0.14289769735E+03  0.19789978166E+03  0.00000000000E+00 0. -1.
         22    1    3    3    0    0  0.89975471281E+01  0.24984819881E+02  0.55699158464E+02  0.61705699350E+02  0.00000000000E+00 0. -1.
</event>
<event>
 7    1  0.6507405E-006  0.4671274E+02  0.7818608E-02  0.1545946E+00
          2   -1    0    0  502    0  0.00000000000E+00  0.00000000000E+00  0.24454453120E+02  0.24454453120E+02  0.00000000000E+00 0. -1.
          1   -1    0    0  501    0 -0.00000000000E+00 -0.00000000000E+00 -0.14085299874E+04  0.14085299874E+04  0.00000000000E+00 0. -1.
         25    2    1    2    0    0  0.67395117086E+02 -0.18791075453E+02 -0.29686115852E+03  0.32961841194E+03  0.12500617476E+03 0.  0.
          2    1    1    2  501    0 -0.40836044517E+02  0.21293494996E+02 -0.10713277310E+04  0.10723171652E+04  0.00000000000E+00 0. -1.
          1    1    1    2  502    0 -0.26559072569E+02 -0.25024195424E+01 -0.15886644779E+02  0.31048863451E+02  0.00000000000E+00 0. -1.
         22    1    3    3    0    0 -0.29592584852E+01 -0.32611074117E+02 -0.10454329844E+02  0.34373425467E+02  0.00000000000E+00 0.  1.
         22    1    3    3    0    0  0.70354375571E+02  0.13819998664E+02 -0.28640682868E+03  0.29524498648E+03  0.00000000000E+00 0.  1.
</event>
<event>
 7    1  0.6507405E-006  0.2722444E+02  0.7818608E-02  0.1636533E+00
          2   -1    0    0  502    0  0.00000000000E+00  0.00000000000E+00  0.91876813607E+03  0.91876813607E+03  0.00000000000E+00 0. -1.
          1   -1    0    0  501    0 -0.00000000000E+00 -0.00000000000E+00 -0.28377664007E+03  0.28377664007E+03  0.00000000000E+00 0. -1.
         25    2    1    2    0    0  0.41975717400E+01  0.11310099661E+01  0.11577702673E+03  0.17043300247E+03  0.12499675844E+03 0.  0.
          2    1    1    2  501    0 -0.23427860361E+01  0.26260340751E+02 -0.25552725154E+03  0.25688376831E+03  0.00000000000E+00 0. -1.
          1    1    1    2  502    0 -0.18547857039E+01 -0.27391350717E+02  0.77474172081E+03  0.77522800536E+03  0.00000000000E+00 0. -1.
         22    1    3    3    0    0 -0.42132181531E+02  0.12989032625E+01  0.11671493925E+03  0.12409345234E+03  0.00000000000E+00 0.  1.
         22    1    3    3    0    0  0.46329753271E+02 -0.16789329640E+00 -0.93791252129E+00  0.46339550129E+02  0.00000000000E+00 0.  1.
</event>
<event>
 7    1  0.6507405E-006  0.8827102E+02  0.7818608E-02  0.1328527E+00
          2   -1    0    0  502    0  0.00000000000E+00  0.00000000000E+00  0.60412338168E+03  0.60412338168E+03  0.00000000000E+00 0. -1.
          1   -1    0    0  501    0 -0.00000000000E+00 -0.00000000000E+00 -0.24529957756E+04  0.24529957756E+04  0.00000000000E+00 0. -1.
         25    2    1    2    0    0 -0.64905390229E+02  0.49876811944E+02 -0.14901560974E+04  0.14976280784E+04  0.12499704207E+03 0.  0.
          2    1    1    2  501    0  0.15460873118E+02 -0.10336386081E+03 -0.95403005829E+03  0.95973771336E+03  0.00000000000E+00 0. -1.
          1    1    1    2  502    0  0.49444517112E+02  0.53487048865E+02  0.59531376170E+03  0.59975336559E+03  0.00000000000E+00 0. -1.
         22    1    3    3    0    0  0.26115254031E+02  0.18695415098E+02 -0.12412487590E+03  0.12821275232E+03  0.00000000000E+00 0.  1.
         22    1    3    3    0    0 -0.91020644261E+02  0.31181396846E+02 -0.13660312215E+04  0.13694153260E+04  0.00000000000E+00 0.  1.
</event>
<event>
 7    1  0.6507405E-006  0.6617367E+02  0.7818608E-02  0.1396167E+00
          2   -1    0    0  502    0  0.00000000000E+00  0.00000000000E+00  0.12293830257E+04  0.12293830257E+04  0.00000000000E+00 0. -1.
          1   -1    0    0  501    0 -0.00000000000E+00 -0.00000000000E+00 -0.23501785562E+03  0.23501785562E+03  0.00000000000E+00 0. -1.
         25    2    1    2    0    0 -0.26851778530E+02  0.31151088055E+02  0.30873679593E+03  0.33561024402E+03  0.12499767373E+03 0.  0.
          2    1    1    2  501    0  0.66455836405E+02  0.71963323465E+01 -0.21567851143E+03  0.22579943686E+03  0.00000000000E+00 0. -1.
          1    1    1    2  502    0 -0.39604057875E+02 -0.38347420401E+02  0.90130688555E+03  0.90299120039E+03  0.00000000000E+00 0. -1.
         22    1    3    3    0    0 -0.46888145597E+02  0.70404166714E+02  0.16733941541E+03  0.18750393286E+03  0.00000000000E+00 0.  1.
         22    1    3    3    0    0  0.20036367067E+02 -0.39253078659E+02  0.14139738052E+03  0.14810631116E+03  0.00000000000E+00 0.  1.
</event>
<event>
 7    1  0.6507405E-006  0.5458011E+02  0.7818608E-02  0.1441586E+00
          2   -1    0    0  502    0  0.00000000000E+00  0.00000000000E+00  0.17038142834E+04  0.17038142834E+04  0.00000000000E+00 0. -1.
          1   -1    0    0  501    0 -0.00000000000E+00 -0.00000000000E+00 -0.41890832313E+02  0.41890832313E+02  0.00000000000E+00 0. -1.
         25    2    1    2    0    0 -0.58241134401E+01 -0.12253247942E+02  0.67037960038E+03  0.68206906840E+03  0.12500137231E+03 0.  0.
          2    1    1    2  501    0  0.52230373236E+02  0.20314520694E+02 -0.13373499749E+02  0.57615467845E+02  0.00000000000E+00 0. -1.
          1    1    1    2  502    0 -0.46406259796E+02 -0.80612727526E+01  0.10049173504E+04  0.10060205794E+04  0.00000000000E+00 0. -1.
         22    1    3    3    0    0 -0.57239951041E+02 -0.22660453073E+01  0.17988785042E+03  0.18878873294E+03  0.00000000000E+00 0. -1.
         22    1    3    3    0    0  0.51415837601E+02 -0.99872026344E+01  0.49049174996E+03  0.49328033546E+03  0.00000000000E+00 0. -1.
</event>
<event>
 7    1  0.6507405E-006  0.1194136E+03  0.7818608E-02  0.1338612E+00
          2   -1    0    0  502    0  0.00000000000E+00  0.00000000000E+00  0.80233787169E+02  0.80233787169E+02  0.00000000000E+00 0. -1.
          1   -1    0    0  501    0 -0.00000000000E+00 -0.00000000000E+00 -0.18239396336E+04  0.18239396336E+04  0.00000000000E+00 0. -1.
         25    2    1    2    0    0 -0.82498119085E+02 -0.65733574663E+02 -0.28125148596E+03  0.32535183865E+03  0.12499831225E+03 0.  0.
          2    1    1    2  501    0  0.23465794076E+02 -0.43353412497E+02 -0.14536375409E+04  0.14544731906E+04  0.00000000000E+00 0. -1.
          1    1    1    2  502    0  0.59032325009E+02  0.10908698716E+03 -0.88168195603E+01  0.12434839151E+03  0.00000000000E+00 0. -1.
         22    1    3    3    0    0 -0.71795242332E+02 -0.11022398623E+02 -0.51773873537E+02  0.89199686512E+02  0.00000000000E+00 0. -1.
         22    1    3    3    0    0 -0.10702876753E+02 -0.54711176040E+02 -0.22947761242E+03  0.23615215213E+03  0.00000000000E+00 0. -1.
</event>
<event>
 7    1  0.6507405E-006  0.7244405E+02  0.7818608E-02  0.1444795E+00
          2   -1    0    0  502    0  0.00000000000E+00  0.00000000000E+00  0.62707520203E+03  0.62707520203E+03  0.00000000000E+00 0. -1.
          1   -1    0    0  501    0 -0.00000000000E+00 -0.00000000000E+00 -0.25204105753E+03  0.25204105753E+03  0.00000000000E+00 0. -1.
         25    2    1    2    0    0  0.85246202099E+02 -0.16750507909E+02  0.58404903397E+02  0.16304497120E+03  0.12500014163E+03 0.  0.
          2    1    1    2  501    0 -0.59713643065E+02  0.40174358369E+02 -0.19262948924E+03  0.20563515838E+03  0.00000000000E+00 0. -1.
          1    1    1    2  502    0 -0.25532559034E+02 -0.23423850460E+02  0.50925873035E+03  0.51043612997E+03  0.00000000000E+00 0. -1.
         22    1    3    3    0    0  0.20647622029E+01 -0.30632339190E+02  0.71396934733E+02  0.77718245840E+02  0.00000000000E+00 0. -1.
         22    1    3    3    0    0  0.83181439897E+02  0.13881831281E+02 -0.12992031336E+02  0.85326725363E+02  0.00000000000E+00 0. -1.
</event>
<event>
 7    1  0.6507405E-006  0.1191309E+03  0.7818608E-02  0.1295497E+00
          2   -1    0    0  502    0  0.00000000000E+00  0.00000000000E+00  0.88404541457E+03  0.88404541457E+03  0.00000000000E+00 0. -1.
          1   -1    0    0  501    0 -0.00000000000E+00 -0.00000000000E+00 -0.11413775046E+04  0.11413775046E+04  0.00000000000E+00 0. -1.
         25    2    1    2    0    0 -0.15835675074E+02 -0.18176038657E+03  0.54853362120E+03  0.59143964052E+03  0.12499643216E+03 0.  0.
          2    1    1    2  501    0  0.38178584664E+02  0.11250702371E+03 -0.11125034440E+04  0.11188294542E+04  0.00000000000E+00 0. -1.
          1    1    1    2  502    0 -0.22342909590E+02  0.69253362864E+02  0.30663773279E+03  0.31515382442E+03  0.00000000000E+00 0. -1.
         22    1    3    3    0    0  0.21944347821E+02 -0.10343532318E+03  0.14995859360E+03  0.18348842001E+03  0.00000000000E+00 0. -1.
         22    1    3    3    0    0 -0.37780022895E+02 -0.78325063389E+02  0.39857502760E+03  0.40795122050E+03  0.00000000000E+00 0. -1.
</event>
<event>
 7    1  0.6507405E-006  0.9109536E+02  0.7818608E-02  0.1369725E+00
          2   -1    0    0  502    0  0.00000000000E+00  0.00000000000E+00  0.17521377278E+04  0.17521377278E+04  0.00000000000E+00 0. -1.
          1   -1    0    0  501    0 -0.00000000000E+00 -0.00000000000E+00 -0.27637461653E+02  0.27637461653E+02  0.00000000000E+00 0. -1.
         25    2    1    2    0    0  0.16599385101E+02  0.46236921622E+02  0.75661592126E+03  0.76844640442E+03  0.12501532568E+03 0.  0.
          2    1    1    2  501    0 -0.47710543222E+02 -0.84914371075E+02  0.91811984940E+02  0.13385136132E+03  0.00000000000E+00 0. -1.
          1    1    1    2  502    0  0.31111158122E+02  0.38677449453E+02  0.87607235994E+03  0.87747742370E+03  0.00000000000E+00 0. -1.
         22    1    3    3    0    0  0.13337313082E+02  0.40552963633E+02  0.71327477131E+02  0.83126624938E+02  0.00000000000E+00 0. -1.
         22    1    3    3    0    0  0.32620720183E+01  0.56839579885E+01  0.68528844413E+03  0.68531977948E+03  0.00000000000E+00 0. -1.
</event>
<event>
 7    1  0.6507405E-006  0.1419931E+03  0.7818608E-02  0.1265488E+00
          2   -1    0    0  502    0  0.00000000000E+00  0.00000000000E+00  0.15641460743E+03  0.15641460743E+03  0.00000000000E+00 0. -1.
          1   -1    0    0  501    0 -0.00000000000E+00 -0.00000000000E+00 -0.10993909713E+04  0.10993909713E+04  0.00000000000E+00 0. -1.
         25    2    1    2    0    0 -0.20608375835E+03  0.46788914946E+02 -0.19922881820E+03  0.31619162665E+03  0.12500121896E+03 0.  0.
          2    1    1    2  501    0  0.79163640614E+02 -0.18133318970E+02 -0.79546325600E+03  0.79959833098E+03  0.00000000000E+00 0. -1.
          1    1    1    2  502    0  0.12692011774E+03 -0.28655595976E+02  0.51715710316E+02  0.14001562113E+03  0.00000000000E+00 0. -1.
         22    1    3    3    0    0 -0.84230059876E+02 -0.28246686948E+02 -0.12939575028E+03  0.15695807880E+03  0.00000000000E+00 0. -1.
         22    1    3    3    0    0 -0.12185369847E+03  0.75035601895E+02 -0.69833067922E+02  0.15923354784E+03  0.00000000000E+00 0. -1.
</event>
<event>
 7    1  0.6507405E-006  0.1322044E+03  0.7818608E-02  0.1437077E+00
          2   -1    0    0  502    0  0.00000000000E+00  0.00000000000E+00  0.85448379033E+03  0.85448379033E+03  0.00000000000E+00 0. -1.
          1   -1    0    0  501    0 -0.00000000000E+00 -0.00000000000E+00 -0.19179129839E+03  0.19179129839E+03  0.00000000000E+00 0. -1.
         25    2    1    2    0    0  0.14537122363E+03  0.23532186570E+02  0.23066330120E+03  0.30086474382E+03  0.12500991597E+03 0.  0.
          2    1    1    2  501    0 -0.13030470817E+03 -0.10208509954E+02 -0.12922228491E+03  0.18379861143E+03  0.00000000000E+00 0. -1.
          1    1    1    2  502    0 -0.15066515455E+02 -0.13323676616E+02  0.56125147565E+03  0.56161173347E+03  0.00000000000E+00 0. -1.
         22    1    3    3    0    0  0.94312038708E+02 -0.39155035236E+02  0.79411828080E+02  0.12936041075E+03  0.00000000000E+00 0. -1.
         22    1    3    3    0    0  0.51059184917E+02  0.62687221807E+02  0.15125147312E+03  0.17150433307E+03  0.00000000000E+00 0. -1.
</event>
<event>
 7    1  0.6507405E-006  0.8763298E+02  0.7818608E-02  0.1473000E+00
          2   -1    0    0  502    0  0.00000000000E+00  0.00000000000E+00  0.56702026516E+03  0.56702026516E+03  0.00000000000E+00 0. -1.
          1   -1    0    0  501    0 -0.00000000000E+00 -0.00000000000E+00 -0.45753289605E+03  0.45753289605E+03  0.00000000000E+00 0. -1.
         25    2    1    2    0    0  0.44150625729E+02 -0.82021988159E+02  0.50225793391E+02  0.16377842030E+03  0.12499542527E+03 0.  0.
          2    1    1    2  501    0 -0.21005814140E+02  0.84952990045E+02 -0.39567674851E+03  0.40523862607E+03  0.00000000000E+00 0. -1.
          1    1    1    2  502    0 -0.23144811589E+02 -0.29310018861E+01  0.45493832423E+03  0.45553611484E+03  0.00000000000E+00 0. -1.
         22    1    3    3    0    0 -0.79333169656E+01 -0.75640014422E+02  0.74050107090E+02  0.10614974168E+03  0.00000000000E+00 0.  1.
         22    1    3    3    0    0  0.52083942695E+02 -0.63819737370E+01 -0.23824313698E+02  0.57628678612E+02  0.00000000000E+00 0.  1.
</event>
<event>
 7    1  0.6507405E-006  0.1083178E+03  0.7818608E-02  0.1358677E+00
          2   -1    0    0  502    0  0.00000000000E+00  0.00000000000E+00  0.61564766555E+02  0.61564766555E+02  0.00000000000E+00 0. -1.
          1   -1    0    0  501    0 -0.00000000000E+00 -0.00000000000E+00 -0.65628136481E+03  0.65628136481E+03  0.00000000000E+00 0. -1.
         25    2    1    2    0    0  0.30673536329E+02  0.65832839950E+02 -0.34572170388E+03  0.37473181695E+03  0.12500243778E+03 0.  0.
          2    1    1    2  501    0  0.34567997814E+02  0.30013406321E+02 -0.21847656204E+03  0.22322132333E+03  0.00000000000E+00 0. -1.
          1    1    1    2  502    0 -0.65241534143E+02 -0.95846246271E+02 -0.30518332333E+02  0.11989299108E+03  0.00000000000E+00 0. -1.
         22    1    3    3    0    0  0.75787601823E+02  0.32773028952E+02 -0.15057796056E+03  0.17173105200E+03  0.00000000000E+00 0.  1.
         22    1    3    3    0    0 -0.45114065494E+02  0.33059810998E+02 -0.19514374333E+03  0.20300076494E+03  0.00000000000E+00 0.  1.
</event>
<event>
 7    1  0.6507405E-006  0.5587767E+02  0.7818608E-02  0.1526089E+00
          2   -1    0    0  502    0  0.00000000000E+00  0.00000000000E+00  0.30651204046E+03  0.30651204046E+03  0.00000000000E+00 0. -1.
          1   -1    0    0  501    0 -0.00000000000E+00 -0.00000000000E+00 -0.10901343556E+04  0.10901343556E+04  0.00000000000E+00 0. -1.
         25    2    1    2    0    0 -0.38791307301E+02 -0.15598119566E+01  0.16637060449E+03  0.21168726334E+03  0.12500048353E+03 0.  0.
          2    1    1    2  501    0  0.52274610975E+02 -0.19961178527E+02 -0.10653607169E+04  0.10668291994E+04  0.00000000000E+00 0. -1.
          1    1    1    2  502    0 -0.13483303674E+02  0.21520990484E+02  0.11536779724E+03  0.11812993333E+03  0.00000000000E+00 0. -1.
         22    1    3    3    0    0 -0.45113905281E+02 -0.12443536099E+02  0.18409390982E+03  0.18994913444E+03  0.00000000000E+00 0.  1.
         22    1    3    3    0    0  0.63225979801E+01  0.10883724142E+02 -0.17723305326E+02  0.21738128901E+02  0.00000000000E+00 0.  1.
</event>
<event>
 7    1  0.6507405E-006  0.1780336E+03  0.7818608E-02  0.1242565E+00
          2   -1    0    0  502    0  0.00000000000E+00  0.00000000000E+00  0.19782198319E+04  0.19782198319E+04  0.00000000000E+00 0. -1.
          1   -1    0    0  501    0 -0.00000000000E+00 -0.00000000000E+00 -0.24913331356E+03  0.24913331356E+03  0.00000000000E+00 0. -1.
         25    2    1    2    0    0 -0.11769622241E+02  0.14009293376E+03 -0.41781198800E+02  0.19269815260E+03  0.12498942094E+03 0.  0.
          2    1    1    2  501    0  0.76423849557E+02  0.27789493169E+02 -0.11465715956E+03  0.14056715459E+03  0.00000000000E+00 0. -1.
          1    1    1    2  502    0 -0.64654227316E+02 -0.16788242693E+03  0.18855248767E+04  0.18940878383E+04  0.00000000000E+00 0. -1.
         22    1    3    3    0    0  0.48559941046E+02  0.39417064480E+02  0.11850410936E+02  0.63656932740E+02  0.00000000000E+00 0. -1.
         22    1    3    3    0    0 -0.60329563286E+02  0.10067586928E+03 -0.53631609736E+02  0.12904121986E+03  0.00000000000E+00 0. -1.
</event>
<event>
 7    1  0.6507405E-006  0.6649135E+02  0.7818608E-02  0.1378981E+00
          2   -1    0    0  502    0  0.00000000000E+00  0.00000000000E+00  0.10980866961E+04  0.10980866961E+04  0.00000000000E+00 0. -1.
          1   -1    0    0  501    0 -0.00000000000E+00 -0.00000000000E+00 -0.16260178632E+03  0.16260178632E+03  0.00000000000E+00 0. -1.
         25    2    1    2    0    0 -0.10774696002E+03  0.44620042798E+02  0.92603056129E+02  0.19442574507E+03  0.12500275489E+03 0.  0.
          2    1    1    2  501    0  0.63808933697E+02  0.55720266190E+00 -0.10143943498E+03  0.11984093401E+03  0.00000000000E+00 0. -1.
          1    1    1    2  502    0  0.43938026322E+02 -0.45177245459E+02  0.94432128863E+03  0.94642180333E+03  0.00000000000E+00 0. -1.
         22    1    3    3    0    0  0.26216764236E+02 -0.35376675323E+01  0.26589569554E+02  0.37507852880E+02  0.00000000000E+00 0.  1.
         22    1    3    3    0    0 -0.13396372426E+03  0.48157710330E+02  0.66013486575E+02  0.15691789219E+03  0.00000000000E+00 0.  1.
</event>
<event>
 7    1  0.6507405E-006  0.3631355E+02  0.7818608E-02  0.1583684E+00
          2   -1    0    0  502    0  0.00000000000E+00  0.00000000000E+00  0.81917203432E+02  0.81917203432E+02  0.00000000000E+00 0. -1.
          1   -1    0    0  501    0 -0.00000000000E+00 -0.00000000000E+00 -0.92284001240E+03  0.92284001240E+03  0.00000000000E+00 0. -1.
         25    2    1    2    0    0  0.51621054580E+01 -0.37131756621E+02 -0.15907811007E+03  0.20575753580E+03  0.12499961501E+03 0.  0.
          2    1    1    2  501    0 -0.26098379175E+02  0.71328506147E+01 -0.73443720960E+03  0.73493538342E+03  0.00000000000E+00 0. -1.
          1    1    1    2  502    0  0.20936273717E+02  0.29998906006E+02  0.52592510701E+02  0.64064296613E+02  0.00000000000E+00 0. -1.
         22    1    3    3    0    0  0.23871041917E+02 -0.59932726425E+02 -0.26172602470E+02  0.69618700498E+02  0.00000000000E+00 0.  1.
         22    1    3    3    0    0 -0.18708936459E+02  0.22800969804E+02 -0.13290550760E+03  0.13613883530E+03  0.00000000000E+00 0.  1.
</event>
<event>
 7    1  0.6507405E-006  0.1364360E+03  0.7818608E-02  0.1302904E+00
          2   -1    0    0  502    0  0.00000000000E+00  0.00000000000E+00  0.21989480057E+03  0.21989480057E+03  0.00000000000E+00 0. -1.
          1   -1    0    0  501    0 -0.00000000000E+00 -0.00000000000E+00 -0.96760859452E+03  0.96760859452E+03  0.00000000000E+00 0. -1.
         25    2    1    2    0    0 -0.29558410652E+02  0.14581284820E+03 -0.80023451495E+03  0.82348996095E+03  0.12500140212E+03 0.  0.
          2    1    1    2  501    0 -0.48625347972E+02 -0.34012380807E+02 -0.12603416204E+03  0.13930497663E+03  0.00000000000E+00 0. -1.
          1    1    1    2  502    0  0.78183758625E+02 -0.11180046739E+03  0.17855488304E+03  0.22470845751E+03  0.00000000000E+00 0. -1.
         22    1    3    3    0    0 -0.41849879748E+02 -0.24063551455E+01 -0.11778313944E+03  0.12502028202E+03  0.00000000000E+00 0.  1.
         22    1    3    3    0    0  0.12291469096E+02  0.14821920334E+03 -0.68245137551E+03  0.69846967893E+03  0.00000000000E+00 0.  1.
</event>
<event>
 7    1  0.6507405E-006  0.2340491E+03  0.7818608E-02  0.1146706E+00
          2   -1    0    0  502    0  0.00000000000E+00  0.00000000000E+00  0.30230729040E+03  0.30230729040E+03  0.00000000000E+00 0. -1.
          1   -1    0    0  501    0 -0.00000000000E+00 -0.00000000000E+00 -0.88685949719E+03  0.88685949719E+03  0.00000000000E+00 0. -1.
         25    2    1    2    0    0 -0.34812825516E+03  0.17571093949E+02 -0.11306662229E+03  0.38718294665E+03  0.12499819086E+03 0.  0.
          2    1    1    2  501    0  0.20373270813E+03  0.85101506223E+02 -0.56142899905E+03  0.60328418154E+03  0.00000000000E+00 0. -1.
          1    1    1    2  502    0  0.14439554703E+03 -0.10267260017E+03  0.89943414542E+02  0.19869965940E+03  0.00000000000E+00 0. -1.
         22    1    3    3    0    0 -0.21870255341E+03 -0.49671232472E+02 -0.74442460719E+02  0.23630429146E+03  0.00000000000E+00 0.  1.
         22    1    3    3    0    0 -0.12942570175E+03  0.67242326421E+02 -0.38624161568E+02  0.15087865519E+03  0.00000000000E+00 0.  1.
</event>
<event>
 7    1  0.6507405E-006  0.7483232E+02  0.7818608E-02  0.1392429E+00
          2   -1    0    0  502    0  0.00000000000E+00  0.00000000000E+00  0.22986224086E+04  0.22986224086E+04  0.00000000000E+00 0. -1.
          1   -1    0    0  501    0 -0.00000000000E+00 -0.00000000000E+00 -0.95676369732E+01  0.95676369732E+01  0.00000000000E+00 0. -1.
         25    2    1    2    0    0 -0.75047484923E+02 -0.11937952951E+02  0.85649114960E+03  0.86889406386E+03  0.12500066063E+03 0.  0.
          2    1    1    2  501    0  0.71305701041E+02 -0.38147861131E+02  0.63109720215E+03  0.63625736999E+03  0.00000000000E+00 0. -1.
          1    1    1    2  502    0  0.37417838830E+01  0.50085814082E+02  0.80146641989E+03  0.80303861173E+03  0.00000000000E+00 0. -1.
         22    1    3    3    0    0 -0.61271158821E+02  0.23958237070E+02  0.78471882334E+03  0.78747176695E+03  0.00000000000E+00 0. -1.
         22    1    3    3    0    0 -0.13776326103E+02 -0.35896190020E+02  0.71772326254E+02  0.81422296914E+02  0.00000000000E+00 0. -1.
</event>
<event>
 7    1  0.6507405E-006  0.6006838E+02  0.7818608E-02  0.1521111E+00
          2   -1    0    0  502    0  0.00000000000E+00  0.00000000000E+00  0.12187751214E+04  0.12187751214E+04  0.00000000000E+00 0. -1.
          1   -1    0    0  501    0 -0.00000000000E+00 -0.00000000000E+00 -0.16447751617E+03  0.16447751617E+03  0.00000000000E+00 0. -1.
         25    2    1    2    0    0 -0.26629052781E+02  0.79783028523E+02  0.98266906452E+03  0.99415219918E+03  0.12500266674E+03 0.  0.
          2    1    1    2  501    0  0.16213463301E+02 -0.57695931267E+02 -0.15239197392E+03  0.16375289491E+03  0.00000000000E+00 0. -1.
          1    1    1    2  502    0  0.10415589480E+02 -0.22087097256E+02  0.22402051465E+03  0.22534754348E+03  0.00000000000E+00 0. -1.
         22    1    3    3    0    0 -0.40841244456E+02  0.70707496752E+02  0.96902948696E+03  0.97246372886E+03  0.00000000000E+00 0.  1.
         22    1    3    3    0    0  0.14212191675E+02  0.90755317712E+01  0.13639577556E+02  0.21688470325E+02  0.00000000000E+00 0.  1.
</event>
<event>
 7    1  0.6507405E-006  0.1228206E+03  0.7818608E-02  0.1285696E+00
          2   -1    0    0  502    0  0.00000000000E+00  0.00000000000E+00  0.68952137224E+03  0.68952137224E+03  0.00000000000E+00 0. -1.
          1   -1    0    0  501    0 -0.00000000000E+00 -0.00000000000E+00 -0.86040815644E+03  0.86040815644E+03  0.00000000000E+00 0. -1.
         25    2    1    2    0    0 -0.11202789888E+03  0.33126596214E+02 -0.27282771531E+03  0.32203666156E+03  0.12500011057E+03 0.  0.
          2    1    1    2  501    0  0.39358681672E+02  0.66599667333E+02 -0.55454293054E+03  0.55991292477E+03  0.00000000000E+00 0. -1.
          1    1    1    2  502    0  0.72669217212E+02 -0.99726263547E+02  0.65648386165E+03  0.66797994235E+03  0.00000000000E+00 0. -1.
         22    1    3    3    0    0 -0.72413405199E+02 -0.37420272404E+02 -0.18748645885E+03  0.20443862231E+03  0.00000000000E+00 0.  1.
         22    1    3    3    0    0 -0.39614493685E+02  0.70546868618E+02 -0.85341256454E+02  0.11759803925E+03  0.00000000000E+00 0.  1.
</event>
<event>
 7    1  0.6507405E-006  0.3271792E+03  0.7818608E-02  0.1148796E+00
          2   -1    0    0  502    0  0.00000000000E+00  0.00000000000E+00  0.54375567456E+03  0.54375567456E+03  0.00000000000E+00 0. -1.
          1   -1    0    0  501    0 -0.00000000000E+00 -0.00000000000E+00 -0.71896601267E+03  0.71896601267E+03  0.00000000000E+00 0. -1.
         25    2    1    2    0    0 -0.24206993517E+03  0.22889463541E+03 -0.74801826436E+02  0.36360767935E+03  0.12499849445E+03 0.  0.
          2    1    1    2  501    0 -0.64854111982E+02 -0.10525737702E+03 -0.42076501066E+03  0.43855258003E+03  0.00000000000E+00 0. -1.
          1    1    1    2  502    0  0.30692404715E+03 -0.12363725839E+03  0.32035649898E+03  0.46056142785E+03  0.00000000000E+00 0. -1.
         22    1    3    3    0    0 -0.52834064902E+02 -0.64862632350E+01 -0.18727978988E+02  0.56429134512E+02  0.00000000000E+00 0.  1.
         22    1    3    3    0    0 -0.18923587027E+03  0.23538089864E+03 -0.56073847449E+02  0.30717854484E+03  0.00000000000E+00 0.  1.
</event>
<event>
 7    1  0.6507405E-006  0.2087236E+03  0.7818608E-02  0.1286440E+00
          2   -1    0    0  502    0  0.00000000000E+00  0.00000000000E+00  0.29141995788E+04  0.29141995788E+04  0.00000000000E+00 0. -1.
          1   -1    0    0  501    0 -0.00000000000E+00 -0.00000000000E+00 -0.78391385409E+02  0.78391385409E+02  0.00000000000E+00 0. -1.
         25    2    1    2    0    0  0.17112215895E+03  0.27938253305E+02  0.77581457360E+03  0.80472112315E+03  0.12499797656E+03 0.  0.
          2    1    1    2  501    0 -0.21593670106E+03 -0.22020476513E+02  0.12130305174E+03  0.24865234890E+03  0.00000000000E+00 0. -1.
          1    1    1    2  502    0  0.44814542111E+02 -0.59177767921E+01  0.19386905681E+04  0.19392174922E+04  0.00000000000E+00 0. -1.
         22    1    3    3    0    0  0.13695335260E+03  0.43532964074E+02  0.36619080481E+03  0.39337900970E+03  0.00000000000E+00 0. -1.
         22    1    3    3    0    0  0.34168806350E+02 -0.15594710770E+02  0.40962376879E+03  0.41134211344E+03  0.00000000000E+00 0. -1.
</event>
<event>
 7    1  0.6507405E-006  0.1902142E+03  0.7818608E-02  0.1281920E+00
          2   -1    0    0  502    0  0.00000000000E+00  0.00000000000E+00  0.21649594932E+03  0.21649594932E+03  0.00000000000E+00 0. -1.
          1   -1    0    0  501    0 -0.00000000000E+00 -0.00000000000E+00 -0.32215066462E+04  0.32215066462E+04  0.00000000000E+00 0. -1.
         25    2    1    2    0    0  0.22412413322E+02 -0.15231814720E+03 -0.20264019237E+03  0.28353663597E+03  0.12500736832E+03 0.  0.
          2    1    1    2  501    0  0.34990648378E+02 -0.38151149276E+02 -0.29219183265E+04  0.29223768687E+04  0.00000000000E+00 0. -1.
          1    1    1    2  502    0 -0.57403061700E+02  0.19046929647E+03  0.11954782196E+03  0.23208909093E+03  0.00000000000E+00 0. -1.
         22    1    3    3    0    0  0.46583481077E+02 -0.21565985160E+02 -0.14850837368E+02  0.53438373813E+02  0.00000000000E+00 0. -1.
         22    1    3    3    0    0 -0.24171067755E+02 -0.13075216204E+03 -0.18778935500E+03  0.23009826215E+03  0.00000000000E+00 0. -1.
</event>
<event>
 7    1  0.6507405E-006  0.1755486E+03  0.7818608E-02  0.1228477E+00
          2   -1    0    0  502    0  0.00000000000E+00  0.00000000000E+00  0.23135560460E+03  0.23135560460E+03  0.00000000000E+00 0. -1.
          1   -1    0    0  501    0 -0.00000000000E+00 -0.00000000000E+00 -0.65463749203E+03  0.65463749203E+03  0.00000000000E+00 0. -1.
         25    2    1    2    0    0 -0.10594691212E+03  0.20332993555E+03 -0.43595454218E+03  0.50818365144E+03  0.12500579932E+03 0.  0.
          2    1    1    2  501    0  0.73725579600E+02 -0.11368837085E+03 -0.14192432203E+03  0.19622186406E+03  0.00000000000E+00 0. -1.
          1    1    1    2  502    0  0.32221332524E+02 -0.89641564707E+02  0.15459697677E+03  0.18158758113E+03  0.00000000000E+00 0. -1.
         22    1    3    3    0    0  0.17332342981E+02  0.25099264728E+01 -0.75758210751E+02  0.77756133779E+02  0.00000000000E+00 0.  1.
         22    1    3    3    0    0 -0.12327925510E+03  0.20082000908E+03 -0.36019633142E+03  0.43042751766E+03  0.00000000000E+00 0.  1.
</event>
<event>
 7    1  0.6507405E-006  0.1776636E+03  0.7818608E-02  0.1236066E+00
          2   -1    0    0  502    0  0.00000000000E+00  0.00000000000E+00  0.15359012301E+04  0.15359012301E+04  0.00000000000E+00 0. -1.
          1   -1    0    0  501    0 -0.00000000000E+00 -0.00000000000E+00 -0.12122705858E+04  0.12122705858E+04  0.00000000000E+00 0. -1.
         25    2    1    2    0    0 -0.11480012909E+03  0.16894982227E+03 -0.19867531462E+03  0.31115941536E+03  0.12500075617E+03 0.  0.
          2    1    1    2  501    0  0.15149980690E+03 -0.90008906966E+02 -0.94794549812E+03  0.96418590647E+03  0.00000000000E+00 0. -1.
          1    1    1    2  502    0 -0.36699677806E+02 -0.78940915304E+02  0.14702514571E+04  0.14728264941E+04  0.00000000000E+00 0. -1.
         22    1    3    3    0    0 -0.78648901018E+02  0.84932728198E+02 -0.30475783939E+02  0.11969958796E+03  0.00000000000E+00 0. -1.
         22    1    3    3    0    0 -0.36151228076E+02  0.84017094072E+02 -0.16819953068E+03  0.19145982740E+03  0.00000000000E+00 0. -1.
</event>
<event>
 7    1  0.6507405E-006  0.7496001E+02  0.7818608E-02  0.1470818E+00
          2   -1    0    0  502    0  0.00000000000E+00  0.00000000000E+00  0.11750932714E+04  0.11750932714E+04  0.00000000000E+00 0. -1.
          1   -1    0    0  501    0 -0.00000000000E+00 -0.00000000000E+00 -0.79660728297E+03  0.79660728297E+03  0.00000000000E+00 0. -1.
         25    2    1    2    0    0  0.53280532477E+02  0.29683887801E+02  0.37457257014E+03  0.39956233052E+03  0.12500198931E+03 0.  0.
          2    1    1    2  501    0 -0.11270323478E+01  0.27679485770E+02 -0.78195969712E+03  0.78245024893E+03  0.00000000000E+00 0. -1.
          1    1    1    2  502    0 -0.52153500129E+02 -0.57363373571E+02  0.78587311540E+03  0.78968797491E+03  0.00000000000E+00 0. -1.
         22    1    3    3    0    0  0.21514297791E+02  0.16163599253E+02  0.36172646096E+03  0.36272601162E+03  0.00000000000E+00 0.  1.
         22    1    3    3    0    0  0.31766234686E+02  0.13520288548E+02  0.12846109182E+02  0.36836318894E+02  0.00000000000E+00 0.  1.
</event>
<event>
 7    1  0.6507405E-006  0.1264745E+03  0.7818608E-02  0.1396013E+00
          2   -1    0    0  502    0  0.00000000000E+00  0.00000000000E+00  0.38358063857E+04  0.38358063857E+04  0.00000000000E+00 0. -1.
          1   -1    0    0  501    0 -0.00000000000E+00 -0.00000000000E+00 -0.81463137781E+02  0.81463137781E+02  0.00000000000E+00 0. -1.
         25    2    1    2    0    0 -0.60797015644E+02 -0.10135051388E+03  0.22572795903E+03  0.28380675937E+03  0.12499984561E+03 0.  0.
          2    1    1    2  501    0 -0.27145673322E+02  0.98540074492E+01 -0.47233673970E+02  0.55362523422E+02  0.00000000000E+00 0. -1.
          1    1    1    2  502    0  0.87942688966E+02  0.91496506426E+02  0.35758489628E+04  0.35781002407E+04  0.00000000000E+00 0. -1.
         22    1    3    3    0    0 -0.50529828285E+02 -0.11959183345E+02  0.14041621779E+02  0.53790824078E+02  0.00000000000E+00 0.  1.
         22    1    3    3    0    0 -0.10267187359E+02 -0.89391330530E+02  0.21168633725E+03  0.23001593529E+03  0.00000000000E+00 0.  1.
</event>
<event>
 7    1  0.6507405E-006  0.1958954E+03  0.7818608E-02  0.1220187E+00
          2   -1    0    0  502    0  0.00000000000E+00  0.00000000000E+00  0.35569620164E+04  0.35569620164E+04  0.00000000000E+00 0. -1.
          1   -1    0    0  501    0 -0.00000000000E+00 -0.00000000000E+00 -0.29389835326E+03  0.29389835326E+03  0.00000000000E+00 0. -1.
         25    2    1    2    0    0 -0.16588731958E+03  0.21965585263E+03  0.43801406844E+03  0.53221192378E+03  0.12500364503E+03 0.  0.
          2    1    1    2  501    0  0.78778431334E+02 -0.49550234997E+02 -0.23493747923E+03  0.25269920099E+03  0.00000000000E+00 0. -1.
          1    1    1    2  502    0  0.87108888242E+02 -0.17010561763E+03  0.30599870739E+04  0.30659492449E+04  0.00000000000E+00 0. -1.
         22    1    3    3    0    0 -0.22099923721E+02  0.12916735812E+03  0.21615871546E+03  0.25277896135E+03  0.00000000000E+00 0. -1.
         22    1    3    3    0    0 -0.14378739585E+03  0.90488494512E+02  0.22185535298E+03  0.27943296243E+03  0.00000000000E+00 0. -1.
</event>
<event>
 7    1  0.6507405E-006  0.6404835E+02  0.7818608E-02  0.1452052E+00
          2   -1    0    0  502    0  0.00000000000E+00  0.00000000000E+00  0.14198532830E+04  0.14198532830E+04  0.00000000000E+00 0. -1.
          1   -1    0    0  501    0 -0.00000000000E+00 -0.00000000000E+00 -0.16272611893E+03  0.16272611893E+03  0.00000000000E+00 0. -1.
         25    2    1    2    0    0  0.24380060819E+02  0.12534499090E+02  0.18032744577E+02  0.12923597032E+03  0.12500102046E+03 0.  0.
          2    1    1    2  501    0  0.33209306287E+02  0.16644298324E+02 -0.10310483791E+03  0.10959241895E+03  0.00000000000E+00 0. -1.
          1    1    1    2  502    0 -0.57589367105E+02 -0.29178797413E+02  0.13421992574E+04  0.13437510126E+04  0.00000000000E+00 0. -1.
         22    1    3    3    0    0  0.52322157161E+02  0.37552264471E+02  0.48736832645E+02  0.80765460149E+02  0.00000000000E+00 0.  1.
         22    1    3    3    0    0 -0.27942096342E+02 -0.25017765381E+02 -0.30704088067E+02  0.48470510176E+02  0.00000000000E+00 0.  1.
</event>
<event>
 7    1  0.6507405E-006  0.3936861E+02  0.7818608E-02  0.1578148E+00
          2   -1    0    0  502    0  0.00000000000E+00  0.00000000000E+00  0.22877104976E+03  0.22877104976E+03  0.00000000000E+00 0. -1.
          1   -1    0    0  501    0 -0.00000000000E+00 -0.00000000000E+00 -0.65656365960E+03  0.65656365960E+03  0.00000000000E+00 0. -1.
         25    2    1    2    0    0 -0.29922550893E+02 -0.17740202888E+02  0.52180253790E+02  0.13984791082E+03  0.12499834169E+03 0.  0.
          2    1    1    2  501    0  0.16244512732E+02 -0.20073128292E+02 -0.60940519922E+03  0.60995205673E+03  0.00000000000E+00 0. -1.
          1    1    1    2  502    0  0.13678038160E+02  0.37813331180E+02  0.12943233559E+03  0.13553474181E+03  0.00000000000E+00 0. -1.
         22    1    3    3    0    0  0.12674766225E+02  0.43041225640E+02  0.47706313993E+02  0.65491138319E+02  0.00000000000E+00 0.  1.
         22    1    3    3    0    0 -0.42597317118E+02 -0.60781428528E+02  0.44739397975E+01  0.74356772502E+02  0.00000000000E+00 0.  1.
</event>
<event>
 7    1  0.6507405E-006  0.3677668E+03  0.7818608E-02  0.1271152E+00
          2   -1    0    0  502    0  0.00000000000E+00  0.00000000000E+00  0.17359981591E+03  0.17359981591E+03  0.00000000000E+00 0. -1.
          1   -1    0    0  501    0 -0.00000000000E+00 -0.00000000000E+00 -0.12894379625E+04  0.12894379625E+04  0.00000000000E+00 0. -1.
         25    2    1    2    0    0  0.12958032510E+03 -0.33608371905E+03 -0.45152436836E+03  0.59097315827E+03  0.12502676397E+03 0.  0.
          2    1    1    2  501    0 -0.10849144118E+03  0.35696917983E+03 -0.71889072507E+03  0.80993904879E+03  0.00000000000E+00 0. -1.
          1    1    1    2  502    0 -0.21088883925E+02 -0.20885460782E+02  0.54576946805E+02  0.62125571385E+02  0.00000000000E+00 0. -1.
         22    1    3    3    0    0  0.12925644714E+02 -0.20977647153E+02 -0.10671852937E+03  0.10952615433E+03  0.00000000000E+00 0.  1.
         22    1    3    3    0    0  0.11665468039E+03 -0.31510607190E+03 -0.34480583899E+03  0.48144700394E+03  0.00000000000E+00 0.  1.
</event>
<event>
 7    1  0.6507405E-006  0.3538397E+02  0.7818608E-02  0.1614635E+00
          2   -1    0    0  502    0  0.00000000000E+00  0.00000000000E+00  0.12973202354E+02  0.12973202354E+02  0.00000000000E+00 0. -1.
          1   -1    0    0  501    0 -0.00000000000E+00 -0.00000000000E+00 -0.24576754788E+04  0.24576754788E+04  0.00000000000E+00 0. -1.
         25    2    1    2    0    0 -0.55372202910E+02 -0.15135921523E+02 -0.18026158396E+04  0.18078564502E+04  0.12500360959E+03 0.  0.
          2    1    1    2  501    0  0.20714773250E+02  0.10095145394E+02 -0.62198427740E+03  0.62241100177E+03  0.00000000000E+00 0. -1.
          1    1    1    2  502    0  0.34657429660E+02  0.50407761292E+01 -0.20102159429E+02  0.40381229158E+02  0.00000000000E+00 0. -1.
         22    1    3    3    0    0 -0.30005622808E+02 -0.80065765031E+01 -0.17351465379E+04  0.17354244295E+04  0.00000000000E+00 0. -1.
         22    1    3    3    0    0 -0.25366580102E+02 -0.71293450197E+01 -0.67469301753E+02  0.72432020719E+02  0.00000000000E+00 0. -1.
</event>
<event>
 7    1  0.6507405E-006  0.1569201E+03  0.7818608E-02  0.1247479E+00
          2   -1    0    0  502    0  0.00000000000E+00  0.00000000000E+00  0.13287468421E+04  0.13287468421E+04  0.00000000000E+00 0. -1.
          1   -1    0    0  501    0 -0.00000000000E+00 -0.00000000000E+00 -0.79145780479E+03  0.79145780479E+03  0.00000000000E+00 0. -1.
         25    2    1    2    0    0 -0.15529559442E+02  0.23166081727E+03 -0.26057499776E+01  0.26371231972E+03  0.12501798336E+03 0.  0.
          2    1    1    2  501    0  0.38944578174E+02 -0.14703361621E+03 -0.64787037844E+03  0.66548598161E+03  0.00000000000E+00 0. -1.
          1    1    1    2  502    0 -0.23415018731E+02 -0.84627201065E+02  0.11877651657E+04  0.11910063456E+04  0.00000000000E+00 0. -1.
         22    1    3    3    0    0  0.30340024039E+02  0.17065360989E+02 -0.25395437374E+02  0.43089115142E+02  0.00000000000E+00 0. -1.
         22    1    3    3    0    0 -0.45869583481E+02  0.21459545629E+03  0.22789687396E+02  0.22062320458E+03  0.00000000000E+00 0. -1.
</event>
<event>
 7    1  0.6507405E-006  0.8628660E+02  0.7818608E-02  0.1413652E+00
          2   -1    0    0  502    0  0.00000000000E+00  0.00000000000E+00  0.22668253590E+04  0.22668253590E+04  0.00000000000E+00 0. -1.
          1   -1    0    0  501    0 -0.00000000000E+00 -0.00000000000E+00 -0.60877877223E+02  0.60877877223E+02  0.00000000000E+00 0. -1.
         25    2    1    2    0    0  0.34321336200E+02 -0.66030343887E+02  0.22270485695E+03  0.26600848888E+03  0.12500040966E+03 0.  0.
          2    1    1    2  501    0 -0.60976759723E+01  0.89719800106E+02  0.12713364023E+02  0.90820998718E+02  0.00000000000E+00 0. -1.
          1    1    1    2  502    0 -0.28223660228E+02 -0.23689456219E+02  0.19705292608E+04  0.19708737486E+04  0.00000000000E+00 0. -1.
         22    1    3    3    0    0  0.16226756918E+02  0.24689630071E+02  0.13616375389E+03  0.13933216910E+03  0.00000000000E+00 0. -1.
         22    1    3    3    0    0  0.18094579282E+02 -0.90719973959E+02  0.86541103064E+02  0.12667631978E+03  0.00000000000E+00 0. -1.
</event>
<event>
 7    1  0.6507405E-006  0.8613954E+02  0.7818608E-02  0.1350539E+00
          2   -1    0    0  502    0  0.00000000000E+00  0.00000000000E+00  0.20301910848E+04  0.20301910848E+04  0.00000000000E+00 0. -1.
          1   -1    0    0  501    0 -0.00000000000E+00 -0.00000000000E+00 -0.87346265683E+03  0.87346265683E+03  0.00000000000E+00 0. -1.
         25    2    1    2    0    0 -0.11817468160E+03 -0.77253793676E+02  0.11177122979E+03  0.21920579905E+03  0.12499988208E+03 0.  0.
          2    1    1    2  501    0  0.37908718538E+02  0.48648993770E+02 -0.81760987064E+03  0.81993273877E+03  0.00000000000E+00 0. -1.
          1    1    1    2  502    0  0.80265963058E+02  0.28604799907E+02  0.18625670689E+04  0.18645152039E+04  0.00000000000E+00 0. -1.
         22    1    3    3    0    0  0.13990639251E+02  0.19884847609E+02  0.18187123847E+02  0.30363079964E+02  0.00000000000E+00 0. -1.
         22    1    3    3    0    0 -0.13216532085E+03 -0.97138641285E+02  0.93584105946E+02  0.18884271908E+03  0.00000000000E+00 0. -1.
</event>
<event>
 7    1  0.6507405E-006  0.6001448E+02  0.7818608E-02  0.1454076E+00
          2   -1    0    0  502    0  0.00000000000E+00  0.00000000000E+00  0.12817207625E+04  0.12817207625E+04  0.00000000000E+00 0. -1.
          1   -1    0    0  501    0 -0.00000000000E+00 -0.00000000000E+00 -0.87538171162E+02  0.87538171162E+02  0.00000000000E+00 0. -1.
         25    2    1    2    0    0 -0.10792447793E+02  0.50975414592E+02  0.43429020643E+03  0.45491507104E+03  0.12499907454E+03 0.  0.
          2    1    1    2  501    0  0.38806384164E+02  0.44377745959E+01 -0.71053339411E+02  0.81081479616E+02  0.00000000000E+00 0. -1.
          1    1    1    2  502    0 -0.28013936371E+02 -0.55413189188E+02  0.83094572437E+03  0.83326238305E+03  0.00000000000E+00 0. -1.
         22    1    3    3    0    0  0.34402653930E+01 -0.32417242322E+02  0.39755264882E+02  0.51412003575E+02  0.00000000000E+00 0. -1.
         22    1    3    3    0    0 -0.14232713186E+02  0.83392656914E+02  0.39453494155E+03  0.40350306747E+03  0.00000000000E+00 0. -1.
</event>
<event>
 7    1  0.6507405E-006  0.5318493E+02  0.7818608E-02  0.1507657E+00
          2   -1    0    0  502    0  0.00000000000E+00  0.00000000000E+00  0.20738225815E+03  0.20738225815E+03  0.00000000000E+00 0. -1.
          1   -1    0    0  501    0 -0.00000000000E+00 -0.00000000000E+00 -0.33165465217E+03  0.33165465217E+03  0.00000000000E+00 0. -1.
         25    2    1    2    0    0  0.76623914812E+02  0.28266790033E+02 -0.40132072676E+02  0.15460951672E+03  0.12499313447E+03 0.  0.
          2    1    1    2  501    0 -0.49604731601E+02 -0.14782081013E+02 -0.22985797391E+03  0.23561372517E+03  0.00000000000E+00 0. -1.
          1    1    1    2  502    0 -0.27019183211E+02 -0.13484709021E+02  0.14571765257E+03  0.14881366842E+03  0.00000000000E+00 0. -1.
         22    1    3    3    0    0  0.84848807693E+02  0.59140857356E+02 -0.14616031141E+00  0.10342621785E+03  0.00000000000E+00 0.  1.
         22    1    3    3    0    0 -0.82248928810E+01 -0.30874067323E+02 -0.39985912364E+02  0.51183298873E+02  0.00000000000E+00 0.  1.
</event>
<event>
 7    1  0.6507405E-006  0.7801597E+02  0.7818608E-02  0.1397891E+00
          2   -1    0    0  502    0  0.00000000000E+00  0.00000000000E+00  0.22830197987E+04  0.22830197987E+04  0.00000000000E+00 0. -1.
          1   -1    0    0  501    0 -0.00000000000E+00 -0.00000000000E+00 -0.24186338939E+03  0.24186338939E+03  0.00000000000E+00 0. -1.
         25    2    1    2    0    0  0.96567291674E+02  0.10172336967E+02  0.12273658422E+04  0.12375304579E+04  0.12500402082E+03 0.  0.
          2    1    1    2  501    0 -0.64701860498E+02 -0.43517360668E+02 -0.22983837179E+03  0.24270510621E+03  0.00000000000E+00 0. -1.
          1    1    1    2  502    0 -0.31865431176E+02  0.33345023701E+02  0.10436289388E+04  0.10446476240E+04  0.00000000000E+00 0. -1.
         22    1    3    3    0    0  0.99009503271E+02 -0.40507041311E+02  0.88011354674E+03  0.88659097519E+03  0.00000000000E+00 0.  1.
         22    1    3    3    0    0 -0.24422115973E+01  0.50679378278E+02  0.34725229550E+03  0.35093948268E+03  0.00000000000E+00 0.  1.
</event>
<event>
 7    1  0.6507405E-006  0.3680877E+02  0.7818608E-02  0.1569134E+00
          2   -1    0    0  502    0  0.00000000000E+00  0.00000000000E+00  0.13025277896E+04  0.13025277896E+04  0.00000000000E+00 0. -1.
          1   -1    0    0  501    0 -0.00000000000E+00 -0.00000000000E+00 -0.29200276124E+03  0.29200276124E+03  0.00000000000E+00 0. -1.
         25    2    1    2    0    0  0.85660017190E+01  0.16196938475E+02  0.37615359534E+02  0.13181802954E+03  0.12500144175E+03 0.  0.
          2    1    1    2  501    0 -0.36460760491E+02 -0.75205654855E+01 -0.24331021777E+03  0.24614184535E+03  0.00000000000E+00 0. -1.
          1    1    1    2  502    0  0.27894758772E+02 -0.86763729896E+01  0.12162198866E+04  0.12165706759E+04  0.00000000000E+00 0. -1.
         22    1    3    3    0    0  0.63031882940E+02  0.25509131059E+02  0.35055791693E+02  0.76502565745E+02  0.00000000000E+00 0.  1.
         22    1    3    3    0    0 -0.54465881221E+02 -0.93121925841E+01  0.25595678417E+01  0.55315463800E+02  0.00000000000E+00 0.  1.
</event>
<event>
 7    1  0.6507405E-006  0.7347713E+02  0.7818608E-02  0.1415517E+00
          2   -1    0    0  502    0  0.00000000000E+00  0.00000000000E+00  0.19998075906E+04  0.19998075906E+04  0.00000000000E+00 0. -1.
          1   -1    0    0  501    0 -0.00000000000E+00 -0.00000000000E+00 -0.12768218637E+04  0.12768218637E+04  0.00000000000E+00 0. -1.
         25    2    1    2    0    0 -0.50520220799E+01  0.54447351496E+02  0.23435846754E+03  0.27117533514E+03  0.12498853576E+03 0.  0.
          2    1    1    2  501    0 -0.42535952593E+02  0.31233879871E+01 -0.12572533042E+04  0.12579765235E+04  0.00000000000E+00 0. -1.
          1    1    1    2  502    0  0.47587974673E+02 -0.57570739484E+02  0.17458805635E+04  0.17474775957E+04  0.00000000000E+00 0. -1.
         22    1    3    3    0    0 -0.14836640672E+02  0.75769050755E+02  0.67134454041E+02  0.10231378147E+03  0.00000000000E+00 0. -1.
         22    1    3    3    0    0  0.97846185925E+01 -0.21321699258E+02  0.16722401349E+03  0.16886155367E+03  0.00000000000E+00 0. -1.
</event>
<event>
 7    1  0.6507405E-006  0.1775714E+03  0.7818608E-02  0.1340783E+00
          2   -1    0    0  502    0  0.00000000000E+00  0.00000000000E+00  0.11981974787E+04  0.11981974787E+04  0.00000000000E+00 0. -1.
          1   -1    0    0  501    0 -0.00000000000E+00 -0.00000000000E+00 -0.12858387306E+04  0.12858387306E+04  0.00000000000E+00 0. -1.
         25    2    1    2    0    0  0.26457698231E+02  0.16612854938E+03  0.52639148989E+03  0.56658420286E+03  0.12502381207E+03 0.  0.
          2    1    1    2  501    0 -0.58955330055E+02 -0.16764464877E+03 -0.12590928847E+04  0.12715720002E+04  0.00000000000E+00 0. -1.
          1    1    1    2  502    0  0.32497631824E+02  0.15160993878E+01  0.64506014294E+03  0.64588000638E+03  0.00000000000E+00 0. -1.
         22    1    3    3    0    0  0.16493001021E+02  0.16274773166E+02  0.25793388774E+03  0.25897254250E+03  0.00000000000E+00 0. -1.
         22    1    3    3    0    0  0.99646972099E+01  0.14985377621E+03  0.26845760216E+03  0.30761166036E+03  0.00000000000E+00 0. -1.
</event>
<event>
 7    1  0.6507405E-006  0.5606117E+02  0.7818608E-02  0.1522740E+00
          2   -1    0    0  502    0  0.00000000000E+00  0.00000000000E+00  0.13169081044E+04  0.13169081044E+04  0.00000000000E+00 0. -1.
          1   -1    0    0  501    0 -0.00000000000E+00 -0.00000000000E+00 -0.29240535900E+02  0.29240535900E+02  0.00000000000E+00 0. -1.
         25    2    1    2    0    0  0.31366697257E+02 -0.68434700833E+01  0.61243012357E+03  0.62587961433E+03  0.12499573032E+03 0.  0.
          2    1    1    2  501    0 -0.57225013481E+02  0.57244663089E+01  0.14879841452E+02  0.59404388424E+02  0.00000000000E+00 0. -1.
          1    1    1    2  502    0  0.25858316223E+02  0.11190037744E+01  0.66035760352E+03  0.66086463759E+03  0.00000000000E+00 0. -1.
         22    1    3    3    0    0 -0.11251199356E+02  0.77621309613E+01  0.20295775083E+01  0.13818804177E+02  0.00000000000E+00 0.  1.
         22    1    3    3    0    0  0.42617896613E+02 -0.14605601045E+02  0.61040054606E+03  0.61206081015E+03  0.00000000000E+00 0.  1.
</event>
<event>
 7    1  0.6507405E-006  0.1186303E+03  0.7818608E-02  0.1270828E+00
          2   -1    0    0  502    0  0.00000000000E+00  0.00000000000E+00  0.89009022124E+03  0.89009022124E+03  0.00000000000E+00 0. -1.
          1   -1    0    0  501    0 -0.00000000000E+00 -0.00000000000E+00 -0.24408753141E+04  0.24408753141E+04  0.00000000000E+00 0. -1.
         25    2    1    2    0    0 -0.49412464966E+02  0.68284326896E+02 -0.13115118096E+03  0.19982509592E+03  0.12500038279E+03 0.  0.
          2    1    1    2  501    0 -0.70533800977E+02 -0.59536972312E+02 -0.22702193218E+04  0.22720949445E+04  0.00000000000E+00 0. -1.
          1    1    1    2  502    0  0.11994626594E+03 -0.87473545840E+01  0.85058540982E+03  0.85904549491E+03  0.00000000000E+00 0. -1.
         22    1    3    3    0    0  0.48029591249E+01 -0.34074427119E+02 -0.23296573895E+02  0.41555569483E+02  0.00000000000E+00 0. -1.
         22    1    3    3    0    0 -0.54215424091E+02  0.10235875402E+03 -0.10785460707E+03  0.15826952644E+03  0.00000000000E+00 0. -1.
</event>
<event>
 7    1  0.9815325E-006  0.6593609E+02  0.7818608E-02  0.1392389E+00
          2   -1    0    0  502    0  0.00000000000E+00  0.00000000000E+00  0.10528759263E+04  0.10528759263E+04  0.00000000000E+00 0. -1.
          1   -1    0    0  501    0 -0.00000000000E+00 -0.00000000000E+00 -0.14849533250E+04  0.14849533250E+04  0.00000000000E+00 0. -1.
         25    2    1    2    0    0  0.84311533277E+02  0.32532757331E+02 -0.22771781856E+03  0.27503419729E+03  0.12498635864E+03 0.  0.
          2    1    1    2  501    0 -0.51439305653E+02  0.24603405065E+02 -0.12318617093E+04  0.12331806845E+04  0.00000000000E+00 0. -1.
          1    1    1    2  502    0 -0.32872227624E+02 -0.57136162396E+02  0.10275021292E+04  0.10296143695E+04  0.00000000000E+00 0. -1.
         22    1    3    3    0    0  0.99622284206E+02 -0.10183905286E+02 -0.10939824963E+03  0.14831145761E+03  0.00000000000E+00 0. -1.
         22    1    3    3    0    0 -0.15310750930E+02  0.42716662616E+02 -0.11831956893E+03  0.12672273967E+03  0.00000000000E+00 0. -1.
</event>
<event>
 7    1  0.6507405E-006  0.5008250E+02  0.7818608E-02  0.1521041E+00
          2   -1    0    0  502    0  0.00000000000E+00  0.00000000000E+00  0.17205639487E+04  0.17205639487E+04  0.00000000000E+00 0. -1.
          1   -1    0    0  501    0 -0.00000000000E+00 -0.00000000000E+00 -0.42214427386E+02  0.42214427386E+02  0.00000000000E+00 0. -1.
         25    2    1    2    0    0  0.86646973612E+01 -0.49140514014E+02  0.75203854038E+03  0.76398764559E+03  0.12500115717E+03 0.  0.
          2    1    1    2  501    0 -0.34935669667E+02  0.36160911933E+02 -0.18462588373E+02  0.53562857806E+02  0.00000000000E+00 0. -1.
          1    1    1    2  502    0  0.26270972306E+02  0.12979602081E+02  0.94477356933E+03  0.94522787272E+03  0.00000000000E+00 0. -1.
         22    1    3    3    0    0  0.17780640906E+02 -0.85714753862E+02  0.37558399773E+03  0.38565076114E+03  0.00000000000E+00 0.  1.
         22    1    3    3    0    0 -0.91159435451E+01  0.36574239847E+02  0.37645454265E+03  0.37833688445E+03  0.00000000000E+00 0.  1.
</event>
<event>
 7    1  0.6507405E-006  0.7418741E+02  0.7818608E-02  0.1510179E+00
          2   -1    0    0  502    0  0.00000000000E+00  0.00000000000E+00  0.27430463113E+03  0.27430463113E+03  0.00000000000E+00 0. -1.
          1   -1    0    0  501    0 -0.00000000000E+00 -0.00000000000E+00 -0.14918345065E+04  0.14918345065E+04  0.00000000000E+00 0. -1.
         25    2    1    2    0    0 -0.41074488585E+02  0.34009403793E+02  0.20505137046E+03  0.24599832773E+03  0.12500143823E+03 0.  0.
          2    1    1    2  501    0  0.59929743230E+02 -0.43876514223E+02 -0.14680555717E+04  0.14699332925E+04  0.00000000000E+00 0. -1.
          1    1    1    2  502    0 -0.18855254645E+02  0.98671104302E+01  0.45474325867E+02  0.50207517455E+02  0.00000000000E+00 0. -1.
         22    1    3    3    0    0  0.33802667698E+02  0.25424566211E+02  0.21229233707E+02  0.47325566815E+02  0.00000000000E+00 0. -1.
         22    1    3    3    0    0 -0.74877156283E+02  0.85848375816E+01  0.18382213676E+03  0.19867276092E+03  0.00000000000E+00 0. -1.
</event>
<event>
 7    1  0.6507405E-006  0.8950089E+02  0.7818608E-02  0.1341280E+00
          2   -1    0    0  502    0  0.00000000000E+00  0.00000000000E+00  0.96051108056E+03  0.96051108056E+03  0.00000000000E+00 0. -1.
          1   -1    0    0  501    0 -0.00000000000E+00 -0.00000000000E+00 -0.83673157633E+02  0.83673157633E+02  0.00000000000E+00 0. -1.
         25    2    1    2    0    0 -0.91965228667E+02  0.25166765746E+02  0.17375007626E+03  0.23431942359E+03  0.12500213555E+03 0.  0.
          2    1    1    2  501    0  0.83641486910E+02  0.38561608512E+02 -0.11119618602E+02  0.92771449818E+02  0.00000000000E+00 0. -1.
          1    1    1    2  502    0  0.83237417572E+01 -0.63728374258E+02  0.71420746527E+03  0.71709336478E+03  0.00000000000E+00 0. -1.
         22    1    3    3    0    0 -0.52278264446E+02  0.24802210023E+02  0.18455182637E+01  0.57892767192E+02  0.00000000000E+00 0.  1.
         22    1    3    3    0    0 -0.39686964221E+02  0.36455572299E+00  0.17190455799E+03  0.17642665640E+03  0.00000000000E+00 0.  1.
</event>
<event>
 7    1  0.6507405E-006  0.4224433E+02  0.7818608E-02  0.1506887E+00
          2   -1    0    0  502    0  0.00000000000E+00  0.00000000000E+00  0.29702129447E+03  0.29702129447E+03  0.00000000000E+00 0. -1.
          1   -1    0    0  501    0 -0.00000000000E+00 -0.00000000000E+00 -0.56472017215E+03  0.56472017215E+03  0.00000000000E+00 0. -1.
         25    2    1    2    0    0 -0.47035475406E+02  0.63566588746E+02  0.99437689004E+02  0.17822838192E+03  0.12499781988E+03 0.  0.
          2    1    1    2  501    0  0.30143917964E+02 -0.29284500678E+02 -0.52215986071E+03  0.52384841119E+03  0.00000000000E+00 0. -1.
          1    1    1    2  502    0  0.16891557442E+02 -0.34282088067E+02  0.15502329403E+03  0.15966467351E+03  0.00000000000E+00 0. -1.
         22    1    3    3    0    0 -0.24780463680E+02 -0.96140776198E+01 -0.22138287697E+02  0.34591988246E+02  0.00000000000E+00 0.  1.
         22    1    3    3    0    0 -0.22255011726E+02  0.73180666366E+02  0.12157597670E+03  0.14363639367E+03  0.00000000000E+00 0.  1.
</event>
<event>
 7    1  0.6507405E-006  0.6509539E+02  0.7818608E-02  0.1431382E+00
          2   -1    0    0  502    0  0.00000000000E+00  0.00000000000E+00  0.94307172714E+03  0.94307172714E+03  0.00000000000E+00 0. -1.
          1   -1    0    0  501    0 -0.00000000000E+00 -0.00000000000E+00 -0.21148885964E+02  0.21148885964E+02  0.00000000000E+00 0. -1.
         25    2    1    2    0    0 -0.81698493276E-01  0.62882168947E+02  0.65957479433E+03  0.67425403497E+03  0.12500168206E+03 0.  0.
          2    1    1    2  501    0 -0.41388268865E+02 -0.52968571814E+02  0.89473609695E+02  0.11191150625E+03  0.00000000000E+00 0. -1.
          1    1    1    2  502    0  0.41469967358E+02 -0.99135971328E+01  0.17287443716E+03  0.17805507188E+03  0.00000000000E+00 0. -1.
         22    1    3    3    0    0  0.25869470516E+01  0.10065367415E+03  0.43427355277E+03  0.44579297106E+03  0.00000000000E+00 0.  1.
         22    1    3    3    0    0 -0.26686455448E+01 -0.37771505206E+02  0.22530124156E+03  0.22846106391E+03  0.00000000000E+00 0.  1.
</event>
<event>
 7    1  0.6507405E-006  0.5189949E+02  0.7818608E-02  0.1551526E+00
          2   -1    0    0  502    0  0.00000000000E+00  0.00000000000E+00  0.90970178332E+03  0.90970178332E+03  0.00000000000E+00 0. -1.
          1   -1    0    0  501    0 -0.00000000000E+00 -0.00000000000E+00 -0.17638091214E+02  0.17638091214E+02  0.00000000000E+00 0. -1.
         25    2    1    2    0    0  0.28629109547E+02  0.13443218084E+02  0.60782721811E+03  0.62135354018E+03  0.12500379512E+03 0.  0.
          2    1    1    2  501    0 -0.51481759758E+02 -0.17228427361E+02  0.61437025989E+02  0.81985965015E+02  0.00000000000E+00 0. -1.
          1    1    1    2  502    0  0.22852650211E+02  0.37852092774E+01  0.22279944801E+03  0.22400036934E+03  0.00000000000E+00 0. -1.
         22    1    3    3    0    0 -0.49678056570E+02  0.16567400647E+01  0.24270749026E+03  0.24774498970E+03  0.00000000000E+00 0. -1.
         22    1    3    3    0    0  0.78307166117E+02  0.11786478019E+02  0.36511972785E+03  0.37360855048E+03  0.00000000000E+00 0. -1.
</event>
<event>
 7    1  0.6507405E-006  0.1172710E+03  0.7818608E-02  0.1281293E+00
          2   -1    0    0  502    0  0.00000000000E+00  0.00000000000E+00  0.12673028845E+04  0.12673028845E+04  0.00000000000E+00 0. -1.
          1   -1    0    0  501    0 -0.00000000000E+00 -0.00000000000E+00 -0.79535523523E+02  0.79535523523E+02  0.00000000000E+00 0. -1.
         25    2    1    2    0    0 -0.10645287411E+03 -0.83354734470E+01  0.48091847134E+03  0.50824144776E+03  0.12500039447E+03 0.  0.
          2    1    1    2  501    0  0.82476426153E+02  0.89329414288E+02 -0.50673051101E+01  0.12168723314E+03  0.00000000000E+00 0. -1.
          1    1    1    2  502    0  0.23976447956E+02 -0.80993940841E+02  0.71191619478E+03  0.71690972717E+03  0.00000000000E+00 0. -1.
         22    1    3    3    0    0 -0.10597901721E+02  0.47778889991E+02  0.20598936897E+03  0.21172330523E+03  0.00000000000E+00 0.  1.
         22    1    3    3    0    0 -0.95854972388E+02 -0.56114363438E+02  0.27492910237E+03  0.29651814253E+03  0.00000000000E+00 0.  1.
</event>
<event>
 7    1  0.6507405E-006  0.1078195E+03  0.7818608E-02  0.1426726E+00
          2   -1    0    0  502    0  0.00000000000E+00  0.00000000000E+00  0.75509221686E+03  0.75509221686E+03  0.00000000000E+00 0. -1.
          1   -1    0    0  501    0 -0.00000000000E+00 -0.00000000000E+00 -0.21583887050E+03  0.21583887050E+03  0.00000000000E+00 0. -1.
         25    2    1    2    0    0  0.26340583431E+02 -0.94982624664E+02  0.25707139964E+03  0.30236742440E+03  0.12499931800E+03 0.  0.
          2    1    1    2  501    0 -0.53007053313E+02  0.94637312592E+02 -0.17754807138E+03  0.20806077546E+03  0.00000000000E+00 0. -1.
          1    1    1    2  502    0  0.26666469882E+02  0.34531207197E+00  0.45973001810E+03  0.46050288750E+03  0.00000000000E+00 0. -1.
         22    1    3    3    0    0  0.16784143372E+02  0.17577438814E+02  0.32206965636E+01  0.24516254003E+02  0.00000000000E+00 0.  1.
         22    1    3    3    0    0  0.95564400595E+01 -0.11256006348E+03  0.25385070308E+03  0.27785117039E+03  0.00000000000E+00 0.  1.
</event>
<event>
 7    1  0.6507405E-006  0.1475423E+03  0.7818608E-02  0.1345487E+00
          2   -1    0    0  502    0  0.00000000000E+00  0.00000000000E+00  0.20749714402E+04  0.20749714402E+04  0.00000000000E+00 0. -1.
          1   -1    0    0  501    0 -0.00000000000E+00 -0.00000000000E+00 -0.54891289698E+03  0.54891289698E+03  0.00000000000E+00 0. -1.
         25    2    1    2    0    0  0.99375091392E+02 -0.79304990983E+02  0.80786552708E+03  0.82730733152E+03  0.12500408219E+03 0.  0.
          2    1    1    2  501    0  0.88355467575E+01 -0.36545472449E+02 -0.53353113323E+03  0.53485428723E+03  0.00000000000E+00 0. -1.
          1    1    1    2  502    0 -0.10821063815E+03  0.11585046343E+03  0.12517241494E+04  0.12617227185E+04  0.00000000000E+00 0. -1.
         22    1    3    3    0    0  0.51383665728E+01 -0.71752293582E+02  0.50305867417E+03  0.50817597749E+03  0.00000000000E+00 0. -1.
         22    1    3    3    0    0  0.94236724819E+02 -0.75526974004E+01  0.30480685291E+03  0.31913135403E+03  0.00000000000E+00 0. -1.
</event>
<event>
 7    1  0.6507405E-006  0.1296200E+03  0.7818608E-02  0.1359606E+00
          2   -1    0    0  502    0  0.00000000000E+00  0.00000000000E+00  0.44263939633E+02  0.44263939633E+02  0.00000000000E+00 0. -1.
          1   -1    0    0  501    0 -0.00000000000E+00 -0.00000000000E+00 -0.94303990016E+03  0.94303990016E+03  0.00000000000E+00 0. -1.
         25    2    1    2    0    0 -0.26871188385E+02  0.10862645847E+03 -0.41090962207E+03  0.44383827930E+03  0.12499572960E+03 0.  0.
          2    1    1    2  501    0 -0.35066376752E+02  0.14531370021E+02 -0.33688369899E+03  0.33901539514E+03  0.00000000000E+00 0. -1.
          1    1    1    2  502    0  0.61937565138E+02 -0.12315782849E+03 -0.15098263947E+03  0.20445016536E+03  0.00000000000E+00 0. -1.
         22    1    3    3    0    0  0.19803043886E+02  0.51387208650E+02 -0.32887861111E+03  0.33345756343E+03  0.00000000000E+00 0.  1.
         22    1    3    3    0    0 -0.46674232271E+02  0.57239249821E+02 -0.82031010958E+02  0.11038071587E+03  0.00000000000E+00 0.  1.
</event>
<event>
 7    1  0.6507405E-006  0.6246293E+02  0.7818608E-02  0.1493760E+00
          2   -1    0    0  502    0  0.00000000000E+00  0.00000000000E+00  0.25088003896E+03  0.25088003896E+03  0.00000000000E+00 0. -1.
          1   -1    0    0  501    0 -0.00000000000E+00 -0.00000000000E+00 -0.66883475839E+02  0.66883475839E+02  0.00000000000E+00 0. -1.
         25    2    1    2    0    0  0.39698145413E+02 -0.33434845509E+02  0.76618702600E+02  0.15552501999E+03  0.12499509836E+03 0.  0.
          2    1    1    2  501    0 -0.64741834119E+02  0.20286215057E+02  0.20504740116E+02  0.70876512143E+02  0.00000000000E+00 0. -1.
          1    1    1    2  502    0  0.25043688705E+02  0.13148630452E+02  0.86873120404E+02  0.91361982660E+02  0.00000000000E+00 0. -1.
         22    1    3    3    0    0  0.22017154179E+02 -0.43075022575E+02 -0.23231091815E+02  0.53664665050E+02  0.00000000000E+00 0. -1.
         22    1    3    3    0    0  0.17680991234E+02  0.96401770661E+01  0.99849794415E+02  0.10186035495E+03  0.00000000000E+00 0. -1.
</event>
<event>
 7    1  0.6507405E-006  0.3604778E+02  0.7818608E-02  0.1540300E+00
          2   -1    0    0  502    0  0.00000000000E+00  0.00000000000E+00  0.10740669607E+04  0.10740669607E+04  0.00000000000E+00 0. -1.
          1   -1    0    0  501    0 -0.00000000000E+00 -0.00000000000E+00 -0.20992038856E+02  0.20992038856E+02  0.00000000000E+00 0. -1.
         25    2    1    2    0    0  0.24636167562E+01  0.10909370836E+02  0.32093734960E+03  0.34460172425E+03  0.12499792880E+03 0.  0.
          2    1    1    2  501    0  0.30027295406E+02 -0.26522918689E+02  0.37470861715E+02  0.54855894514E+02  0.00000000000E+00 0. -1.
          1    1    1    2  502    0 -0.32490912162E+02  0.15613547853E+02  0.69466671049E+03  0.69560138076E+03  0.00000000000E+00 0. -1.
         22    1    3    3    0    0 -0.37796496583E+02  0.13595020657E+02  0.28154937773E+02  0.49052015877E+02  0.00000000000E+00 0. -1.
         22    1    3    3    0    0  0.40260113339E+02 -0.26856498211E+01  0.29278241183E+03  0.29554970837E+03  0.00000000000E+00 0. -1.
</event>
<event>
 7    1  0.6507405E-006  0.4995416E+02  0.7818608E-02  0.1464634E+00
          2   -1    0    0  502    0  0.00000000000E+00  0.00000000000E+00  0.27136130939E+02  0.27136130939E+02  0.00000000000E+00 0. -1.
          1   -1    0    0  501    0 -0.00000000000E+00 -0.00000000000E+00 -0.16197400414E+04  0.16197400414E+04  0.00000000000E+00 0. -1.
         25    2    1    2    0    0  0.41623139063E+02 -0.62486112404E+02 -0.66178703708E+03  0.67766053260E+03  0.12499886020E+03 0.  0.
          2    1    1    2  501    0 -0.41408899076E+02  0.13188142570E+02 -0.91698404311E+03  0.91801326752E+03  0.00000000000E+00 0. -1.
          1    1    1    2  502    0 -0.21423998711E+00  0.49297969834E+02 -0.13832830291E+02  0.51202372234E+02  0.00000000000E+00 0. -1.
         22    1    3    3    0    0 -0.43409822795E+02 -0.16566817149E+02 -0.15808738828E+03  0.16477407102E+03  0.00000000000E+00 0.  1.
         22    1    3    3    0    0  0.85032961859E+02 -0.45919295255E+02 -0.50369964879E+03  0.51288646158E+03  0.00000000000E+00 0.  1.
</event>
<event>
 7    1  0.6507405E-006  0.1488223E+03  0.7818608E-02  0.1396972E+00
          2   -1    0    0  502    0  0.00000000000E+00  0.00000000000E+00  0.23181959923E+03  0.23181959923E+03  0.00000000000E+00 0. -1.
          1   -1    0    0  501    0 -0.00000000000E+00 -0.00000000000E+00 -0.63094642667E+03  0.63094642667E+03  0.00000000000E+00 0. -1.
         25    2    1    2    0    0 -0.69146724906E+02  0.14659479982E+03  0.50090685854E+00  0.20468672579E+03  0.12500039962E+03 0.  0.
          2    1    1    2  501    0  0.79334912614E+02 -0.12447233624E+03 -0.51728256917E+03  0.53792996497E+03  0.00000000000E+00 0. -1.
          1    1    1    2  502    0 -0.10188187708E+02 -0.22122463585E+02  0.11765483488E+03  0.12014933514E+03  0.00000000000E+00 0. -1.
         22    1    3    3    0    0 -0.58926580659E+02  0.48198622225E+02 -0.52482976703E+02  0.92465733848E+02  0.00000000000E+00 0.  1.
         22    1    3    3    0    0 -0.10220144247E+02  0.98396177600E+02  0.52983883561E+02  0.11222099194E+03  0.00000000000E+00 0.  1.
</event>
<event>
 7    1  0.6507405E-006  0.7144759E+02  0.7818608E-02  0.1396578E+00
          2   -1    0    0  502    0  0.00000000000E+00  0.00000000000E+00  0.38794788783E+03  0.38794788783E+03  0.00000000000E+00 0. -1.
          1   -1    0    0  501    0 -0.00000000000E+00 -0.00000000000E+00 -0.39612901222E+03  0.39612901222E+03  0.00000000000E+00 0. -1.
         25    2    1    2    0    0  0.86117289687E+02  0.57765469331E+02  0.12026840148E+03  0.20209511566E+03  0.12499964139E+03 0.  0.
          2    1    1    2  501    0 -0.50884132321E+02  0.86468933888E+00 -0.34816509402E+03  0.35186485375E+03  0.00000000000E+00 0. -1.
          1    1    1    2  502    0 -0.35233157366E+02 -0.58630158670E+02  0.21971556815E+03  0.23011693065E+03  0.00000000000E+00 0. -1.
         22    1    3    3    0    0  0.21997204709E+02  0.49840667025E+02  0.12596032184E+03  0.13723691844E+03  0.00000000000E+00 0.  1.
         22    1    3    3    0    0  0.64120084979E+02  0.79248023067E+01 -0.56919203554E+01  0.64858197220E+02  0.00000000000E+00 0.  1.
</event>
<event>
 7    1  0.6507405E-006  0.5195033E+02  0.7818608E-02  0.1570238E+00
          2   -1    0    0  502    0  0.00000000000E+00  0.00000000000E+00  0.33980644532E+02  0.33980644532E+02  0.00000000000E+00 0. -1.
          1   -1    0    0  501    0 -0.00000000000E+00 -0.00000000000E+00 -0.30883915543E+04  0.30883915543E+04  0.00000000000E+00 0. -1.
         25    2    1    2    0    0 -0.27426231670E+02 -0.61776713845E+02 -0.10142448124E+04  0.10241490249E+04  0.12498049953E+03 0.  0.
          2    1    1    2  501    0  0.10634653413E+02  0.49919805672E+02 -0.20652003338E+04  0.20658309470E+04  0.00000000000E+00 0. -1.
          1    1    1    2  502    0  0.16791578256E+02  0.11856908173E+02  0.25034236407E+02  0.32392226911E+02  0.00000000000E+00 0. -1.
         22    1    3    3    0    0 -0.25740563753E+02 -0.82418841819E+02 -0.98223827528E+03  0.98602610084E+03  0.00000000000E+00 0.  1.
         22    1    3    3    0    0 -0.16856679165E+01  0.20642127974E+02 -0.32006537069E+02  0.38122924058E+02  0.00000000000E+00 0.  1.
</event>
<event>
 7    1  0.6507405E-006  0.5270649E+02  0.7818608E-02  0.1454000E+00
          2   -1    0    0  502    0  0.00000000000E+00  0.00000000000E+00  0.54714269813E+03  0.54714269813E+03  0.00000000000E+00 0. -1.
          1   -1    0    0  501    0 -0.00000000000E+00 -0.00000000000E+00 -0.24158774010E+03  0.24158774010E+03  0.00000000000E+00 0. -1.
         25    2    1    2    0    0  0.69909830311E+01  0.61969926285E+02  0.21979597278E+03  0.26043127712E+03  0.12500013937E+03 0.  0.
          2    1    1    2  501    0  0.32562282125E+02 -0.41579088442E+02 -0.21646617428E+03  0.22281545597E+03  0.00000000000E+00 0. -1.
          1    1    1    2  502    0 -0.39553265156E+02 -0.20390837842E+02  0.30222515952E+03  0.30548370513E+03  0.00000000000E+00 0. -1.
         22    1    3    3    0    0 -0.15552485881E+02  0.96836770796E+02  0.15876423780E+03  0.18661544202E+03  0.00000000000E+00 0. -1.
         22    1    3    3    0    0  0.22543468912E+02 -0.34866844511E+02  0.61031734981E+02  0.73815835100E+02  0.00000000000E+00 0. -1.
</event>
<event>
 7    1  0.6507405E-006  0.5224495E+02  0.7818608E-02  0.1485014E+00
          2   -1    0    0  502    0  0.00000000000E+00  0.00000000000E+00  0.22023954300E+04  0.22023954300E+04  0.00000000000E+00 0. -1.
          1   -1    0    0  501    0 -0.00000000000E+00 -0.00000000000E+00 -0.17682598162E+02  0.17682598162E+02  0.00000000000E+00 0. -1.
         25    2    1    2    0    0 -0.69489018509E+01 -0.64240066927E+02  0.81229652873E+03  0.82439406685E+03  0.12499941369E+03 0.  0.
          2    1    1    2  501    0 -0.24115082030E+02  0.46156856436E+02  0.48135905440E+02  0.70915851330E+02  0.00000000000E+00 0. -1.
          1    1    1    2  502    0  0.31063983881E+02  0.18083210491E+02  0.13242803976E+04  0.13247681100E+04  0.00000000000E+00 0. -1.
         22    1    3    3    0    0  0.36712537718E+02 -0.73894086189E+02  0.67439599496E+03  0.67942483353E+03  0.00000000000E+00 0. -1.
         22    1    3    3    0    0 -0.43661439569E+02  0.96540192624E+01  0.13790053378E+03  0.14496923332E+03  0.00000000000E+00 0. -1.
</event>
<event>
 7    1  0.6507405E-006  0.2052639E+03  0.7818608E-02  0.1198481E+00
          2   -1    0    0  502    0  0.00000000000E+00  0.00000000000E+00  0.30963047718E+04  0.30963047718E+04  0.00000000000E+00 0. -1.
          1   -1    0    0  501    0 -0.00000000000E+00 -0.00000000000E+00 -0.12248358808E+03  0.12248358808E+03  0.00000000000E+00 0. -1.
         25    2    1    2    0    0 -0.43870870359E+01 -0.24050798287E+02  0.82444621265E+02  0.15172090211E+03  0.12499771650E+03 0.  0.
          2    1    1    2  501    0  0.78651375195E+02  0.21540935961E+03  0.72183219810E+02  0.24041141456E+03  0.00000000000E+00 0. -1.
          1    1    1    2  502    0 -0.74264288160E+02 -0.19135856132E+03  0.28191933426E+04  0.28266560432E+04  0.00000000000E+00 0. -1.
         22    1    3    3    0    0 -0.32272478624E+02 -0.15098880750E+02 -0.22917631297E+02  0.42363981171E+02  0.00000000000E+00 0.  1.
         22    1    3    3    0    0  0.27885391588E+02 -0.89519175372E+01  0.10536225256E+03  0.10935692094E+03  0.00000000000E+00 0.  1.
</event>
<event>
 7    1  0.6507405E-006  0.6100556E+02  0.7818608E-02  0.1400992E+00
          2   -1    0    0  502    0  0.00000000000E+00  0.00000000000E+00  0.15149089624E+04  0.15149089624E+04  0.00000000000E+00 0. -1.
          1   -1    0    0  501    0 -0.00000000000E+00 -0.00000000000E+00 -0.15134010567E+02  0.15134010567E+02  0.00000000000E+00 0. -1.
         25    2    1    2    0    0  0.67137035427E+02  0.24359438775E+02  0.91667818441E+03  0.92790985047E+03  0.12496812810E+03 0.  0.
          2    1    1    2  501    0 -0.21194394556E+02 -0.59021172650E+02  0.11929079165E+03  0.13477015305E+03  0.00000000000E+00 0. -1.
          1    1    1    2  502    0 -0.45942640871E+02  0.34661733875E+02  0.46380597579E+03  0.46736296946E+03  0.00000000000E+00 0. -1.
         22    1    3    3    0    0  0.62054713985E+01 -0.35340091439E+02  0.56096444316E+03  0.56211078662E+03  0.00000000000E+00 0. -1.
         22    1    3    3    0    0  0.60931564028E+02  0.59699530214E+02  0.35571374125E+03  0.36579906385E+03  0.00000000000E+00 0. -1.
</event>
<event>
 7    1  0.6507405E-006  0.7673668E+02  0.7818608E-02  0.1353396E+00
          2   -1    0    0  502    0  0.00000000000E+00  0.00000000000E+00  0.16463783918E+03  0.16463783918E+03  0.00000000000E+00 0. -1.
          1   -1    0    0  501    0 -0.00000000000E+00 -0.00000000000E+00 -0.13819751851E+04  0.13819751851E+04  0.00000000000E+00 0. -1.
         25    2    1    2    0    0  0.10486514288E+03  0.16693363187E+02 -0.58720994396E+03  0.60968491073E+03  0.12499922211E+03 0.  0.
          2    1    1    2  501    0 -0.64965636623E+02  0.37838469135E+02 -0.77417658583E+03  0.77781853265E+03  0.00000000000E+00 0. -1.
          1    1    1    2  502    0 -0.39899506254E+02 -0.54531832321E+02  0.14404918391E+03  0.15910958086E+03  0.00000000000E+00 0. -1.
         22    1    3    3    0    0  0.69246080429E+01  0.17056106807E+02 -0.47001453335E+01  0.18998745804E+02  0.00000000000E+00 0. -1.
         22    1    3    3    0    0  0.97940534834E+02 -0.36274362028E+00 -0.58250979862E+03  0.59068616493E+03  0.00000000000E+00 0. -1.
</event>
<event>
 7    1  0.6507405E-006  0.1430106E+03  0.7818608E-02  0.1273409E+00
          2   -1    0    0  502    0  0.00000000000E+00  0.00000000000E+00  0.49676884486E+03  0.49676884486E+03  0.00000000000E+00 0. -1.
          1   -1    0    0  501    0 -0.00000000000E+00 -0.00000000000E+00 -0.11326191756E+03  0.11326191756E+03  0.00000000000E+00 0. -1.
         25    2    1    2    0    0  0.28597439415E+02 -0.10417123398E+03  0.22820325968E+03  0.28172689060E+03  0.12499541444E+03 0.  0.
          2    1    1    2  501    0  0.26965724315E+02  0.15407776616E+03  0.49414360097E+00  0.15642043502E+03  0.00000000000E+00 0. -1.
          1    1    1    2  502    0 -0.55563163731E+02 -0.49906532183E+02  0.15480952402E+03  0.17188343680E+03  0.00000000000E+00 0. -1.
         22    1    3    3    0    0 -0.42398967973E+02 -0.79143820441E+02  0.11827665284E+03  0.14849506189E+03  0.00000000000E+00 0.  1.
         22    1    3    3    0    0  0.70996407388E+02 -0.25027413540E+02  0.10992660684E+03  0.13323182871E+03  0.00000000000E+00 0.  1.
</event>
<event>
 7    1  0.6507405E-006  0.8877169E+02  0.7818608E-02  0.1480121E+00
          2   -1    0    0  502    0  0.00000000000E+00  0.00000000000E+00  0.17508093653E+04  0.17508093653E+04  0.00000000000E+00 0. -1.
          1   -1    0    0  501    0 -0.00000000000E+00 -0.00000000000E+00 -0.12055358633E+02  0.12055358633E+02  0.00000000000E+00 0. -1.
         25    2    1    2    0    0  0.70954751700E+02  0.44504560856E+02  0.10616655819E+04  0.10722750942E+04  0.12499934853E+03 0.  0.
          2    1    1    2  501    0 -0.86168062670E+02 -0.28757726555E+02  0.31491847082E+03  0.32775842495E+03  0.00000000000E+00 0. -1.
          1    1    1    2  502    0  0.15213310970E+02 -0.15746834301E+02  0.36216995395E+03  0.36283120479E+03  0.00000000000E+00 0. -1.
         22    1    3    3    0    0  0.77074916166E+02  0.14383508013E+02  0.30276769894E+03  0.31275502798E+03  0.00000000000E+00 0. -1.
         22    1    3    3    0    0 -0.61201644666E+01  0.30121052843E+02  0.75889788294E+03  0.75952006620E+03  0.00000000000E+00 0. -1.
</event>
<event>
 7    1  0.6507405E-006  0.4954616E+02  0.7818608E-02  0.1499797E+00
          2   -1    0    0  502    0  0.00000000000E+00  0.00000000000E+00  0.25831923504E+04  0.25831923504E+04  0.00000000000E+00 0. -1.
          1   -1    0    0  501    0 -0.00000000000E+00 -0.00000000000E+00 -0.78484633389E+02  0.78484633389E+02  0.00000000000E+00 0. -1.
         25    2    1    2    0    0  0.81017082809E+02 -0.17517587745E+02  0.78805761243E+02  0.16942445426E+03  0.12499465632E+03 0.  0.
          2    1    1    2  501    0 -0.34144342405E+02  0.20282301016E+01 -0.24043631124E+02  0.41809640434E+02  0.00000000000E+00 0. -1.
          1    1    1    2  502    0 -0.46872740404E+02  0.15489357644E+02  0.24499455869E+04  0.24504428891E+04  0.00000000000E+00 0. -1.
         22    1    3    3    0    0  0.23752937713E+02  0.53507267671E+02  0.26514506896E+02  0.64267011908E+02  0.00000000000E+00 0.  1.
         22    1    3    3    0    0  0.57264145096E+02 -0.71024855417E+02  0.52291254347E+02  0.10515744235E+03  0.00000000000E+00 0.  1.
</event>
<event>
 7    1  0.6507405E-006  0.1068881E+03  0.7818608E-02  0.1267040E+00
          2   -1    0    0  502    0  0.00000000000E+00  0.00000000000E+00  0.87826199913E+03  0.87826199913E+03  0.00000000000E+00 0. -1.
          1   -1    0    0  501    0 -0.00000000000E+00 -0.00000000000E+00 -0.30348175464E+03  0.30348175464E+03  0.00000000000E+00 0. -1.
         25    2    1    2    0    0 -0.19716026469E+02 -0.44268403951E+02 -0.70653536269E+02  0.15154979878E+03  0.12500802389E+03 0.  0.
          2    1    1    2  501    0  0.96352981916E+02  0.11788974741E+03 -0.15819908735E+03  0.21956511769E+03  0.00000000000E+00 0. -1.
          1    1    1    2  502    0 -0.76636955447E+02 -0.73621343456E+02  0.80363286811E+03  0.81062883730E+03  0.00000000000E+00 0. -1.
         22    1    3    3    0    0 -0.52099595158E+02  0.59222428504E+01  0.77296087432E+01  0.53001770039E+02  0.00000000000E+00 0.  1.
         22    1    3    3    0    0  0.32383568688E+02 -0.50190646801E+02 -0.78383145012E+02  0.98548028744E+02  0.00000000000E+00 0.  1.
</event>
<event>
 7    1  0.6507405E-006  0.7706811E+02  0.7818608E-02  0.1370057E+00
          2   -1    0    0  502    0  0.00000000000E+00  0.00000000000E+00  0.43154326496E+03  0.43154326496E+03  0.00000000000E+00 0. -1.
          1   -1    0    0  501    0 -0.00000000000E+00 -0.00000000000E+00 -0.28201364418E+03  0.28201364418E+03  0.00000000000E+00 0. -1.
         25    2    1    2    0    0  0.38410621056E+02 -0.36805707441E+02  0.20580915904E+03  0.24660154717E+03  0.12499950884E+03 0.  0.
          2    1    1    2  501    0 -0.19758926613E+02 -0.55073149332E+02 -0.24732172213E+03  0.25414858095E+03  0.00000000000E+00 0. -1.
          1    1    1    2  502    0 -0.18651694444E+02  0.91878856773E+02  0.19104218388E+03  0.21280678102E+03  0.00000000000E+00 0. -1.
         22    1    3    3    0    0  0.17632766854E+02 -0.50630374205E+02  0.17135928982E+02  0.56284894253E+02  0.00000000000E+00 0.  1.
         22    1    3    3    0    0  0.20777854203E+02  0.13824666763E+02  0.18867323006E+03  0.19031665291E+03  0.00000000000E+00 0.  1.
</event>
<event>
 7    1  0.6507405E-006  0.8897460E+02  0.7818608E-02  0.1337872E+00
          2   -1    0    0  502    0  0.00000000000E+00  0.00000000000E+00  0.10656790997E+04  0.10656790997E+04  0.00000000000E+00 0. -1.
          1   -1    0    0  501    0 -0.00000000000E+00 -0.00000000000E+00 -0.53261041537E+03  0.53261041537E+03  0.00000000000E+00 0. -1.
         25    2    1    2    0    0 -0.99009597163E+02  0.72035101303E+02 -0.78296173770E+02  0.19169948800E+03  0.12500578675E+03 0.  0.
          2    1    1    2  501    0  0.33035829320E+02 -0.81058053512E+02 -0.39167790082E+03  0.40133944741E+03  0.00000000000E+00 0. -1.
          1    1    1    2  502    0  0.65973767843E+02  0.90229522092E+01  0.10030427589E+04  0.10052505797E+04  0.00000000000E+00 0. -1.
         22    1    3    3    0    0 -0.70910546020E+02  0.77682353464E+02  0.32837924163E+01  0.10523134927E+03  0.00000000000E+00 0.  1.
         22    1    3    3    0    0 -0.28099051143E+02 -0.56472521605E+01 -0.81579966186E+02  0.86468138728E+02  0.00000000000E+00 0.  1.
</event>
<event>
 7    1  0.6507405E-006  0.9000927E+02  0.7818608E-02  0.1327010E+00
          2   -1    0    0  502    0  0.00000000000E+00  0.00000000000E+00  0.31003199618E+02  0.31003199618E+02  0.00000000000E+00 0. -1.
          1   -1    0    0  501    0 -0.00000000000E+00 -0.00000000000E+00 -0.16075247521E+04  0.16075247521E+04  0.00000000000E+00 0. -1.
         25    2    1    2    0    0  0.97466554088E+02 -0.24514250865E+02 -0.83020037544E+03  0.84555249650E+03  0.12500273316E+03 0.  0.
          2    1    1    2  501    0 -0.17875000984E+02  0.70154956022E+02 -0.66924094739E+03  0.67314536259E+03  0.00000000000E+00 0. -1.
          1    1    1    2  502    0 -0.79591553103E+02 -0.45640705157E+02 -0.77080229618E+02  0.11983009259E+03  0.00000000000E+00 0. -1.
         22    1    3    3    0    0  0.68474762425E+02 -0.71755994265E+02 -0.63247462958E+03  0.64020455549E+03  0.00000000000E+00 0. -1.
         22    1    3    3    0    0  0.28991791663E+02  0.47241743400E+02 -0.19772574586E+03  0.20534794101E+03  0.00000000000E+00 0. -1.
</event>
<event>
 7    1  0.6507405E-006  0.4717518E+02  0.7818608E-02  0.1550116E+00
          2   -1    0    0  502    0  0.00000000000E+00  0.00000000000E+00  0.58296510269E+03  0.58296510269E+03  0.00000000000E+00 0. -1.
          1   -1    0    0  501    0 -0.00000000000E+00 -0.00000000000E+00 -0.78682219293E+02  0.78682219293E+02  0.00000000000E+00 0. -1.
         25    2    1    2    0    0 -0.74542832653E+01 -0.31883049921E+02  0.41073766761E+02  0.13558943721E+03  0.12500138382E+03 0.  0.
          2    1    1    2  501    0 -0.10630710210E+02  0.50164508962E+02 -0.99209935781E+01  0.52229455986E+02  0.00000000000E+00 0. -1.
          1    1    1    2  502    0  0.18084993476E+02 -0.18281459041E+02  0.47313011022E+03  0.47382842879E+03  0.00000000000E+00 0. -1.
         22    1    3    3    0    0 -0.65181484586E+02 -0.21681387607E+02  0.33673862764E+02  0.76502532865E+02  0.00000000000E+00 0.  1.
         22    1    3    3    0    0  0.57727201320E+02 -0.10201662315E+02  0.73999039970E+01  0.59086904348E+02  0.00000000000E+00 0.  1.
</event>
<event>
 7    1  0.6507405E-006  0.1336172E+03  0.7818608E-02  0.1336094E+00
          2   -1    0    0  502    0  0.00000000000E+00  0.00000000000E+00  0.10711218749E+03  0.10711218749E+03  0.00000000000E+00 0. -1.
          1   -1    0    0  501    0 -0.00000000000E+00 -0.00000000000E+00 -0.11584337027E+04  0.11584337027E+04  0.00000000000E+00 0. -1.
         25    2    1    2    0    0  0.15200895005E+03 -0.43482772336E+02 -0.30264211263E+03  0.36361242697E+03  0.12499710526E+03 0.  0.
          2    1    1    2  501    0 -0.11259125391E+03  0.65256788357E+02 -0.81303682698E+03  0.82338576676E+03  0.00000000000E+00 0. -1.
          1    1    1    2  502    0 -0.39417696146E+02 -0.21774016022E+02  0.64357424405E+02  0.78547696460E+02  0.00000000000E+00 0. -1.
         22    1    3    3    0    0  0.15957531555E+03 -0.22669833403E+02 -0.30096163001E+03  0.34140314207E+03  0.00000000000E+00 0. -1.
         22    1    3    3    0    0 -0.75663654945E+01 -0.20812938933E+02 -0.16804826219E+01  0.22209284897E+02  0.00000000000E+00 0. -1.
</event>
<event>
 7    1  0.6507405E-006  0.2343076E+03  0.7818608E-02  0.1356202E+00
          2   -1    0    0  502    0  0.00000000000E+00  0.00000000000E+00  0.70745284159E+03  0.70745284159E+03  0.00000000000E+00 0. -1.
          1   -1    0    0  501    0 -0.00000000000E+00 -0.00000000000E+00 -0.84620060963E+03  0.84620060963E+03  0.00000000000E+00 0. -1.
         25    2    1    2    0    0  0.49951145549E+02 -0.21288828896E+03 -0.73031466756E+02  0.26224928134E+03  0.12499819962E+03 0.  0.
          2    1    1    2  501    0 -0.64484823502E+02  0.22888050554E+03 -0.65752442071E+03  0.69920164624E+03  0.00000000000E+00 0. -1.
          1    1    1    2  502    0  0.14533677953E+02 -0.15992216575E+02  0.59180811943E+03  0.59220252364E+03  0.00000000000E+00 0. -1.
         22    1    3    3    0    0 -0.23017394402E+01 -0.85662057798E+02  0.29576003123E+02  0.90653329290E+02  0.00000000000E+00 0.  1.
         22    1    3    3    0    0  0.52252884989E+02 -0.12722623117E+03 -0.10260746988E+03  0.17159595205E+03  0.00000000000E+00 0.  1.
</event>
<event>
 7    1  0.6507405E-006  0.3502575E+02  0.7818608E-02  0.1612832E+00
          2   -1    0    0  502    0  0.00000000000E+00  0.00000000000E+00  0.76563815301E+03  0.76563815301E+03  0.00000000000E+00 0. -1.
          1   -1    0    0  501    0 -0.00000000000E+00 -0.00000000000E+00 -0.31251241807E+03  0.31251241807E+03  0.00000000000E+00 0. -1.
         25    2    1    2    0    0 -0.39626316242E+02 -0.28233488580E+02  0.46084402481E+03  0.47996840448E+03  0.12500031710E+03 0.  0.
          2    1    1    2  501    0  0.34612526757E+02  0.52449391598E+01 -0.30146691306E+03  0.30349272819E+03  0.00000000000E+00 0. -1.
          1    1    1    2  502    0  0.50137894847E+01  0.22988549420E+02  0.29374862318E+03  0.29468943841E+03  0.00000000000E+00 0. -1.
         22    1    3    3    0    0 -0.39992809680E+02  0.42518192104E+02  0.27465828632E+03  0.28079244244E+03  0.00000000000E+00 0.  1.
         22    1    3    3    0    0  0.36649343862E+00 -0.70751680684E+02  0.18618573849E+03  0.19917596204E+03  0.00000000000E+00 0.  1.
</event>
<event>
 7    1  0.6507405E-006  0.1154544E+03  0.7818608E-02  0.1327110E+00
          2   -1    0    0  502    0  0.00000000000E+00  0.00000000000E+00  0.38949696363E+03  0.38949696363E+03  0.00000000000E+00 0. -1.
          1   -1    0    0  501    0 -0.00000000000E+00 -0.00000000000E+00 -0.10898107006E+04  0.10898107006E+04  0.00000000000E+00 0. -1.
         25    2    1    2    0    0  0.11992008025E+03  0.58936581949E+02 -0.72199265083E+03  0.74481775631E+03  0.12500302369E+03 0.  0.
          2    1    1    2  501    0 -0.45703291393E+01 -0.56205425596E+02 -0.34526156814E+03  0.34983637348E+03  0.00000000000E+00 0. -1.
          1    1    1    2  502    0 -0.11534975111E+03 -0.27311563522E+01  0.36694048195E+03  0.38465353448E+03  0.00000000000E+00 0. -1.
         22    1    3    3    0    0  0.34043787522E+02 -0.26949797666E+02 -0.76191751822E+02  0.87695234242E+02  0.00000000000E+00 0. -1.
         22    1    3    3    0    0  0.85876292731E+02  0.85886379615E+02 -0.64580089900E+03  0.65712252207E+03  0.00000000000E+00 0. -1.
</event>
<event>
 7    1  0.6507405E-006  0.9349073E+02  0.7818608E-02  0.1362048E+00
          2   -1    0    0  502    0  0.00000000000E+00  0.00000000000E+00  0.35344366821E+04  0.35344366821E+04  0.00000000000E+00 0. -1.
          1   -1    0    0  501    0 -0.00000000000E+00 -0.00000000000E+00 -0.28547992512E+03  0.28547992512E+03  0.00000000000E+00 0. -1.
         25    2    1    2    0    0 -0.40579185316E+02 -0.14450537325E+02  0.11394462677E+03  0.17453875722E+03  0.12499964597E+03 0.  0.
          2    1    1    2  501    0 -0.49543111938E+02 -0.14276494173E+02 -0.25191145832E+03  0.25713366380E+03  0.00000000000E+00 0. -1.
          1    1    1    2  502    0  0.90122297254E+02  0.28727031498E+02  0.33869235885E+04  0.33882441862E+04  0.00000000000E+00 0. -1.
         22    1    3    3    0    0  0.19622207170E+02 -0.24443344144E+02 -0.12807996773E+02  0.33860786590E+02  0.00000000000E+00 0. -1.
         22    1    3    3    0    0 -0.60201392485E+02  0.99928068183E+01  0.12675262354E+03  0.14067797063E+03  0.00000000000E+00 0. -1.
</event>
<event>
 7    1  0.6507405E-006  0.1701187E+03  0.7818608E-02  0.1262768E+00
          2   -1    0    0  502    0  0.00000000000E+00  0.00000000000E+00  0.20364367438E+04  0.20364367438E+04  0.00000000000E+00 0. -1.
          1   -1    0    0  501    0 -0.00000000000E+00 -0.00000000000E+00 -0.13467408779E+03  0.13467408779E+03  0.00000000000E+00 0. -1.
         25    2    1    2    0    0 -0.62832412431E+02  0.86721235976E+02  0.12554324465E+03  0.20701138238E+03  0.12499648529E+03 0.  0.
          2    1    1    2  501    0 -0.37277932897E+02  0.58787903547E+02 -0.76240372131E+02  0.10323883100E+03  0.00000000000E+00 0. -1.
          1    1    1    2  502    0  0.10011034533E+03 -0.14550913952E+03  0.18524597835E+04  0.18608606183E+04  0.00000000000E+00 0. -1.
         22    1    3    3    0    0  0.35359341079E+02  0.66890631036E+01  0.15383705473E+02  0.39136746937E+02  0.00000000000E+00 0. -1.
         22    1    3    3    0    0 -0.98191753510E+02  0.80032172872E+02  0.11015953918E+03  0.16787463544E+03  0.00000000000E+00 0. -1.
</event>
<event>
 7    1  0.6507405E-006  0.6334522E+02  0.7818608E-02  0.1404482E+00
          2   -1    0    0  502    0  0.00000000000E+00  0.00000000000E+00  0.63677387510E+02  0.63677387510E+02  0.00000000000E+00 0. -1.
          1   -1    0    0  501    0 -0.00000000000E+00 -0.00000000000E+00 -0.67929240596E+03  0.67929240596E+03  0.00000000000E+00 0. -1.
         25    2    1    2    0    0  0.27988317696E+02 -0.12908319791E+02 -0.11909932938E+03  0.17538385826E+03  0.12499950732E+03 0.  0.
          2    1    1    2  501    0 -0.14654806418E+02  0.65154759447E+02 -0.50807052276E+03  0.51244078890E+03  0.00000000000E+00 0. -1.
          1    1    1    2  502    0 -0.13333511279E+02 -0.52246439656E+02  0.11554833697E+02  0.55145146309E+02  0.00000000000E+00 0. -1.
         22    1    3    3    0    0  0.76771013261E+00 -0.37335267734E+02  0.12043022638E+02  0.39237048689E+02  0.00000000000E+00 0.  1.
         22    1    3    3    0    0  0.27220607564E+02  0.24426947942E+02 -0.13114235202E+03  0.13614680957E+03  0.00000000000E+00 0.  1.
</event>
<event>
 7    1  0.6507405E-006  0.1163939E+03  0.7818608E-02  0.1380344E+00
          2   -1    0    0  502    0  0.00000000000E+00  0.00000000000E+00  0.81483338217E+03  0.81483338217E+03  0.00000000000E+00 0. -1.
          1   -1    0    0  501    0 -0.00000000000E+00 -0.00000000000E+00 -0.54323396023E+03  0.54323396023E+03  0.00000000000E+00 0. -1.
         25    2    1    2    0    0 -0.46506166994E+02  0.11688346026E+03 -0.25065368212E+02  0.17907047610E+03  0.12495357488E+03 0.  0.
          2    1    1    2  501    0  0.10934384775E+02 -0.11539830544E+03 -0.43311046998E+03  0.44835366496E+03  0.00000000000E+00 0. -1.
          1    1    1    2  502    0  0.35571782218E+02 -0.14851548183E+01  0.72977526014E+03  0.73064320135E+03  0.00000000000E+00 0. -1.
         22    1    3    3    0    0 -0.27337474929E+01  0.20400586551E+02 -0.63200906994E+02  0.66468127339E+02  0.00000000000E+00 0.  1.
         22    1    3    3    0    0 -0.43772419501E+02  0.96482873710E+02  0.38135538782E+02  0.11260234876E+03  0.00000000000E+00 0.  1.
</event>
<event>
 7    1  0.6507405E-006  0.1076554E+03  0.7818608E-02  0.1319515E+00
          2   -1    0    0  502    0  0.00000000000E+00  0.00000000000E+00  0.12722718610E+04  0.12722718610E+04  0.00000000000E+00 0. -1.
          1   -1    0    0  501    0 -0.00000000000E+00 -0.00000000000E+00 -0.16576138794E+04  0.16576138794E+04  0.00000000000E+00 0. -1.
         25    2    1    2    0    0 -0.80499972326E+02 -0.77917098291E+00  0.64328326790E+03  0.66024150535E+03  0.12499851988E+03 0.  0.
          2    1    1    2  501    0  0.85763553064E+02  0.65264146256E+02 -0.16456808837E+04  0.16492059807E+04  0.00000000000E+00 0. -1.
          1    1    1    2  502    0 -0.52635807386E+01 -0.64484975273E+02  0.61705559731E+03  0.62043825437E+03  0.00000000000E+00 0. -1.
         22    1    3    3    0    0 -0.44964242464E+01 -0.39548933831E+02  0.69022806034E+02  0.79677372892E+02  0.00000000000E+00 0. -1.
         22    1    3    3    0    0 -0.76003548079E+02  0.38769762848E+02  0.57426046187E+03  0.58056413246E+03  0.00000000000E+00 0. -1.
</event>
<event>
 7    1  0.6507405E-006  0.4644569E+02  0.7818608E-02  0.1482873E+00
          2   -1    0    0  502    0  0.00000000000E+00  0.00000000000E+00  0.17468929777E+03  0.17468929777E+03  0.00000000000E+00 0. -1.
          1   -1    0    0  501    0 -0.00000000000E+00 -0.00000000000E+00 -0.41274541894E+03  0.41274541894E+03  0.00000000000E+00 0. -1.
         25    2    1    2    0    0 -0.24447697388E+02 -0.33533591521E+02 -0.32116757584E+02  0.13556772140E+03  0.12499971720E+03 0.  0.
          2    1    1    2  501    0 -0.23197774855E+02  0.33860383018E+02 -0.32293938252E+03  0.32553725912E+03  0.00000000000E+00 0. -1.
          1    1    1    2  502    0  0.47645472243E+02 -0.32679149659E+00  0.11700001892E+03  0.12632973619E+03  0.00000000000E+00 0. -1.
         22    1    3    3    0    0 -0.61229314383E+02  0.17552938971E+02  0.24666828675E+01  0.63743384996E+02  0.00000000000E+00 0. -1.
         22    1    3    3    0    0  0.36781616995E+02 -0.51086530492E+02 -0.34583440451E+02  0.71824336404E+02  0.00000000000E+00 0. -1.
</event>
<event>
 7    1  0.6507405E-006  0.8170371E+02  0.7818608E-02  0.1373747E+00
          2   -1    0    0  502    0  0.00000000000E+00  0.00000000000E+00  0.28395754020E+03  0.28395754020E+03  0.00000000000E+00 0. -1.
          1   -1    0    0  501    0 -0.00000000000E+00 -0.00000000000E+00 -0.62083827816E+03  0.62083827816E+03  0.00000000000E+00 0. -1.
         25    2    1    2    0    0 -0.12369119474E+03  0.70276758298E+00  0.58328943272E+02  0.18527683895E+03  0.12500094355E+03 0.  0.
          2    1    1    2  501    0  0.76527479659E+02 -0.26032774722E+02 -0.54990897245E+03  0.55581835026E+03  0.00000000000E+00 0. -1.
          1    1    1    2  502    0  0.47163715084E+02  0.25330007139E+02  0.15469929122E+03  0.16370062915E+03  0.00000000000E+00 0. -1.
         22    1    3    3    0    0 -0.98835305039E+02 -0.54778378064E+02  0.24217695290E+02  0.11556636617E+03  0.00000000000E+00 0. -1.
         22    1    3    3    0    0 -0.24855889703E+02  0.55481145647E+02  0.34111247982E+02  0.69710472772E+02  0.00000000000E+00 0. -1.
</event>
<event>
 7    1  0.6507405E-006  0.4585257E+02  0.7818608E-02  0.1566785E+00
          2   -1    0    0  502    0  0.00000000000E+00  0.00000000000E+00  0.31184423441E+02  0.31184423441E+02  0.00000000000E+00 0. -1.
          1   -1    0    0  501    0 -0.00000000000E+00 -0.00000000000E+00 -0.55532787828E+03  0.55532787828E+03  0.00000000000E+00 0. -1.
         25    2    1    2    0    0  0.27378585589E+02  0.13679452975E+01 -0.31931657925E+03  0.34400367641E+03  0.12499597345E+03 0.  0.
          2    1    1    2  501    0  0.18326151641E+02 -0.15183770552E+02 -0.19144914293E+03  0.19292270227E+03  0.00000000000E+00 0. -1.
          1    1    1    2  502    0 -0.45704737230E+02  0.13815825255E+02 -0.13377732660E+02  0.49585923041E+02  0.00000000000E+00 0. -1.
         22    1    3    3    0    0  0.32253186370E+02  0.60452557694E+02 -0.17981381301E+03  0.19242605622E+03  0.00000000000E+00 0. -1.
         22    1    3    3    0    0 -0.48746007811E+01 -0.59084612396E+02 -0.13950276623E+03  0.15157762019E+03  0.00000000000E+00 0. -1.
</event>
<event>
 7    1  0.6507405E-006  0.6255996E+02  0.7818608E-02  0.1393612E+00
          2   -1    0    0  502    0  0.00000000000E+00  0.00000000000E+00  0.58174953965E+03  0.58174953965E+03  0.00000000000E+00 0. -1.
          1   -1    0    0  501    0 -0.00000000000E+00 -0.00000000000E+00 -0.75941520797E+03  0.75941520797E+03  0.00000000000E+00 0. -1.
         25    2    1    2    0    0  0.42908504221E+02  0.46595020035E+02  0.38337063022E+02  0.14528261272E+03  0.12500028612E+03 0.  0.
          2    1    1    2  501    0  0.19957112251E+02 -0.56066491458E+02 -0.70261678713E+03  0.70513267358E+03  0.00000000000E+00 0. -1.
          1    1    1    2  502    0 -0.62865616472E+02  0.94714714228E+01  0.48661405579E+03  0.49074946133E+03  0.00000000000E+00 0. -1.
         22    1    3    3    0    0  0.38490110957E+02  0.77739295788E+02 -0.10304531861E+02  0.87355996520E+02  0.00000000000E+00 0.  1.
         22    1    3    3    0    0  0.44183932639E+01 -0.31144275753E+02  0.48641594883E+02  0.57926616196E+02  0.00000000000E+00 0.  1.
</event>
<event>
 7    1  0.9584734E-006  0.6876448E+02  0.7818608E-02  0.1486184E+00
          2   -1    0    0  502    0  0.00000000000E+00  0.00000000000E+00  0.23660267875E+04  0.23660267875E+04  0.00000000000E+00 0. -1.
          1   -1    0    0  501    0 -0.00000000000E+00 -0.00000000000E+00 -0.68150924338E+03  0.68150924338E+03  0.00000000000E+00 0. -1.
         25    2    1    2    0    0  0.45507962263E+02 -0.76897320865E+02 -0.37600410988E+03  0.40618833658E+03  0.12500280613E+03 0.  0.
          2    1    1    2  501    0  0.18013622265E+01  0.27026090816E+02 -0.28927773575E+03  0.29054304826E+03  0.00000000000E+00 0. -1.
          1    1    1    2  502    0 -0.47309324490E+02  0.49871230050E+02  0.23497993897E+04  0.23508046460E+04  0.00000000000E+00 0. -1.
         22    1    3    3    0    0  0.83035357047E+02 -0.19872314729E+02 -0.21118612729E+03  0.22779236109E+03  0.00000000000E+00 0.  1.
         22    1    3    3    0    0 -0.37527394784E+02 -0.57025006136E+02 -0.16481798259E+03  0.17839597549E+03  0.00000000000E+00 0.  1.
</event>
<event>
 7    1  0.6507405E-006  0.4973549E+02  0.7818608E-02  0.1510143E+00
          2   -1    0    0  502    0  0.00000000000E+00  0.00000000000E+00  0.39750819273E+03  0.39750819273E+03  0.00000000000E+00 0. -1.
          1   -1    0    0  501    0 -0.00000000000E+00 -0.00000000000E+00 -0.36422862673E+03  0.36422862673E+03  0.00000000000E+00 0. -1.
         25    2    1    2    0    0  0.31221900430E+02 -0.58437985948E+02 -0.14485411076E+03  0.20247895024E+03  0.12500082648E+03 0.  0.
          2    1    1    2  501    0 -0.39844437287E+02  0.27879793052E+02 -0.18675893387E+03  0.19298642808E+03  0.00000000000E+00 0. -1.
          1    1    1    2  502    0  0.86225368573E+01  0.30558192896E+02  0.36489261063E+03  0.36627144113E+03  0.00000000000E+00 0. -1.
         22    1    3    3    0    0  0.12754362162E+02 -0.43137187892E+02  0.97483605844E+01  0.46027396923E+02  0.00000000000E+00 0.  1.
         22    1    3    3    0    0  0.18467538267E+02 -0.15300798056E+02 -0.15460247134E+03  0.15645155332E+03  0.00000000000E+00 0.  1.
</event>
<event>
 7    1  0.6507405E-006  0.5089155E+02  0.7818608E-02  0.1548249E+00
          2   -1    0    0  502    0  0.00000000000E+00  0.00000000000E+00  0.38325854002E+02  0.38325854002E+02  0.00000000000E+00 0. -1.
          1   -1    0    0  501    0 -0.00000000000E+00 -0.00000000000E+00 -0.13655578869E+04  0.13655578869E+04  0.00000000000E+00 0. -1.
         25    2    1    2    0    0  0.35946289693E+02  0.59090644143E+02 -0.21149946906E+03  0.25522976041E+03  0.12500546074E+03 0.  0.
          2    1    1    2  501    0 -0.19980929794E+02 -0.13520142494E+02 -0.10963617305E+04  0.10966271362E+04  0.00000000000E+00 0. -1.
          1    1    1    2  502    0 -0.15965359899E+02 -0.45570501649E+02 -0.19370833288E+02  0.52026844221E+02  0.00000000000E+00 0. -1.
         22    1    3    3    0    0  0.33081800064E+02  0.98082196227E+02 -0.14651922886E+03  0.17939455716E+03  0.00000000000E+00 0. -1.
         22    1    3    3    0    0  0.28644896290E+01 -0.38991552084E+02 -0.64980240207E+02  0.75835203251E+02  0.00000000000E+00 0. -1.
</event>
<event>
 7    1  0.6507405E-006  0.1930751E+03  0.7818608E-02  0.1258504E+00
          2   -1    0    0  502    0  0.00000000000E+00  0.00000000000E+00  0.15437156714E+03  0.15437156714E+03  0.00000000000E+00 0. -1.
          1   -1    0    0  501    0 -0.00000000000E+00 -0.00000000000E+00 -0.58551571895E+03  0.58551571895E+03  0.00000000000E+00 0. -1.
         25    2    1    2    0    0  0.92394363442E+02  0.11678904428E+03  0.23731947314E+02  0.19586859315E+03  0.12499960479E+03 0.  0.
          2    1    1    2  501    0 -0.15476199845E+03 -0.13095474542E+03 -0.42999999603E+03  0.47539501270E+03  0.00000000000E+00 0. -1.
          1    1    1    2  502    0  0.62367635012E+02  0.14165701136E+02 -0.24876103098E+02  0.68623680250E+02  0.00000000000E+00 0. -1.
         22    1    3    3    0    0 -0.30766828266E+02  0.23260632421E+02  0.13564979310E+02  0.40885980554E+02  0.00000000000E+00 0.  1.
         22    1    3    3    0    0  0.12316119171E+03  0.93528411861E+02  0.10166968005E+02  0.15498261260E+03  0.00000000000E+00 0.  1.
</event>
<event>
 7    1  0.6507405E-006  0.1054378E+03  0.7818608E-02  0.1328207E+00
          2   -1    0    0  502    0  0.00000000000E+00  0.00000000000E+00  0.34323075336E+03  0.34323075336E+03  0.00000000000E+00 0. -1.
          1   -1    0    0  501    0 -0.00000000000E+00 -0.00000000000E+00 -0.19106965116E+04  0.19106965116E+04  0.00000000000E+00 0. -1.
         25    2    1    2    0    0  0.83270050268E+02  0.53308961891E+02 -0.11741706048E+03  0.19795749645E+03  0.12499863047E+03 0.  0.
          2    1    1    2  501    0  0.23493475251E+02 -0.56459900576E+02 -0.17430422566E+04  0.17441146671E+04  0.00000000000E+00 0. -1.
          1    1    1    2  502    0 -0.10676352552E+03  0.31509386848E+01  0.29299355880E+03  0.31185510144E+03  0.00000000000E+00 0. -1.
         22    1    3    3    0    0  0.74914587434E+02  0.60459086804E+02 -0.14169571893E+03  0.17130432963E+03  0.00000000000E+00 0.  1.
         22    1    3    3    0    0  0.83554628343E+01 -0.71501249132E+01  0.24278658448E+02  0.26653166819E+02  0.00000000000E+00 0.  1.
</event>
<event>
 7    1  0.6507405E-006  0.3022589E+03  0.7818608E-02  0.1176319E+00
          2   -1    0    0  502    0  0.00000000000E+00  0.00000000000E+00  0.10845255527E+04  0.10845255527E+04  0.00000000000E+00 0. -1.
          1   -1    0    0  501    0 -0.00000000000E+00 -0.00000000000E+00 -0.19914218093E+03  0.19914218093E+03  0.00000000000E+00 0. -1.
         25    2    1    2    0    0  0.20999758247E+03 -0.10401764065E+03  0.82472506299E+02  0.27809707776E+03  0.12497046112E+03 0.  0.
          2    1    1    2  501    0  0.57261824095E+02 -0.78640507531E+02 -0.38050393898E+02  0.10445610752E+03  0.00000000000E+00 0. -1.
          1    1    1    2  502    0 -0.26725940656E+03  0.18265814819E+03  0.84096125935E+03  0.90111454833E+03  0.00000000000E+00 0. -1.
         22    1    3    3    0    0  0.18577243909E+03 -0.11167305762E+03  0.28727030532E+02  0.21864929272E+03  0.00000000000E+00 0.  1.
         22    1    3    3    0    0  0.24225143374E+02  0.76554169646E+01  0.53745475767E+02  0.59447785037E+02  0.00000000000E+00 0.  1.
</event>
<event>
 7    1  0.6507405E-006  0.8032073E+02  0.7818608E-02  0.1391892E+00
          2   -1    0    0  502    0  0.00000000000E+00  0.00000000000E+00  0.87374388961E+03  0.87374388961E+03  0.00000000000E+00 0. -1.
          1   -1    0    0  501    0 -0.00000000000E+00 -0.00000000000E+00 -0.18024047012E+04  0.18024047012E+04  0.00000000000E+00 0. -1.
         25    2    1    2    0    0 -0.84386310059E+02 -0.18260696670E+02 -0.24256389114E+03  0.28621096789E+03  0.12499989796E+03 0.  0.
          2    1    1    2  501    0  0.27262266346E+02 -0.38279530191E+02 -0.15357613312E+04  0.15364802049E+04  0.00000000000E+00 0. -1.
          1    1    1    2  502    0  0.57124043712E+02  0.56540226861E+02  0.84966441071E+03  0.85345741806E+03  0.00000000000E+00 0. -1.
         22    1    3    3    0    0 -0.69241974961E+02 -0.41872393796E+02 -0.24503602701E+03  0.25805116352E+03  0.00000000000E+00 0. -1.
         22    1    3    3    0    0 -0.15144335097E+02  0.23611697126E+02  0.24721358722E+01  0.28159804375E+02  0.00000000000E+00 0. -1.
</event>
<event>
 7    1  0.6507405E-006  0.1055653E+03  0.7818608E-02  0.1347139E+00
          2   -1    0    0  502    0  0.00000000000E+00  0.00000000000E+00  0.33134959893E+04  0.33134959893E+04  0.00000000000E+00 0. -1.
          1   -1    0    0  501    0 -0.00000000000E+00 -0.00000000000E+00 -0.34671391669E+03  0.34671391669E+03  0.00000000000E+00 0. -1.
         25    2    1    2    0    0  0.65466031638E+01  0.88803848098E+02  0.45332523865E+03  0.47859972213E+03  0.12499976230E+03 0.  0.
          2    1    1    2  501    0 -0.58355598710E+02 -0.88568885492E+02 -0.32541575889E+03  0.34226486748E+03  0.00000000000E+00 0. -1.
          1    1    1    2  502    0  0.51808995546E+02 -0.23496260610E+00  0.28388725928E+04  0.28393453164E+04  0.00000000000E+00 0. -1.
         22    1    3    3    0    0  0.45685381454E+02  0.74861481195E+02  0.16100161653E+03  0.18333825561E+03  0.00000000000E+00 0. -1.
         22    1    3    3    0    0 -0.39138778291E+02  0.13942366903E+02  0.29232362212E+03  0.29526146652E+03  0.00000000000E+00 0. -1.
</event>
<event>
 7    1  0.6507405E-006  0.1056121E+03  0.7818608E-02  0.1272676E+00
          2   -1    0    0  502    0  0.00000000000E+00  0.00000000000E+00  0.54567176732E+03  0.54567176732E+03  0.00000000000E+00 0. -1.
          1   -1    0    0  501    0 -0.00000000000E+00 -0.00000000000E+00 -0.65785243251E+03  0.65785243251E+03  0.00000000000E+00 0. -1.
         25    2    1    2    0    0 -0.17205180617E+02 -0.52874126974E+02 -0.18542552807E+03  0.23043755705E+03  0.12500859848E+03 0.  0.
          2    1    1    2  501    0  0.12224067699E+03  0.41853600763E+02 -0.43510384941E+03  0.45388309814E+03  0.00000000000E+00 0. -1.
          1    1    1    2  502    0 -0.10503549637E+03  0.11020526210E+02  0.50834871228E+03  0.51920354465E+03  0.00000000000E+00 0. -1.
         22    1    3    3    0    0  0.33213162849E+02 -0.69223110370E+02 -0.14391258329E+03  0.16311279785E+03  0.00000000000E+00 0. -1.
         22    1    3    3    0    0 -0.50418343465E+02  0.16348983396E+02 -0.41512944785E+02  0.67324759194E+02  0.00000000000E+00 0. -1.
</event>
<event>
 7    1  0.6507405E-006  0.7887364E+02  0.7818608E-02  0.1464437E+00
          2   -1    0    0  502    0  0.00000000000E+00  0.00000000000E+00  0.10416498388E+04  0.10416498388E+04  0.00000000000E+00 0. -1.
          1   -1    0    0  501    0 -0.00000000000E+00 -0.00000000000E+00 -0.22399934112E+04  0.22399934112E+04  0.00000000000E+00 0. -1.
         25    2    1    2    0    0 -0.38985246460E+01  0.59247561029E+02  0.10085753145E+02  0.13875159054E+03  0.12499923791E+03 0.  0.
          2    1    1    2  501    0  0.26957054704E+02 -0.74348300526E+02 -0.21747452420E+04  0.21761827175E+04  0.00000000000E+00 0. -1.
          1    1    1    2  502    0 -0.23058530058E+02  0.15100739497E+02  0.96631591638E+03  0.96670894192E+03  0.00000000000E+00 0. -1.
         22    1    3    3    0    0  0.57102797937E+02  0.32514350440E+02 -0.15312178925E+02  0.67471292712E+02  0.00000000000E+00 0. -1.
         22    1    3    3    0    0 -0.61001322583E+02  0.26733210589E+02  0.25397932070E+02  0.71280297830E+02  0.00000000000E+00 0. -1.
</event>
<event>
 7    1  0.6507405E-006  0.5865297E+02  0.7818608E-02  0.1517864E+00
          2   -1    0    0  502    0  0.00000000000E+00  0.00000000000E+00  0.21144568833E+04  0.21144568833E+04  0.00000000000E+00 0. -1.
          1   -1    0    0  501    0 -0.00000000000E+00 -0.00000000000E+00 -0.69364583585E+03  0.69364583585E+03  0.00000000000E+00 0. -1.
         25    2    1    2    0    0 -0.44265850903E+02 -0.64378624228E+02  0.56291009580E+03  0.58189111010E+03  0.12500166101E+03 0.  0.
          2    1    1    2  501    0  0.23206947520E+02  0.10708214733E+02 -0.68337746893E+03  0.68385524295E+03  0.00000000000E+00 0. -1.
          1    1    1    2  502    0  0.21058903383E+02  0.53670409495E+02  0.15412784205E+04  0.15423563661E+04  0.00000000000E+00 0. -1.
         22    1    3    3    0    0 -0.99001509860E+01 -0.48735117591E+01  0.44705001501E+03  0.44718618050E+03  0.00000000000E+00 0.  1.
         22    1    3    3    0    0 -0.34365699917E+02 -0.59505112469E+02  0.11586008078E+03  0.13470492961E+03  0.00000000000E+00 0.  1.
</event>
<event>
 7    1  0.6507405E-006  0.1697177E+03  0.7818608E-02  0.1183263E+00
          2   -1    0    0  502    0  0.00000000000E+00  0.00000000000E+00  0.55217759783E+03  0.55217759783E+03  0.00000000000E+00 0. -1.
          1   -1    0    0  501    0 -0.00000000000E+00 -0.00000000000E+00 -0.13227256362E+04  0.13227256362E+04  0.00000000000E+00 0. -1.
         25    2    1    2    0    0  0.23039388121E+02  0.27390376586E+02 -0.63066699792E+02  0.14451790402E+03  0.12500787905E+03 0.  0.
          2    1    1    2  501    0  0.14082540124E+03  0.76447175331E+02 -0.11949957122E+04  0.12056909706E+04  0.00000000000E+00 0. -1.
          1    1    1    2  502    0 -0.16386478936E+03 -0.10383755192E+03  0.48751437362E+03  0.52469435948E+03  0.00000000000E+00 0. -1.
         22    1    3    3    0    0  0.62097728180E+02  0.44669951368E+02 -0.66918386915E+02  0.10163465407E+03  0.00000000000E+00 0. -1.
         22    1    3    3    0    0 -0.39058340059E+02 -0.17279574782E+02  0.38516871236E+01  0.42883249953E+02  0.00000000000E+00 0. -1.
</event>
<event>
 7    1  0.6507405E-006  0.3221725E+03  0.7818608E-02  0.1293950E+00
          2   -1    0    0  502    0  0.00000000000E+00  0.00000000000E+00  0.50176224970E+03  0.50176224970E+03  0.00000000000E+00 0. -1.
          1   -1    0    0  501    0 -0.00000000000E+00 -0.00000000000E+00 -0.44957248851E+03  0.44957248851E+03  0.00000000000E+00 0. -1.
         25    2    1    2    0    0  0.20380531530E+03  0.27427282080E+03 -0.40289444658E+02  0.36607299423E+03  0.12499604386E+03 0.  0.
          2    1    1    2  501    0 -0.20674849458E+02 -0.17824240067E+02 -0.17182011701E+03  0.17397501413E+03  0.00000000000E+00 0. -1.
          1    1    1    2  502    0 -0.18313046584E+03 -0.25644858074E+03  0.26429932286E+03  0.41128672984E+03  0.00000000000E+00 0. -1.
         22    1    3    3    0    0  0.23982481591E+02  0.13152435277E+03 -0.24654932889E+02  0.13594734462E+03  0.00000000000E+00 0. -1.
         22    1    3    3    0    0  0.17982283371E+03  0.14274846803E+03 -0.15634511769E+02  0.23012564961E+03  0.00000000000E+00 0. -1.
</event>
<event>
 7    1  0.6507405E-006  0.3636818E+02  0.7818608E-02  0.1563283E+00
          2   -1    0    0  502    0  0.00000000000E+00  0.00000000000E+00  0.11698281253E+04  0.11698281253E+04  0.00000000000E+00 0. -1.
          1   -1    0    0  501    0 -0.00000000000E+00 -0.00000000000E+00 -0.19078571303E+03  0.19078571303E+03  0.00000000000E+00 0. -1.
         25    2    1    2    0    0  0.54232313931E+02  0.27073303969E+02  0.12987616655E+03  0.19017760508E+03  0.12500238066E+03 0.  0.
          2    1    1    2  501    0 -0.18150841407E+02 -0.24728093051E+02 -0.15884349710E+03  0.16177820682E+03  0.00000000000E+00 0. -1.
          1    1    1    2  502    0 -0.36081472524E+02 -0.23452109184E+01  0.10080097428E+04  0.10086580264E+04  0.00000000000E+00 0. -1.
         22    1    3    3    0    0  0.21586026704E+02  0.71675685479E+02  0.10647429039E+03  0.13015427366E+03  0.00000000000E+00 0.  1.
         22    1    3    3    0    0  0.32646287227E+02 -0.44602381510E+02  0.23401876160E+02  0.60023331413E+02  0.00000000000E+00 0.  1.
</event>
<event>
 7    1  0.6507405E-006  0.3032074E+03  0.7818608E-02  0.1167643E+00
          2   -1    0    0  502    0  0.00000000000E+00  0.00000000000E+00  0.15194328879E+04  0.15194328879E+04  0.00000000000E+00 0. -1.
          1   -1    0    0  501    0 -0.00000000000E+00 -0.00000000000E+00 -0.75660026654E+03  0.75660026654E+03  0.00000000000E+00 0. -1.
         25    2    1    2    0    0  0.37722367815E+03 -0.14369514414E+03 -0.12053589757E+03  0.43943149738E+03  0.12500056194E+03 0.  0.
          2    1    1    2  501    0 -0.10339092111E+03  0.27762795300E+02 -0.45406248976E+03  0.46651173616E+03  0.00000000000E+00 0. -1.
          1    1    1    2  502    0 -0.27383275704E+03  0.11593234884E+03  0.13374310087E+04  0.13700899209E+04  0.00000000000E+00 0. -1.
         22    1    3    3    0    0  0.24780202143E+03 -0.14538337543E+03 -0.48698251861E+02  0.29139953228E+03  0.00000000000E+00 0.  1.
         22    1    3    3    0    0  0.12942165671E+03  0.16882312945E+01 -0.71837645705E+02  0.14803196510E+03  0.00000000000E+00 0.  1.
</event>
<event>
 7    1  0.6507405E-006  0.8009987E+02  0.7818608E-02  0.1439465E+00
          2   -1    0    0  502    0  0.00000000000E+00  0.00000000000E+00  0.28795722005E+03  0.28795722005E+03  0.00000000000E+00 0. -1.
          1   -1    0    0  501    0 -0.00000000000E+00 -0.00000000000E+00 -0.62247229162E+03  0.62247229162E+03  0.00000000000E+00 0. -1.
         25    2    1    2    0    0 -0.81469130043E+02  0.71232809980E+02  0.67231356758E+02  0.17848569752E+03  0.12500302604E+03 0.  0.
          2    1    1    2  501    0  0.25858365488E+02 -0.19864077858E+02 -0.55766517232E+03  0.55861765195E+03  0.00000000000E+00 0. -1.
          1    1    1    2  502    0  0.55610764555E+02 -0.51368732122E+02  0.15591874399E+03  0.17332616220E+03  0.00000000000E+00 0. -1.
         22    1    3    3    0    0 -0.88728363346E+02  0.55560118086E+02 -0.44203076522E+01  0.10478162197E+03  0.00000000000E+00 0.  1.
         22    1    3    3    0    0  0.72592333025E+01  0.15672691894E+02  0.71651664411E+02  0.73704075546E+02  0.00000000000E+00 0.  1.
</event>
<event>
 7    1  0.6507405E-006  0.1848038E+03  0.7818608E-02  0.1234023E+00
          2   -1    0    0  502    0  0.00000000000E+00  0.00000000000E+00  0.20696878994E+03  0.20696878994E+03  0.00000000000E+00 0. -1.
          1   -1    0    0  501    0 -0.00000000000E+00 -0.00000000000E+00 -0.47851546203E+03  0.47851546203E+03  0.00000000000E+00 0. -1.
         25    2    1    2    0    0  0.32558868814E+02 -0.13585764257E+03 -0.20576762984E+03  0.27835679873E+03  0.12499924369E+03 0.  0.
          2    1    1    2  501    0 -0.60325798699E+02 -0.60533434115E+02 -0.16464894133E+03  0.18550679911E+03  0.00000000000E+00 0. -1.
          1    1    1    2  502    0  0.27766929885E+02  0.19639107669E+03  0.98869899078E+02  0.22162065414E+03  0.00000000000E+00 0. -1.
         22    1    3    3    0    0 -0.23441017734E+02 -0.12864650501E+03 -0.15001496070E+03  0.19900726871E+03  0.00000000000E+00 0. -1.
         22    1    3    3    0    0  0.55999886548E+02 -0.72111375606E+01 -0.55752669135E+02  0.79349530018E+02  0.00000000000E+00 0. -1.
</event>
<event>
 7    1  0.6507405E-006  0.1507370E+03  0.7818608E-02  0.1253797E+00
          2   -1    0    0  502    0  0.00000000000E+00  0.00000000000E+00  0.87755526869E+03  0.87755526869E+03  0.00000000000E+00 0. -1.
          1   -1    0    0  501    0 -0.00000000000E+00 -0.00000000000E+00 -0.77458452918E+03  0.77458452918E+03  0.00000000000E+00 0. -1.
         25    2    1    2    0    0  0.38556903315E+02 -0.11448018453E+03  0.22052267886E+03  0.28079745849E+03  0.12499845344E+03 0.  0.
          2    1    1    2  501    0  0.85737873204E+02  0.38249343102E+01 -0.73084778770E+03  0.73586962283E+03  0.00000000000E+00 0. -1.
          1    1    1    2  502    0 -0.12429477652E+03  0.11065525022E+03  0.61329584835E+03  0.63547271655E+03  0.00000000000E+00 0. -1.
         22    1    3    3    0    0  0.24191026942E+02  0.48245814046E+01 -0.50819996950E+01  0.25185493665E+02  0.00000000000E+00 0.  1.
         22    1    3    3    0    0  0.14365876372E+02 -0.11930476593E+03  0.22560467855E+03  0.25561196483E+03  0.00000000000E+00 0.  1.
</event>
<event>
 7    1  0.6507405E-006  0.1802434E+03  0.7818608E-02  0.1385821E+00
          2   -1    0    0  502    0  0.00000000000E+00  0.00000000000E+00  0.46352646033E+03  0.46352646033E+03  0.00000000000E+00 0. -1.
          1   -1    0    0  501    0 -0.00000000000E+00 -0.00000000000E+00 -0.11757404216E+04  0.11757404216E+04  0.00000000000E+00 0. -1.
         25    2    1    2    0    0  0.81473040617E+02  0.15312343460E+03  0.66020424947E+02  0.22375727506E+03  0.12499591618E+03 0.  0.
          2    1    1    2  501    0 -0.10295933459E+03 -0.14843878462E+03 -0.10890427276E+04  0.11039242546E+04  0.00000000000E+00 0. -1.
          1    1    1    2  502    0  0.21486293976E+02 -0.46846499832E+01  0.31080834130E+03  0.31158535235E+03  0.00000000000E+00 0. -1.
         22    1    3    3    0    0  0.13595408130E+02  0.13131215856E+03  0.87427572767E+01  0.13230326494E+03  0.00000000000E+00 0.  1.
         22    1    3    3    0    0  0.67877632487E+02  0.21811276042E+02  0.57277667670E+02  0.91454010127E+02  0.00000000000E+00 0.  1.
</event>
<event>
 7    1  0.6507405E-006  0.6808639E+02  0.7818608E-02  0.1438478E+00
          2   -1    0    0  502    0  0.00000000000E+00  0.00000000000E+00  0.45275105036E+03  0.45275105036E+03  0.00000000000E+00 0. -1.
          1   -1    0    0  501    0 -0.00000000000E+00 -0.00000000000E+00 -0.26099614314E+03  0.26099614314E+03  0.00000000000E+00 0. -1.
         25    2    1    2    0    0  0.87381989793E+02 -0.67647476150E+01  0.23925938184E+03  0.28381407227E+03  0.12499600742E+03 0.  0.
          2    1    1    2  501    0 -0.59194775268E+02  0.33201727322E+02 -0.23185036815E+03  0.24158015094E+03  0.00000000000E+00 0. -1.
          1    1    1    2  502    0 -0.28187214525E+02 -0.26436979707E+02  0.18434589353E+03  0.18835297029E+03  0.00000000000E+00 0. -1.
         22    1    3    3    0    0  0.45568159680E+02 -0.37263025797E+02  0.25975357362E+02  0.64340573966E+02  0.00000000000E+00 0. -1.
         22    1    3    3    0    0  0.41813830113E+02  0.30498278182E+02  0.21328402447E+03  0.21947349830E+03  0.00000000000E+00 0. -1.
</event>
<event>
 7    1  0.6507405E-006  0.9975840E+02  0.7818608E-02  0.1395152E+00
          2   -1    0    0  502    0  0.00000000000E+00  0.00000000000E+00  0.95129770696E+03  0.95129770696E+03  0.00000000000E+00 0. -1.
          1   -1    0    0  501    0 -0.00000000000E+00 -0.00000000000E+00 -0.70458916769E+02  0.70458916769E+02  0.00000000000E+00 0. -1.
         25    2    1    2    0    0  0.49706756026E+02 -0.64020552397E+02  0.41985921981E+03  0.44550600341E+03  0.12499776756E+03 0.  0.
          2    1    1    2  501    0 -0.66562373947E+01 -0.36259087877E+02 -0.45264735717E+02  0.58377420716E+02  0.00000000000E+00 0. -1.
          1    1    1    2  502    0 -0.43050518631E+02  0.10027964027E+03  0.50624430611E+03  0.51787319961E+03  0.00000000000E+00 0. -1.
         22    1    3    3    0    0  0.55854945668E+02 -0.10851759077E+02  0.36294580787E+03  0.36737881687E+03  0.00000000000E+00 0.  1.
         22    1    3    3    0    0 -0.61481896417E+01 -0.53168793320E+02  0.56913411932E+02  0.78127186540E+02  0.00000000000E+00 0.  1.
</event>
<event>
 7    1  0.6507405E-006  0.1773640E+03  0.7818608E-02  0.1288467E+00
          2   -1    0    0  502    0  0.00000000000E+00  0.00000000000E+00  0.19784019360E+04  0.19784019360E+04  0.00000000000E+00 0. -1.
          1   -1    0    0  501    0 -0.00000000000E+00 -0.00000000000E+00 -0.18014682925E+03  0.18014682925E+03  0.00000000000E+00 0. -1.
         25    2    1    2    0    0  0.19831480279E+03  0.56272828128E+02  0.45847222759E+03  0.51799375341E+03  0.12500141163E+03 0.  0.
          2    1    1    2  501    0 -0.17454821538E+03 -0.98062005520E+01 -0.98944552293E+02  0.20088122234E+03  0.00000000000E+00 0. -1.
          1    1    1    2  502    0 -0.23766587414E+02 -0.46466627576E+02  0.14387274315E+04  0.14396737895E+04  0.00000000000E+00 0. -1.
         22    1    3    3    0    0  0.18311016492E+03  0.72419594272E+02  0.30576379397E+03  0.36368314208E+03  0.00000000000E+00 0.  1.
         22    1    3    3    0    0  0.15204637872E+02 -0.16146766144E+02  0.15270843362E+03  0.15431061133E+03  0.00000000000E+00 0.  1.
</event>
<event>
 7    1  0.1122395E-005  0.1023132E+03  0.7818608E-02  0.1343663E+00
          2   -1    0    0  502    0  0.00000000000E+00  0.00000000000E+00  0.28143358658E+04  0.28143358658E+04  0.00000000000E+00 0. -1.
          1   -1    0    0  501    0 -0.00000000000E+00 -0.00000000000E+00 -0.99615608923E+03  0.99615608923E+03  0.00000000000E+00 0. -1.
         25    2    1    2    0    0  0.67903885840E+02  0.71584760951E+02 -0.19279084246E+03  0.25004223659E+03  0.12496997812E+03 0.  0.
          2    1    1    2  501    0  0.31097770595E+02 -0.45457740578E+02 -0.77281828922E+03  0.77477841069E+03  0.00000000000E+00 0. -1.
          1    1    1    2  502    0 -0.99001656436E+02 -0.26127020373E+02  0.27837889083E+04  0.27856713078E+04  0.00000000000E+00 0. -1.
         22    1    3    3    0    0  0.85536377267E+02  0.96255549241E+02 -0.15994476320E+03  0.20533857375E+03  0.00000000000E+00 0. -1.
         22    1    3    3    0    0 -0.17632491426E+02 -0.24670788289E+02 -0.32846079257E+02  0.44703662839E+02  0.00000000000E+00 0. -1.
</event>
<event>
 7    1  0.6507405E-006  0.7191215E+02  0.7818608E-02  0.1449972E+00
          2   -1    0    0  502    0  0.00000000000E+00  0.00000000000E+00  0.57259854254E+03  0.57259854254E+03  0.00000000000E+00 0. -1.
          1   -1    0    0  501    0 -0.00000000000E+00 -0.00000000000E+00 -0.82420332888E+03  0.82420332888E+03  0.00000000000E+00 0. -1.
         25    2    1    2    0    0  0.26247251047E+02 -0.85344745258E+02  0.19782725261E+03  0.25046665592E+03  0.12500112047E+03 0.  0.
          2    1    1    2  501    0  0.16202060990E+02  0.29429843787E+02 -0.79398886992E+03  0.79469928152E+03  0.00000000000E+00 0. -1.
          1    1    1    2  502    0 -0.42449312037E+02  0.55914901471E+02  0.34455683097E+03  0.35163593398E+03  0.00000000000E+00 0. -1.
         22    1    3    3    0    0  0.56845036402E+02 -0.98423501131E+02  0.11729250001E+03  0.16332811851E+03  0.00000000000E+00 0. -1.
         22    1    3    3    0    0 -0.30597785355E+02  0.13078755872E+02  0.80534752602E+02  0.87138537402E+02  0.00000000000E+00 0. -1.
</event>
<event>
 7    1  0.6507405E-006  0.4508675E+02  0.7818608E-02  0.1490215E+00
          2   -1    0    0  502    0  0.00000000000E+00  0.00000000000E+00  0.76375952981E+02  0.76375952981E+02  0.00000000000E+00 0. -1.
          1   -1    0    0  501    0 -0.00000000000E+00 -0.00000000000E+00 -0.15721468276E+04  0.15721468276E+04  0.00000000000E+00 0. -1.
         25    2    1    2    0    0 -0.36608881201E+02  0.99853565443E+01 -0.26842842481E+02  0.13335029699E+03  0.12498738331E+03 0.  0.
          2    1    1    2  501    0  0.13844514153E+02 -0.43075003675E+02 -0.14739958435E+04  0.14746900940E+04  0.00000000000E+00 0. -1.
          1    1    1    2  502    0  0.22764367048E+02  0.33089647131E+02  0.50678114175E+01  0.40482389590E+02  0.00000000000E+00 0. -1.
         22    1    3    3    0    0  0.43365945356E+02 -0.16398240925E+02 -0.78867813763E+01  0.47028808645E+02  0.00000000000E+00 0. -1.
         22    1    3    3    0    0 -0.79974826558E+02  0.26383597469E+02 -0.18956061104E+02  0.86321488350E+02  0.00000000000E+00 0. -1.
</event>
<event>
 7    1  0.6507405E-006  0.6702886E+02  0.7818608E-02  0.1408159E+00
          2   -1    0    0  502    0  0.00000000000E+00  0.00000000000E+00  0.14099212152E+04  0.14099212152E+04  0.00000000000E+00 0. -1.
          1   -1    0    0  501    0 -0.00000000000E+00 -0.00000000000E+00 -0.92790527449E+02  0.92790527449E+02  0.00000000000E+00 0. -1.
         25    2    1    2    0    0 -0.30664394232E+02  0.96460391436E+01  0.24751968026E+03  0.27915033688E+03  0.12500226925E+03 0.  0.
          2    1    1    2  501    0  0.64216110547E+02  0.26760410261E+02 -0.60603031752E+02  0.92263513203E+02  0.00000000000E+00 0. -1.
          1    1    1    2  502    0 -0.33551716315E+02 -0.36406449405E+02  0.11302140392E+04  0.11312978925E+04  0.00000000000E+00 0. -1.
         22    1    3    3    0    0 -0.71437340187E+02  0.20826751991E+01  0.83209235082E+02  0.10968777467E+03  0.00000000000E+00 0. -1.
         22    1    3    3    0    0  0.40772945955E+02  0.75633639444E+01  0.16431044518E+03  0.16946256221E+03  0.00000000000E+00 0. -1.
</event>
<event>
 7    1  0.6507405E-006  0.8128332E+02  0.7818608E-02  0.1345011E+00
          2   -1    0    0  502    0  0.00000000000E+00  0.00000000000E+00  0.47976934294E+03  0.47976934294E+03  0.00000000000E+00 0. -1.
          1   -1    0    0  501    0 -0.00000000000E+00 -0.00000000000E+00 -0.14636033588E+04  0.14636033588E+04  0.00000000000E+00 0. -1.
         25    2    1    2    0    0  0.25062572006E+02 -0.20557343966E-01  0.99346324295E+02  0.16162637898E+03  0.12500104517E+03 0.  0.
          2    1    1    2  501    0  0.64567535873E+02  0.22955322297E+02 -0.14254992576E+04  0.14271454190E+04  0.00000000000E+00 0. -1.
          1    1    1    2  502    0 -0.89630107879E+02 -0.22934764953E+02  0.34231891747E+03  0.35460090374E+03  0.00000000000E+00 0. -1.
         22    1    3    3    0    0  0.13797528481E+02  0.59453468556E+02  0.25512159932E+02  0.66151016772E+02  0.00000000000E+00 0. -1.
         22    1    3    3    0    0  0.11265043525E+02 -0.59474025900E+02  0.73834164362E+02  0.95475362212E+02  0.00000000000E+00 0. -1.
</event>
<event>
 7    1  0.6507405E-006  0.7913782E+02  0.7818608E-02  0.1447506E+00
          2   -1    0    0  502    0  0.00000000000E+00  0.00000000000E+00  0.26995784792E+03  0.26995784792E+03  0.00000000000E+00 0. -1.
          1   -1    0    0  501    0 -0.00000000000E+00 -0.00000000000E+00 -0.61725051379E+03  0.61725051379E+03  0.00000000000E+00 0. -1.
         25    2    1    2    0    0  0.56076603434E+02 -0.24683904175E+02 -0.87070970809E+02  0.16419685752E+03  0.12500149393E+03 0.  0.
          2    1    1    2  501    0  0.17894451561E+01 -0.31036538521E+02 -0.48413086965E+03  0.48512799114E+03  0.00000000000E+00 0. -1.
          1    1    1    2  502    0 -0.57866048590E+02  0.55720442696E+02  0.22390917459E+03  0.23788351305E+03  0.00000000000E+00 0. -1.
         22    1    3    3    0    0  0.91380180228E+02  0.14608610785E+01 -0.39852986184E+02  0.99703219413E+02  0.00000000000E+00 0.  1.
         22    1    3    3    0    0 -0.35303576793E+02 -0.26144765254E+02 -0.47217984625E+02  0.64493638110E+02  0.00000000000E+00 0.  1.
</event>
<event>
 7    1  0.6507405E-006  0.2998502E+02  0.7818608E-02  0.1640890E+00
          2   -1    0    0  502    0  0.00000000000E+00  0.00000000000E+00  0.20321391006E+04  0.20321391006E+04  0.00000000000E+00 0. -1.
          1   -1    0    0  501    0 -0.00000000000E+00 -0.00000000000E+00 -0.36999385014E+02  0.36999385014E+02  0.00000000000E+00 0. -1.
         25    2    1    2    0    0  0.92996311728E+01 -0.96909249621E+01  0.91159191744E+03  0.92021965176E+03  0.12499594544E+03 0.  0.
          2    1    1    2  501    0 -0.30132641223E+02 -0.84885801610E+00 -0.25586142788E+02  0.39539187267E+02  0.00000000000E+00 0. -1.
          1    1    1    2  502    0  0.20833010050E+02  0.10539782978E+02  0.11091339409E+04  0.11093796465E+04  0.00000000000E+00 0. -1.
         22    1    3    3    0    0 -0.48682008127E+02 -0.37335426836E+02  0.46629877832E+03  0.47031736378E+03  0.00000000000E+00 0. -1.
         22    1    3    3    0    0  0.57981639300E+02  0.27644501874E+02  0.44529313912E+03  0.44990228798E+03  0.00000000000E+00 0. -1.
</event>
<event>
 7    1  0.6507405E-006  0.6780857E+02  0.7818608E-02  0.1464709E+00
          2   -1    0    0  502    0  0.00000000000E+00  0.00000000000E+00  0.36025518858E+04  0.36025518858E+04  0.00000000000E+00 0. -1.
          1   -1    0    0  501    0 -0.00000000000E+00 -0.00000000000E+00 -0.19367002899E+02  0.19367002899E+02  0.00000000000E+00 0. -1.
         25    2    1    2    0    0 -0.63154169056E+02  0.17807747723E+02  0.18564235118E+04  0.18617838887E+04  0.12500171225E+03 0.  0.
          2    1    1    2  501    0  0.49575988715E+02 -0.46782025717E+02  0.53721153854E+02  0.86788818166E+02  0.00000000000E+00 0. -1.
          1    1    1    2  502    0  0.13578180341E+02  0.28974277994E+02  0.16730402173E+04  0.16733461819E+04  0.00000000000E+00 0. -1.
         22    1    3    3    0    0  0.97977432003E+01  0.56636261432E+02  0.87593709939E+03  0.87782086098E+03  0.00000000000E+00 0. -1.
         22    1    3    3    0    0 -0.72951912257E+02 -0.38828513709E+02  0.98048641238E+03  0.98396302768E+03  0.00000000000E+00 0. -1.
</event>
<event>
 7    1  0.6507405E-006  0.8065510E+02  0.7818608E-02  0.1382607E+00
          2   -1    0    0  502    0  0.00000000000E+00  0.00000000000E+00  0.64182546530E+03  0.64182546530E+03  0.00000000000E+00 0. -1.
          1   -1    0    0  501    0 -0.00000000000E+00 -0.00000000000E+00 -0.14258319212E+04  0.14258319212E+04  0.00000000000E+00 0. -1.
         25    2    1    2    0    0  0.24785672466E+02 -0.18085798929E+02  0.10811791536E+03  0.16809563021E+03  0.12500092636E+03 0.  0.
          2    1    1    2  501    0 -0.63469441777E+02  0.50456735631E+02 -0.13933987998E+04  0.13957558768E+04  0.00000000000E+00 0. -1.
          1    1    1    2  502    0  0.38683769312E+02 -0.32370936702E+02  0.50127442853E+03  0.50380587953E+03  0.00000000000E+00 0. -1.
         22    1    3    3    0    0  0.56460543203E+01 -0.70012997301E+02  0.41868145093E+02  0.81771873489E+02  0.00000000000E+00 0. -1.
         22    1    3    3    0    0  0.19139618145E+02  0.51927198371E+02  0.66249770270E+02  0.86323756720E+02  0.00000000000E+00 0. -1.
</event>
<event>
 7    1  0.6507405E-006  0.1248907E+03  0.7818608E-02  0.1432567E+00
          2   -1    0    0  502    0  0.00000000000E+00  0.00000000000E+00  0.12813973379E+04  0.12813973379E+04  0.00000000000E+00 0. -1.
          1   -1    0    0  501    0 -0.00000000000E+00 -0.00000000000E+00 -0.21262399274E+03  0.21262399274E+03  0.00000000000E+00 0. -1.
         25    2    1    2    0    0  0.90985583099E+02 -0.10770118966E+03  0.49923751166E+02  0.19492230408E+03  0.12499760442E+03 0.  0.
          2    1    1    2  501    0 -0.70896387549E+02  0.98670182121E+02 -0.11366005585E+03  0.16637521120E+03  0.00000000000E+00 0. -1.
          1    1    1    2  502    0 -0.20089195550E+02  0.90310075428E+01  0.11325096498E+04  0.11327238153E+04  0.00000000000E+00 0. -1.
         22    1    3    3    0    0  0.11840788300E+02 -0.11524917317E+02 -0.38684417109E+02  0.42065569220E+02  0.00000000000E+00 0.  1.
         22    1    3    3    0    0  0.79144794799E+02 -0.96176272347E+02  0.88608168275E+02  0.15285673486E+03  0.00000000000E+00 0.  1.
</event>
<event>
 7    1  0.7431196E-006  0.5796132E+02  0.7818608E-02  0.1440095E+00
          2   -1    0    0  502    0  0.00000000000E+00  0.00000000000E+00  0.12425345698E+04  0.12425345698E+04  0.00000000000E+00 0. -1.
          1   -1    0    0  501    0 -0.00000000000E+00 -0.00000000000E+00 -0.13082672793E+04  0.13082672793E+04  0.00000000000E+00 0. -1.
         25    2    1    2    0    0 -0.31958542777E+02 -0.57268403655E+00 -0.95724747505E+02  0.16065717140E+03  0.12500329201E+03 0.  0.
          2    1    1    2  501    0 -0.62714213014E+01  0.44409290345E+02 -0.11789507156E+04  0.11798035029E+04  0.00000000000E+00 0. -1.
          1    1    1    2  502    0  0.38229964078E+02 -0.43836606308E+02  0.12089427536E+04  0.12103411749E+04  0.00000000000E+00 0. -1.
         22    1    3    3    0    0 -0.28023347949E+02  0.20866626101E+02 -0.12177629777E+03  0.12668934767E+03  0.00000000000E+00 0.  1.
         22    1    3    3    0    0 -0.39351948277E+01 -0.21439310138E+02  0.26051550265E+02  0.33967823727E+02  0.00000000000E+00 0.  1.
</event>
<event>
 7    1  0.6507405E-006  0.4897710E+02  0.7818608E-02  0.1451795E+00
          2   -1    0    0  502    0  0.00000000000E+00  0.00000000000E+00  0.88318835286E+03  0.88318835286E+03  0.00000000000E+00 0. -1.
          1   -1    0    0  501    0 -0.00000000000E+00 -0.00000000000E+00 -0.16790658144E+04  0.16790658144E+04  0.00000000000E+00 0. -1.
         25    2    1    2    0    0  0.79107511113E+02 -0.16187607718E+02 -0.79270886041E+02  0.16861154042E+03  0.12500376487E+03 0.  0.
          2    1    1    2  501    0 -0.44918204638E+02 -0.18736532175E+02 -0.15540311626E+04  0.15547930914E+04  0.00000000000E+00 0. -1.
          1    1    1    2  502    0 -0.34189306475E+02  0.34924139893E+02  0.83742458704E+03  0.83884953549E+03  0.00000000000E+00 0. -1.
         22    1    3    3    0    0  0.75240842472E+02  0.35020582357E+02 -0.11809279436E+02  0.83827708100E+02  0.00000000000E+00 0.  1.
         22    1    3    3    0    0  0.38666686415E+01 -0.51208190075E+02 -0.67461606605E+02  0.84783832320E+02  0.00000000000E+00 0.  1.
</event>
<event>
 7    1  0.6507405E-006  0.8136339E+02  0.7818608E-02  0.1387638E+00
          2   -1    0    0  502    0  0.00000000000E+00  0.00000000000E+00  0.17782164786E+04  0.17782164786E+04  0.00000000000E+00 0. -1.
          1   -1    0    0  501    0 -0.00000000000E+00 -0.00000000000E+00 -0.31360280813E+03  0.31360280813E+03  0.00000000000E+00 0. -1.
         25    2    1    2    0    0  0.77742420820E+02  0.20598204773E+02  0.40305139323E+03  0.42958658869E+03  0.12500416616E+03 0.  0.
          2    1    1    2  501    0 -0.23554809399E+02  0.41831118822E+02 -0.29715251153E+03  0.30100545952E+03  0.00000000000E+00 0. -1.
          1    1    1    2  502    0 -0.54187611421E+02 -0.62429323595E+02  0.13587147888E+04  0.13612272386E+04  0.00000000000E+00 0. -1.
         22    1    3    3    0    0  0.52827421169E+02 -0.18214177316E+02  0.54701769813E+02  0.78197035132E+02  0.00000000000E+00 0.  1.
         22    1    3    3    0    0  0.24914999651E+02  0.38812382089E+02  0.34834962342E+03  0.35138955356E+03  0.00000000000E+00 0.  1.
</event>
<event>
 7    1  0.6507405E-006  0.6703995E+02  0.7818608E-02  0.1425480E+00
          2   -1    0    0  502    0  0.00000000000E+00  0.00000000000E+00  0.58453239140E+03  0.58453239140E+03  0.00000000000E+00 0. -1.
          1   -1    0    0  501    0 -0.00000000000E+00 -0.00000000000E+00 -0.89019463771E+03  0.89019463771E+03  0.00000000000E+00 0. -1.
         25    2    1    2    0    0  0.45653063164E+02  0.48373982216E+02 -0.11514741915E+03  0.18249834923E+03  0.12498989960E+03 0.  0.
          2    1    1    2  501    0 -0.39127703521E+02  0.18545880364E+02 -0.73868364917E+03  0.73995166086E+03  0.00000000000E+00 0. -1.
          1    1    1    2  502    0 -0.65253596434E+01 -0.66919862580E+02  0.54816882200E+03  0.55227701902E+03  0.00000000000E+00 0. -1.
         22    1    3    3    0    0  0.86571797631E+02  0.30274966437E+02 -0.53017740934E+02  0.10593455806E+03  0.00000000000E+00 0.  1.
         22    1    3    3    0    0 -0.40918734467E+02  0.18099015779E+02 -0.62129678220E+02  0.76563791169E+02  0.00000000000E+00 0.  1.
</event>
<event>
 7    1  0.6507405E-006  0.9275633E+02  0.7818608E-02  0.1320157E+00
          2   -1    0    0  502    0  0.00000000000E+00  0.00000000000E+00  0.79379805480E+03  0.79379805480E+03  0.00000000000E+00 0. -1.
          1   -1    0    0  501    0 -0.00000000000E+00 -0.00000000000E+00 -0.48338399340E+03  0.48338399340E+03  0.00000000000E+00 0. -1.
         25    2    1    2    0    0 -0.16156913978E+03 -0.61580340821E+01  0.24437413613E+03  0.31856920375E+03  0.12500044343E+03 0.  0.
          2    1    1    2  501    0  0.88780466341E+02  0.22780273616E+02 -0.43880575965E+03  0.44827603859E+03  0.00000000000E+00 0. -1.
          1    1    1    2  502    0  0.72788673443E+02 -0.16622239534E+02  0.50484568492E+03  0.51033680586E+03  0.00000000000E+00 0. -1.
         22    1    3    3    0    0 -0.13875962892E+03 -0.18290869332E+02  0.25480003593E+03  0.29070921697E+03  0.00000000000E+00 0.  1.
         22    1    3    3    0    0 -0.22809510862E+02  0.12132835249E+02 -0.10425899803E+02  0.27859986785E+02  0.00000000000E+00 0.  1.
</event>
<event>
 7    1  0.6507405E-006  0.9443378E+02  0.7818608E-02  0.1342910E+00
          2   -1    0    0  502    0  0.00000000000E+00  0.00000000000E+00  0.11460847669E+03  0.11460847669E+03  0.00000000000E+00 0. -1.
          1   -1    0    0  501    0 -0.00000000000E+00 -0.00000000000E+00 -0.96323334303E+03  0.96323334303E+03  0.00000000000E+00 0. -1.
         25    2    1    2    0    0 -0.13172264523E+03 -0.43873734402E+02 -0.61872022407E+03  0.64630902184E+03  0.12499950484E+03 0.  0.
          2    1    1    2  501    0  0.75591068571E+02  0.22505951118E+02 -0.31648230767E+03  0.32616189009E+03  0.00000000000E+00 0. -1.
          1    1    1    2  502    0  0.56131576654E+02  0.21367783284E+02  0.86577665398E+02  0.10537090778E+03  0.00000000000E+00 0. -1.
         22    1    3    3    0    0 -0.36171245932E+02  0.27911142464E+02 -0.33986986404E+03  0.34292698259E+03  0.00000000000E+00 0. -1.
         22    1    3    3    0    0 -0.95551399293E+02 -0.71784876867E+02 -0.27885036002E+03  0.30338203925E+03  0.00000000000E+00 0. -1.
</event>
<event>
 7    1  0.6507405E-006  0.1348418E+03  0.7818608E-02  0.1290785E+00
          2   -1    0    0  502    0  0.00000000000E+00  0.00000000000E+00  0.32468884740E+03  0.32468884740E+03  0.00000000000E+00 0. -1.
          1   -1    0    0  501    0 -0.00000000000E+00 -0.00000000000E+00 -0.17727824064E+04  0.17727824064E+04  0.00000000000E+00 0. -1.
         25    2    1    2    0    0 -0.12498654458E+03 -0.13025105571E+02 -0.60074425076E+03  0.62634675275E+03  0.12500124062E+03 0.  0.
          2    1    1    2  501    0  0.11738440228E+03  0.79769191765E+02 -0.11512108660E+04  0.11599261528E+04  0.00000000000E+00 0. -1.
          1    1    1    2  502    0  0.76021423064E+01 -0.66744086194E+02  0.30386155783E+03  0.31119834822E+03  0.00000000000E+00 0. -1.
         22    1    3    3    0    0 -0.51342941782E+02  0.55475161702E+02 -0.22407338198E+03  0.23647932626E+03  0.00000000000E+00 0. -1.
         22    1    3    3    0    0 -0.73643602800E+02 -0.68500267274E+02 -0.37667086878E+03  0.38986742649E+03  0.00000000000E+00 0. -1.
</event>
<event>
 7    1  0.6507405E-006  0.3709846E+02  0.7818608E-02  0.1613444E+00
          2   -1    0    0  502    0  0.00000000000E+00  0.00000000000E+00  0.77166049036E+02  0.77166049036E+02  0.00000000000E+00 0. -1.
          1   -1    0    0  501    0 -0.00000000000E+00 -0.00000000000E+00 -0.97549460007E+03  0.97549460007E+03  0.00000000000E+00 0. -1.
         25    2    1    2    0    0  0.11291440267E+02  0.24649893740E+02 -0.34598006481E+03  0.36886629987E+03  0.12500011222E+03 0.  0.
          2    1    1    2  501    0  0.69350131079E+01 -0.37208174664E+02 -0.61561002385E+03  0.61677244113E+03  0.00000000000E+00 0. -1.
          1    1    1    2  502    0 -0.18226453374E+02  0.12558280923E+02  0.63261537628E+02  0.67021908100E+02  0.00000000000E+00 0. -1.
         22    1    3    3    0    0  0.39973443198E+02 -0.29259575771E+02 -0.25176756804E+03  0.25659483091E+03  0.00000000000E+00 0.  1.
         22    1    3    3    0    0 -0.28682002932E+02  0.53909469511E+02 -0.94212496768E+02  0.11227146896E+03  0.00000000000E+00 0.  1.
</event>
<event>
 7    1  0.6507405E-006  0.8215752E+02  0.7818608E-02  0.1376149E+00
          2   -1    0    0  502    0  0.00000000000E+00  0.00000000000E+00  0.11304988589E+04  0.11304988589E+04  0.00000000000E+00 0. -1.
          1   -1    0    0  501    0 -0.00000000000E+00 -0.00000000000E+00 -0.17245545951E+04  0.17245545951E+04  0.00000000000E+00 0. -1.
         25    2    1    2    0    0 -0.39288539019E+01 -0.37293630775E+02  0.42073415021E+03  0.44050838932E+03  0.12499666044E+03 0.  0.
          2    1    1    2  501    0 -0.30751529479E+02  0.76306534646E+02 -0.17127054187E+04  0.17146802020E+04  0.00000000000E+00 0. -1.
          1    1    1    2  502    0  0.34680383381E+02 -0.39012903872E+02  0.69791553231E+03  0.69986486260E+03  0.00000000000E+00 0. -1.
         22    1    3    3    0    0  0.48955673215E+02 -0.50187642155E+02  0.16917687829E+03  0.18312911705E+03  0.00000000000E+00 0. -1.
         22    1    3    3    0    0 -0.52884527117E+02  0.12894011381E+02  0.25155727192E+03  0.25737927227E+03  0.00000000000E+00 0. -1.
</event>
<event>
 7    1  0.6507405E-006  0.8667512E+02  0.7818608E-02  0.1383634E+00
          2   -1    0    0  502    0  0.00000000000E+00  0.00000000000E+00  0.14443807527E+04  0.14443807527E+04  0.00000000000E+00 0. -1.
          1   -1    0    0  501    0 -0.00000000000E+00 -0.00000000000E+00 -0.27589094548E+02  0.27589094548E+02  0.00000000000E+00 0. -1.
         25    2    1    2    0    0  0.36081306796E+02  0.28167434657E+02  0.78212550961E+03  0.79337276507E+03  0.12499906598E+03 0.  0.
          2    1    1    2  501    0 -0.77430809170E+02 -0.49543777863E+02  0.79647561460E+02  0.12162997238E+03  0.00000000000E+00 0. -1.
          1    1    1    2  502    0  0.41349502374E+02  0.21376343206E+02  0.55501858713E+03  0.55696710985E+03  0.00000000000E+00 0. -1.
         22    1    3    3    0    0 -0.24461786849E+02 -0.16761583771E+02  0.56206809916E+02  0.63549470394E+02  0.00000000000E+00 0.  1.
         22    1    3    3    0    0  0.60543093645E+02  0.44929018429E+02  0.72591869970E+03  0.72982329468E+03  0.00000000000E+00 0.  1.
</event>
<event>
 7    1  0.6507405E-006  0.7989924E+02  0.7818608E-02  0.1384739E+00
          2   -1    0    0  502    0  0.00000000000E+00  0.00000000000E+00  0.79199671829E+03  0.79199671829E+03  0.00000000000E+00 0. -1.
          1   -1    0    0  501    0 -0.00000000000E+00 -0.00000000000E+00 -0.19117692988E+04  0.19117692988E+04  0.00000000000E+00 0. -1.
         25    2    1    2    0    0 -0.36107824583E+02 -0.38361783910E+02  0.91404468012E+02  0.16356951725E+03  0.12499923496E+03 0.  0.
          2    1    1    2  501    0  0.24954263422E+02 -0.43380031509E+02 -0.18727906303E+04  0.18734591768E+04  0.00000000000E+00 0. -1.
          1    1    1    2  502    0  0.11153561162E+02  0.81741815419E+02  0.66161358176E+03  0.66673732300E+03  0.00000000000E+00 0. -1.
         22    1    3    3    0    0 -0.72428280675E+01  0.45357078281E+02  0.41598297057E+02  0.61968874660E+02  0.00000000000E+00 0.  1.
         22    1    3    3    0    0 -0.28864996516E+02 -0.83718862191E+02  0.49806170956E+02  0.10160064259E+03  0.00000000000E+00 0.  1.
</event>
<event>
 7    1  0.6507405E-006  0.5407408E+02  0.7818608E-02  0.1528119E+00
          2   -1    0    0  502    0  0.00000000000E+00  0.00000000000E+00  0.66817752063E+02  0.66817752063E+02  0.00000000000E+00 0. -1.
          1   -1    0    0  501    0 -0.00000000000E+00 -0.00000000000E+00 -0.21020931149E+03  0.21020931149E+03  0.00000000000E+00 0. -1.
         25    2    1    2    0    0 -0.24995256790E+02 -0.43189784445E+02 -0.54268558878E+02  0.14512221516E+03  0.12500104203E+03 0.  0.
          2    1    1    2  501    0  0.22812578971E+01  0.55619458191E+02 -0.90195238387E+02  0.10599013772E+03  0.00000000000E+00 0. -1.
          1    1    1    2  502    0  0.22713998893E+02 -0.12429673746E+02  0.10722378354E+01  0.25914710670E+02  0.00000000000E+00 0. -1.
         22    1    3    3    0    0 -0.50980595632E+02 -0.11850863621E+02 -0.80986158201E+02  0.96427288252E+02  0.00000000000E+00 0. -1.
         22    1    3    3    0    0  0.25985338842E+02 -0.31338920824E+02  0.26717599323E+02  0.48694926910E+02  0.00000000000E+00 0. -1.
</event>
<event>
 7    1  0.6507405E-006  0.1450524E+03  0.7818608E-02  0.1387713E+00
          2   -1    0    0  502    0  0.00000000000E+00  0.00000000000E+00  0.35624783906E+04  0.35624783906E+04  0.00000000000E+00 0. -1.
          1   -1    0    0  501    0 -0.00000000000E+00 -0.00000000000E+00 -0.11737877078E+02  0.11737877078E+02  0.00000000000E+00 0. -1.
         25    2    1    2    0    0 -0.13508103815E+03  0.70041654618E+02  0.12524275018E+04  0.12678140117E+04  0.12500000263E+03 0.  0.
          2    1    1    2  501    0 -0.16727847943E+01 -0.26859813914E+02  0.10459407600E+03  0.10800078031E+03  0.00000000000E+00 0. -1.
          1    1    1    2  502    0  0.13675382294E+03 -0.43181840704E+02  0.21937189357E+04  0.21984014757E+04  0.00000000000E+00 0. -1.
         22    1    3    3    0    0 -0.98319121023E+02  0.79139096067E+02  0.11735369757E+04  0.11803044859E+04  0.00000000000E+00 0.  1.
         22    1    3    3    0    0 -0.36761917122E+02 -0.90974414486E+01  0.78890526057E+02  0.87509525727E+02  0.00000000000E+00 0.  1.
</event>
<event>
 7    1  0.6507405E-006  0.1088260E+03  0.7818608E-02  0.1433723E+00
          2   -1    0    0  502    0  0.00000000000E+00  0.00000000000E+00  0.67471912284E+02  0.67471912284E+02  0.00000000000E+00 0. -1.
          1   -1    0    0  501    0 -0.00000000000E+00 -0.00000000000E+00 -0.55897034169E+03  0.55897034169E+03  0.00000000000E+00 0. -1.
         25    2    1    2    0    0 -0.13947576347E+02 -0.11249790174E+03 -0.13239260044E+03  0.21448417961E+03  0.12500139947E+03 0.  0.
          2    1    1    2  501    0 -0.22116736274E+02  0.11778572780E+02 -0.27429562698E+03  0.27543778931E+03  0.00000000000E+00 0. -1.
          1    1    1    2  502    0  0.36064312620E+02  0.10071932896E+03 -0.84810201985E+02  0.13652028505E+03  0.00000000000E+00 0. -1.
         22    1    3    3    0    0 -0.66364307821E+02 -0.35083121322E+02 -0.64026432340E+02  0.98663219046E+02  0.00000000000E+00 0.  1.
         22    1    3    3    0    0  0.52416731474E+02 -0.77414780415E+02 -0.68366168100E+02  0.11582096056E+03  0.00000000000E+00 0.  1.
</event>
<event>
 7    1  0.6507405E-006  0.2811553E+03  0.7818608E-02  0.1326710E+00
          2   -1    0    0  502    0  0.00000000000E+00  0.00000000000E+00  0.14327662395E+04  0.14327662395E+04  0.00000000000E+00 0. -1.
          1   -1    0    0  501    0 -0.00000000000E+00 -0.00000000000E+00 -0.18280841874E+04  0.18280841874E+04  0.00000000000E+00 0. -1.
         25    2    1    2    0    0  0.26642579584E+03 -0.53714319956E+01 -0.26272648088E+03  0.39453978876E+03  0.12499953673E+03 0.  0.
          2    1    1    2  501    0 -0.28405461107E+03 -0.97695242371E+01 -0.14858817292E+04  0.15128208681E+04  0.00000000000E+00 0. -1.
          1    1    1    2  502    0  0.17628815230E+02  0.15140956233E+02  0.13532902622E+04  0.13534897700E+04  0.00000000000E+00 0. -1.
         22    1    3    3    0    0  0.12349954219E+02  0.32523058416E+02 -0.15757013769E+02  0.38191022255E+02  0.00000000000E+00 0. -1.
         22    1    3    3    0    0  0.25407584163E+03 -0.37894490412E+02 -0.24696946711E+03  0.35634876650E+03  0.00000000000E+00 0. -1.
</event>
<event>
 7    1  0.6507405E-006  0.1062019E+03  0.7818608E-02  0.1272316E+00
          2   -1    0    0  502    0  0.00000000000E+00  0.00000000000E+00  0.27931240293E+03  0.27931240293E+03  0.00000000000E+00 0. -1.
          1   -1    0    0  501    0 -0.00000000000E+00 -0.00000000000E+00 -0.10795367519E+04  0.10795367519E+04  0.00000000000E+00 0. -1.
         25    2    1    2    0    0 -0.13635570092E+02  0.86035546460E+02 -0.51930314860E+03  0.54119182802E+03  0.12499916216E+03 0.  0.
          2    1    1    2  501    0 -0.85834702553E+02 -0.10689948493E+03 -0.53063174061E+03  0.54805578200E+03  0.00000000000E+00 0. -1.
          1    1    1    2  502    0  0.99470272645E+02  0.20863938471E+02  0.24971054023E+03  0.26960154482E+03  0.00000000000E+00 0. -1.
         22    1    3    3    0    0  0.40795609762E+02  0.49096770693E+00 -0.25244331215E+03  0.25571888603E+03  0.00000000000E+00 0.  1.
         22    1    3    3    0    0 -0.54431179854E+02  0.85544578753E+02 -0.26685983645E+03  0.28547294199E+03  0.00000000000E+00 0.  1.
</event>
<event>
 7    1  0.6507405E-006  0.8159139E+02  0.7818608E-02  0.1342728E+00
          2   -1    0    0  502    0  0.00000000000E+00  0.00000000000E+00  0.11334748186E+04  0.11334748186E+04  0.00000000000E+00 0. -1.
          1   -1    0    0  501    0 -0.00000000000E+00 -0.00000000000E+00 -0.84492837733E+03  0.84492837733E+03  0.00000000000E+00 0. -1.
         25    2    1    2    0    0 -0.49814111260E+02  0.12634686732E+03 -0.54775619314E+03  0.57802076391E+03  0.12500471921E+03 0.  0.
          2    1    1    2  501    0  0.53179537862E+02 -0.44937863324E+02 -0.27623046759E+03  0.28486970009E+03  0.00000000000E+00 0. -1.
          1    1    1    2  502    0 -0.33654266018E+01 -0.81409003998E+02  0.11125331020E+04  0.11155127320E+04  0.00000000000E+00 0. -1.
         22    1    3    3    0    0 -0.73590288921E+01  0.88063697802E+02 -0.48559002829E+03  0.49356564483E+03  0.00000000000E+00 0. -1.
         22    1    3    3    0    0 -0.42455082368E+02  0.38283169520E+02 -0.62166164848E+02  0.84455119083E+02  0.00000000000E+00 0. -1.
</event>
<event>
 7    1  0.6507405E-006  0.1492466E+03  0.7818608E-02  0.1309326E+00
          2   -1    0    0  502    0  0.00000000000E+00  0.00000000000E+00  0.53772545350E+03  0.53772545350E+03  0.00000000000E+00 0. -1.
          1   -1    0    0  501    0 -0.00000000000E+00 -0.00000000000E+00 -0.78159992929E+02  0.78159992929E+02  0.00000000000E+00 0. -1.
         25    2    1    2    0    0 -0.41077845384E+02 -0.10750119317E+03  0.28164322309E+03  0.32892547457E+03  0.12500066716E+03 0.  0.
          2    1    1    2  501    0  0.50526641338E+02  0.15777848971E+03  0.99275402537E+02  0.19313880720E+03  0.00000000000E+00 0. -1.
          1    1    1    2  502    0 -0.94487959539E+01 -0.50277296535E+02  0.78646834942E+02  0.93821164660E+02  0.00000000000E+00 0. -1.
         22    1    3    3    0    0  0.17234622019E+02 -0.16194567839E+02  0.17608086258E+03  0.17766194413E+03  0.00000000000E+00 0. -1.
         22    1    3    3    0    0 -0.58312467403E+02 -0.91306625331E+02  0.10556236051E+03  0.15126353043E+03  0.00000000000E+00 0. -1.
</event>
<event>
 7    1  0.6507405E-006  0.1313253E+03  0.7818608E-02  0.1301247E+00
          2   -1    0    0  502    0  0.00000000000E+00  0.00000000000E+00  0.17958871667E+04  0.17958871667E+04  0.00000000000E+00 0. -1.
          1   -1    0    0  501    0 -0.00000000000E+00 -0.00000000000E+00 -0.35313384076E+03  0.35313384076E+03  0.00000000000E+00 0. -1.
         25    2    1    2    0    0 -0.12662293427E+03 -0.12970873774E+03  0.40850235869E+03  0.46406610323E+03  0.12500178793E+03 0.  0.
          2    1    1    2  501    0  0.57966435461E+02  0.23622448502E+02 -0.31937107512E+03  0.32544740179E+03  0.00000000000E+00 0. -1.
          1    1    1    2  502    0  0.68656498813E+02  0.10608628924E+03  0.13536220423E+04  0.13595075024E+04  0.00000000000E+00 0. -1.
         22    1    3    3    0    0 -0.37638387972E+02 -0.72778686337E+02  0.30634265310E+03  0.31711071654E+03  0.00000000000E+00 0.  1.
         22    1    3    3    0    0 -0.88984546301E+02 -0.56930051403E+02  0.10215970559E+03  0.14695538670E+03  0.00000000000E+00 0.  1.
</event>
<event>
 7    1  0.6507405E-006  0.3164210E+02  0.7818608E-02  0.1623849E+00
          2   -1    0    0  502    0  0.00000000000E+00  0.00000000000E+00  0.18694980285E+04  0.18694980285E+04  0.00000000000E+00 0. -1.
          1   -1    0    0  501    0 -0.00000000000E+00 -0.00000000000E+00 -0.29326319932E+02  0.29326319932E+02  0.00000000000E+00 0. -1.
         25    2    1    2    0    0 -0.42743103406E+02 -0.94743164653E+01  0.51546187935E+03  0.53220552798E+03  0.12500015755E+03 0.  0.
          2    1    1    2  501    0  0.22089063783E+02  0.22488290318E+02 -0.89243991751E+01  0.32761178869E+02  0.00000000000E+00 0. -1.
          1    1    1    2  502    0  0.20654039622E+02 -0.13013973853E+02  0.13336342284E+04  0.13338576416E+04  0.00000000000E+00 0. -1.
         22    1    3    3    0    0 -0.19085434968E+02 -0.38340860920E+02  0.47587685491E+03  0.47780022654E+03  0.00000000000E+00 0.  1.
         22    1    3    3    0    0 -0.23657668438E+02  0.28866544455E+02  0.39585024440E+02  0.54405301438E+02  0.00000000000E+00 0.  1.
</event>
<event>
 7    1  0.6507405E-006  0.8798016E+02  0.7818608E-02  0.1338112E+00
          2   -1    0    0  502    0  0.00000000000E+00  0.00000000000E+00  0.46064132082E+03  0.46064132082E+03  0.00000000000E+00 0. -1.
          1   -1    0    0  501    0 -0.00000000000E+00 -0.00000000000E+00 -0.76372887606E+03  0.76372887606E+03  0.00000000000E+00 0. -1.
         25    2    1    2    0    0  0.78454331139E+01  0.71991520584E+02 -0.44022746966E+03  0.46332411110E+03  0.12499870808E+03 0.  0.
          2    1    1    2  501    0  0.63986962146E+02 -0.20530715716E+02 -0.30390009620E+03  0.31124124097E+03  0.00000000000E+00 0. -1.
          1    1    1    2  502    0 -0.71832395260E+02 -0.51460804868E+02  0.44104001062E+03  0.44980484481E+03  0.00000000000E+00 0. -1.
         22    1    3    3    0    0  0.11184411751E+02  0.53996865873E+02 -0.44154495056E+03  0.44497493857E+03  0.00000000000E+00 0.  1.
         22    1    3    3    0    0 -0.33389786371E+01  0.17994654712E+02  0.13174808968E+01  0.18349172528E+02  0.00000000000E+00 0.  1.
</event>
<event>
 7    1  0.6507405E-006  0.9338287E+02  0.7818608E-02  0.1340276E+00
          2   -1    0    0  502    0  0.00000000000E+00  0.00000000000E+00  0.13207690091E+04  0.13207690091E+04  0.00000000000E+00 0. -1.
          1   -1    0    0  501    0 -0.00000000000E+00 -0.00000000000E+00 -0.11795908651E+03  0.11795908651E+03  0.00000000000E+00 0. -1.
         25    2    1    2    0    0  0.10370907458E+03  0.63823899314E+01  0.55948159564E+03  0.58261631452E+03  0.12500322811E+03 0.  0.
          2    1    1    2  501    0 -0.23848753191E+02 -0.57375895782E+02 -0.94022067132E+02  0.11269829437E+03  0.00000000000E+00 0. -1.
          1    1    1    2  502    0 -0.79860321388E+02  0.50993505850E+02  0.73735039413E+03  0.74341348676E+03  0.00000000000E+00 0. -1.
         22    1    3    3    0    0  0.46242727477E+02 -0.18903303904E+02  0.47362942181E+03  0.47625681512E+03  0.00000000000E+00 0.  1.
         22    1    3    3    0    0  0.57466347103E+02  0.25285693836E+02  0.85852173820E+02  0.10635949940E+03  0.00000000000E+00 0.  1.
</event>
<event>
 7    1  0.6507405E-006  0.3085228E+02  0.7818608E-02  0.1646844E+00
          2   -1    0    0  502    0  0.00000000000E+00  0.00000000000E+00  0.51771152423E+02  0.51771152423E+02  0.00000000000E+00 0. -1.
          1   -1    0    0  501    0 -0.00000000000E+00 -0.00000000000E+00 -0.23243313625E+04  0.23243313625E+04  0.00000000000E+00 0. -1.
         25    2    1    2    0    0 -0.86499141567E+01 -0.32065577755E+01 -0.12906714925E+04  0.12967432466E+04  0.12500017270E+03 0.  0.
          2    1    1    2  501    0 -0.17869348557E+02 -0.12721781446E+02 -0.10255857870E+04  0.10258203370E+04  0.00000000000E+00 0. -1.
          1    1    1    2  502    0  0.26519262713E+02  0.15928339222E+02  0.43697069411E+02  0.53538931259E+02  0.00000000000E+00 0. -1.
         22    1    3    3    0    0 -0.13498007406E+02  0.54949939566E+02 -0.89550011960E+03  0.89728599469E+03  0.00000000000E+00 0. -1.
         22    1    3    3    0    0  0.48480932494E+01 -0.58156497342E+02 -0.39517137288E+03  0.39945725195E+03  0.00000000000E+00 0. -1.
</event>
<event>
 7    1  0.6507405E-006  0.1135339E+03  0.7818608E-02  0.1270529E+00
          2   -1    0    0  502    0  0.00000000000E+00  0.00000000000E+00  0.45270520676E+03  0.45270520676E+03  0.00000000000E+00 0. -1.
          1   -1    0    0  501    0 -0.00000000000E+00 -0.00000000000E+00 -0.44028035360E+03  0.44028035360E+03  0.00000000000E+00 0. -1.
         25    2    1    2    0    0  0.25708878061E+02 -0.44953340510E+01  0.79328009050E+02  0.15032988663E+03  0.12499994942E+03 0.  0.
          2    1    1    2  501    0 -0.10349397483E+03  0.61984671344E+02 -0.38851532749E+03  0.40681354698E+03  0.00000000000E+00 0. -1.
          1    1    1    2  502    0  0.77785096766E+02 -0.57489337293E+02  0.32161217161E+03  0.33584212676E+03  0.00000000000E+00 0. -1.
         22    1    3    3    0    0 -0.13297630938E+02 -0.37377279275E+02 -0.15545562437E+02  0.42609300698E+02  0.00000000000E+00 0.  1.
         22    1    3    3    0    0  0.39006508999E+02  0.32881945224E+02  0.94873571487E+02  0.10772058593E+03  0.00000000000E+00 0.  1.
</event>
<event>
 7    1  0.6507405E-006  0.1012984E+03  0.7818608E-02  0.1361270E+00
          2   -1    0    0  502    0  0.00000000000E+00  0.00000000000E+00  0.29760231129E+04  0.29760231129E+04  0.00000000000E+00 0. -1.
          1   -1    0    0  501    0 -0.00000000000E+00 -0.00000000000E+00 -0.37402763974E+04  0.37402763974E+04  0.00000000000E+00 0. -1.
         25    2    1    2    0    0  0.11206412472E+03  0.94825174073E+01 -0.42757991825E+03  0.45945803801E+03  0.12501526314E+03 0.  0.
          2    1    1    2  501    0 -0.87648772297E+02 -0.50688596984E+02 -0.32957861706E+04  0.32973410687E+04  0.00000000000E+00 0. -1.
          1    1    1    2  502    0 -0.24415352426E+02  0.41206079577E+02  0.29591128043E+04  0.29595004036E+04  0.00000000000E+00 0. -1.
         22    1    3    3    0    0  0.10130263513E+03  0.66690308391E+01 -0.14695426706E+03  0.17861202776E+03  0.00000000000E+00 0.  1.
         22    1    3    3    0    0  0.10761489597E+02  0.28134865682E+01 -0.28062565119E+03  0.28084601024E+03  0.00000000000E+00 0.  1.
</event>
<event>
 7    1  0.6507405E-006  0.2185972E+03  0.7818608E-02  0.1166605E+00
          2   -1    0    0  502    0  0.00000000000E+00  0.00000000000E+00  0.67992594747E+03  0.67992594747E+03  0.00000000000E+00 0. -1.
          1   -1    0    0  501    0 -0.00000000000E+00 -0.00000000000E+00 -0.56853727042E+03  0.56853727042E+03  0.00000000000E+00 0. -1.
         25    2    1    2    0    0 -0.87855764763E+01  0.11884226343E+03 -0.87983883587E+02  0.19382133376E+03  0.12499950286E+03 0.  0.
          2    1    1    2  501    0 -0.13135048117E+03  0.72999883260E+02 -0.39066552659E+03  0.41857076525E+03  0.00000000000E+00 0. -1.
          1    1    1    2  502    0  0.14013605765E+03 -0.19184214669E+03  0.59003808722E+03  0.63607111888E+03  0.00000000000E+00 0. -1.
         22    1    3    3    0    0  0.39663126927E+01  0.10860614083E+03 -0.11751513896E+03  0.16006509097E+03  0.00000000000E+00 0.  1.
         22    1    3    3    0    0 -0.12751889169E+02  0.10236122600E+02  0.29531255371E+02  0.33756242786E+02  0.00000000000E+00 0.  1.
</event>
<event>
 7    1  0.6507405E-006  0.4122865E+02  0.7818608E-02  0.1555104E+00
          2   -1    0    0  502    0  0.00000000000E+00  0.00000000000E+00  0.22656844499E+04  0.22656844499E+04  0.00000000000E+00 0. -1.
          1   -1    0    0  501    0 -0.00000000000E+00 -0.00000000000E+00 -0.61467852205E+03  0.61467852205E+03  0.00000000000E+00 0. -1.
         25    2    1    2    0    0 -0.53879576443E+02  0.32837606803E+02  0.19145341854E+04  0.19196479153E+04  0.12500261852E+03 0.  0.
          2    1    1    2  501    0  0.25382028956E+02 -0.32481096907E+02 -0.61084331313E+03  0.61223265369E+03  0.00000000000E+00 0. -1.
          1    1    1    2  502    0  0.28497547487E+02 -0.35650989539E+00  0.34731505564E+03  0.34848240298E+03  0.00000000000E+00 0. -1.
         22    1    3    3    0    0 -0.45757409388E+01 -0.22402946964E+02  0.13600148872E+04  0.13602070882E+04  0.00000000000E+00 0.  1.
         22    1    3    3    0    0 -0.49303835505E+02  0.55240553767E+02  0.55451929819E+03  0.55944082712E+03  0.00000000000E+00 0.  1.
</event>
<event>
 7    1  0.6507405E-006  0.4456227E+02  0.7818608E-02  0.1570973E+00
          2   -1    0    0  502    0  0.00000000000E+00  0.00000000000E+00  0.35002170745E+03  0.35002170745E+03  0.00000000000E+00 0. -1.
          1   -1    0    0  501    0 -0.00000000000E+00 -0.00000000000E+00 -0.12849710116E+04  0.12849710116E+04  0.00000000000E+00 0. -1.
         25    2    1    2    0    0 -0.30588617932E+02  0.10434326019E+02 -0.25167566086E+03  0.28285922165E+03  0.12499664913E+03 0.  0.
          2    1    1    2  501    0 -0.13036465325E+02 -0.19976742514E+02 -0.10160722107E+04  0.10163521816E+04  0.00000000000E+00 0. -1.
          1    1    1    2  502    0  0.43625083256E+02  0.95424164951E+01  0.33279856740E+03  0.33578131583E+03  0.00000000000E+00 0. -1.
         22    1    3    3    0    0  0.18343543050E+02  0.14789881495E+02  0.27601055018E+01  0.23724340848E+02  0.00000000000E+00 0.  1.
         22    1    3    3    0    0 -0.48932160982E+02 -0.43555554764E+01 -0.25443576636E+03  0.25913488080E+03  0.00000000000E+00 0.  1.
</event>
<event>
 7    1  0.6507405E-006  0.5815297E+02  0.7818608E-02  0.1427564E+00
          2   -1    0    0  502    0  0.00000000000E+00  0.00000000000E+00  0.26011563215E+04  0.26011563215E+04  0.00000000000E+00 0. -1.
          1   -1    0    0  501    0 -0.00000000000E+00 -0.00000000000E+00 -0.83875795790E+03  0.83875795790E+03  0.00000000000E+00 0. -1.
         25    2    1    2    0    0 -0.10604637001E+03  0.15975361069E+02  0.15969037458E+04  0.16053747704E+04  0.12500214092E+03 0.  0.
          2    1    1    2  501    0  0.57578487252E+02 -0.79294681696E+01 -0.83290563954E+03  0.83493111275E+03  0.00000000000E+00 0. -1.
          1    1    1    2  502    0  0.48467882756E+02 -0.80458928990E+01  0.99840025730E+03  0.99960839624E+03  0.00000000000E+00 0. -1.
         22    1    3    3    0    0 -0.10591531519E+03 -0.35691524376E+02  0.99504572768E+03  0.10013031205E+04  0.00000000000E+00 0. -1.
         22    1    3    3    0    0 -0.13105481827E+00  0.51666885444E+02  0.60185801815E+03  0.60407164992E+03  0.00000000000E+00 0. -1.
</event>
<event>
 7    1  0.6507405E-006  0.1417967E+03  0.7818608E-02  0.1286925E+00
          2   -1    0    0  502    0  0.00000000000E+00  0.00000000000E+00  0.14533410719E+04  0.14533410719E+04  0.00000000000E+00 0. -1.
          1   -1    0    0  501    0 -0.00000000000E+00 -0.00000000000E+00 -0.11183866973E+03  0.11183866973E+03  0.00000000000E+00 0. -1.
         25    2    1    2    0    0 -0.99489242123E+02 -0.70810372534E+02  0.10951668443E+04  0.11090210763E+04  0.12500045056E+03 0.  0.
          2    1    1    2  501    0  0.65325940147E+02  0.12755690553E+03 -0.50556384726E+02  0.15196772895E+03  0.00000000000E+00 0. -1.
          1    1    1    2  502    0  0.34163301976E+02 -0.56746532995E+02  0.29689194261E+03  0.30419093641E+03  0.00000000000E+00 0. -1.
         22    1    3    3    0    0  0.25780631569E+01  0.30451788033E+02  0.22263543325E+03  0.22472314955E+03  0.00000000000E+00 0.  1.
         22    1    3    3    0    0 -0.10206730528E+03 -0.10126216057E+03  0.87253141102E+03  0.88429792671E+03  0.00000000000E+00 0.  1.
</event>
<event>
 7    1  0.6507405E-006  0.3560825E+02  0.7818608E-02  0.1562173E+00
          2   -1    0    0  502    0  0.00000000000E+00  0.00000000000E+00  0.61287033579E+03  0.61287033579E+03  0.00000000000E+00 0. -1.
          1   -1    0    0  501    0 -0.00000000000E+00 -0.00000000000E+00 -0.94826340343E+02  0.94826340343E+02  0.00000000000E+00 0. -1.
         25    2    1    2    0    0 -0.16946893763E+02  0.64138520807E+02  0.41302303002E+03  0.43659412904E+03  0.12500185249E+03 0.  0.
          2    1    1    2  501    0  0.48444081083E+01 -0.35002440712E+02 -0.77868869293E+02  0.85511402460E+02  0.00000000000E+00 0. -1.
          1    1    1    2  502    0  0.12102485655E+02 -0.29136080095E+02  0.18288983472E+03  0.18559114463E+03  0.00000000000E+00 0. -1.
         22    1    3    3    0    0  0.40835987443E+02  0.30125292154E+02  0.30687698759E+03  0.31104436437E+03  0.00000000000E+00 0. -1.
         22    1    3    3    0    0 -0.57782881207E+02  0.34013228653E+02  0.10614604243E+03  0.12554976467E+03  0.00000000000E+00 0. -1.
</event>
<event>
 7    1  0.6507405E-006  0.1229999E+03  0.7818608E-02  0.1268151E+00
          2   -1    0    0  502    0  0.00000000000E+00  0.00000000000E+00  0.25178523723E+03  0.25178523723E+03  0.00000000000E+00 0. -1.
          1   -1    0    0  501    0 -0.00000000000E+00 -0.00000000000E+00 -0.21035174876E+03  0.21035174876E+03  0.00000000000E+00 0. -1.
         25    2    1    2    0    0  0.90673501495E+00  0.12921169222E+03 -0.33058427672E+02  0.18279416653E+03  0.12499745639E+03 0.  0.
          2    1    1    2  501    0  0.84821382497E+02 -0.33938863061E+02 -0.47005037777E+02  0.10274233271E+03  0.00000000000E+00 0. -1.
          1    1    1    2  502    0 -0.85728117512E+02 -0.95272829160E+02  0.12149695392E+03  0.17660048675E+03  0.00000000000E+00 0. -1.
         22    1    3    3    0    0  0.21081130252E+01  0.15347940520E+03 -0.37703476152E+02  0.15805671158E+03  0.00000000000E+00 0. -1.
         22    1    3    3    0    0 -0.12013780102E+01 -0.24267712977E+02  0.46450484805E+01  0.24737454955E+02  0.00000000000E+00 0. -1.
</event>
<event>
 7    1  0.6507405E-006  0.5465229E+02  0.7818608E-02  0.1544489E+00
          2   -1    0    0  502    0  0.00000000000E+00  0.00000000000E+00  0.18080502832E+04  0.18080502832E+04  0.00000000000E+00 0. -1.
          1   -1    0    0  501    0 -0.00000000000E+00 -0.00000000000E+00 -0.10612830035E+04  0.10612830035E+04  0.00000000000E+00 0. -1.
         25    2    1    2    0    0 -0.31768464927E+02 -0.54031084856E+02  0.57563137378E+03  0.59237235372E+03  0.12499973391E+03 0.  0.
          2    1    1    2  501    0  0.42882008103E+02  0.33874851484E+02 -0.10520951004E+04  0.10535133945E+04  0.00000000000E+00 0. -1.
          1    1    1    2  502    0 -0.11113543176E+02  0.20156233371E+02  0.12232310063E+04  0.12234475384E+04  0.00000000000E+00 0. -1.
         22    1    3    3    0    0 -0.41246358425E+02 -0.75770689150E+02  0.55266866169E+03  0.55936134031E+03  0.00000000000E+00 0. -1.
         22    1    3    3    0    0  0.94778934980E+01  0.21739604294E+02  0.22962712091E+02  0.33011013414E+02  0.00000000000E+00 0. -1.
</event>
<event>
 7    1  0.6507405E-006  0.1267460E+03  0.7818608E-02  0.1282398E+00
          2   -1    0    0  502    0  0.00000000000E+00  0.00000000000E+00  0.50917873703E+03  0.50917873703E+03  0.00000000000E+00 0. -1.
          1   -1    0    0  501    0 -0.00000000000E+00 -0.00000000000E+00 -0.22389961846E+03  0.22389961846E+03  0.00000000000E+00 0. -1.
         25    2    1    2    0    0  0.46920281187E+01 -0.11946314083E+03  0.19931464708E+02  0.17414777173E+03  0.12504689507E+03 0.  0.
          2    1    1    2  501    0  0.72412918087E+02  0.11345645167E+03 -0.11115879967E+03  0.17456309998E+03  0.00000000000E+00 0. -1.
          1    1    1    2  502    0 -0.77104946206E+02  0.60066891611E+01  0.37650645353E+03  0.38436748378E+03  0.00000000000E+00 0. -1.
         22    1    3    3    0    0 -0.22305544315E+02 -0.37845955644E+02  0.63935736104E+02  0.77573397611E+02  0.00000000000E+00 0. -1.
         22    1    3    3    0    0  0.26997572434E+02 -0.81617185187E+02 -0.44004271396E+02  0.96574374118E+02  0.00000000000E+00 0. -1.
</event>
<event>
 7    1  0.8560808E-006  0.1089263E+03  0.7818608E-02  0.1361977E+00
          2   -1    0    0  502    0  0.00000000000E+00  0.00000000000E+00  0.17186224643E+04  0.17186224643E+04  0.00000000000E+00 0. -1.
          1   -1    0    0  501    0 -0.00000000000E+00 -0.00000000000E+00 -0.11495507864E+04  0.11495507864E+04  0.00000000000E+00 0. -1.
         25    2    1    2    0    0  0.17440649180E+02  0.10710387039E+03 -0.12554132017E+03  0.20775299488E+03  0.12500107406E+03 0.  0.
          2    1    1    2  501    0  0.41516545775E+02 -0.15394689110E+02 -0.98063207321E+03  0.98163123577E+03  0.00000000000E+00 0. -1.
          1    1    1    2  502    0 -0.58957194954E+02 -0.91709181283E+02  0.16752450713E+04  0.16787890200E+04  0.00000000000E+00 0. -1.
         22    1    3    3    0    0  0.15342474196E+02  0.80369585095E+02 -0.25378403135E+01  0.81860261154E+02  0.00000000000E+00 0.  1.
         22    1    3    3    0    0  0.20981749837E+01  0.26734285298E+02 -0.12300347985E+03  0.12589273373E+03  0.00000000000E+00 0.  1.
</event>
<event>
 7    1  0.6507405E-006  0.1295161E+03  0.7818608E-02  0.1285796E+00
          2   -1    0    0  502    0  0.00000000000E+00  0.00000000000E+00  0.26387384951E+04  0.26387384951E+04  0.00000000000E+00 0. -1.
          1   -1    0    0  501    0 -0.00000000000E+00 -0.00000000000E+00 -0.20395667780E+04  0.20395667780E+04  0.00000000000E+00 0. -1.
         25    2    1    2    0    0 -0.44596748792E+02 -0.19222497502E+03  0.67538359587E+03  0.71463788842E+03  0.12499999592E+03 0.  0.
          2    1    1    2  501    0  0.50268701787E+02  0.11915281751E+03 -0.20171773772E+04  0.20213186061E+04  0.00000000000E+00 0. -1.
          1    1    1    2  502    0 -0.56719529946E+01  0.73072157514E+02  0.19409654984E+04  0.19423487785E+04  0.00000000000E+00 0. -1.
         22    1    3    3    0    0 -0.69814613374E+02 -0.18696671569E+03  0.64298634432E+03  0.67324740772E+03  0.00000000000E+00 0.  1.
         22    1    3    3    0    0  0.25217864582E+02 -0.52582593325E+01  0.32397251545E+02  0.41390480705E+02  0.00000000000E+00 0.  1.
</event>
<event>
 7    1  0.6507405E-006  0.9382410E+02  0.7818608E-02  0.1314506E+00
          2   -1    0    0  502    0  0.00000000000E+00  0.00000000000E+00  0.11362214811E+04  0.11362214811E+04  0.00000000000E+00 0. -1.
          1   -1    0    0  501    0 -0.00000000000E+00 -0.00000000000E+00 -0.22844635407E+04  0.22844635407E+04  0.00000000000E+00 0. -1.
         25    2    1    2    0    0  0.95795728710E+02  0.13171919158E+03  0.39763528826E+03  0.44751360071E+03  0.12501133262E+03 0.  0.
          2    1    1    2  501    0 -0.31458971959E+02 -0.88240395553E+02 -0.22564373324E+04  0.22583811612E+04  0.00000000000E+00 0. -1.
          1    1    1    2  502    0 -0.64336756750E+02 -0.43478796025E+02  0.71055998456E+03  0.71479025989E+03  0.00000000000E+00 0. -1.
         22    1    3    3    0    0 -0.15908141615E+02 -0.96928051749E+01  0.12882172421E+02  0.22648836793E+02  0.00000000000E+00 0.  1.
         22    1    3    3    0    0  0.11170387032E+03  0.14141199675E+03  0.38475311584E+03  0.42486476392E+03  0.00000000000E+00 0.  1.
</event>
<event>
 7    1  0.6507405E-006  0.7396063E+02  0.7818608E-02  0.1378790E+00
          2   -1    0    0  502    0  0.00000000000E+00  0.00000000000E+00  0.20852184948E+04  0.20852184948E+04  0.00000000000E+00 0. -1.
          1   -1    0    0  501    0 -0.00000000000E+00 -0.00000000000E+00 -0.81248525321E+03  0.81248525321E+03  0.00000000000E+00 0. -1.
         25    2    1    2    0    0  0.32192750751E+01 -0.35991405727E+02  0.24839015920E+03  0.28040776263E+03  0.12500038855E+03 0.  0.
          2    1    1    2  501    0 -0.59280493851E+02  0.44769006355E+02 -0.79430082974E+03  0.79776703930E+03  0.00000000000E+00 0. -1.
          1    1    1    2  502    0  0.56061218776E+02 -0.87776006279E+01  0.18186439121E+04  0.18195289460E+04  0.00000000000E+00 0. -1.
         22    1    3    3    0    0 -0.19478724508E+00  0.26638410474E+02  0.19845520648E+03  0.20023514136E+03  0.00000000000E+00 0. -1.
         22    1    3    3    0    0  0.34140623202E+01 -0.62629816201E+02  0.49934952715E+02  0.80172621272E+02  0.00000000000E+00 0. -1.
</event>
<event>
 7    1  0.6507405E-006  0.6936393E+02  0.7818608E-02  0.1525509E+00
          2   -1    0    0  502    0  0.00000000000E+00  0.00000000000E+00  0.68515965564E+03  0.68515965564E+03  0.00000000000E+00 0. -1.
          1   -1    0    0  501    0 -0.00000000000E+00 -0.00000000000E+00 -0.31273858461E+03  0.31273858461E+03  0.00000000000E+00 0. -1.
         25    2    1    2    0    0  0.71740215210E+02 -0.84896202128E+00  0.60933665504E+02  0.15647864002E+03  0.12500109589E+03 0.  0.
          2    1    1    2  501    0 -0.50251474005E+01  0.19912841583E+02 -0.26247562042E+03  0.26327784692E+03  0.00000000000E+00 0. -1.
          1    1    1    2  502    0 -0.66715067810E+02 -0.19063879562E+02  0.57396302594E+03  0.57814175331E+03  0.00000000000E+00 0. -1.
         22    1    3    3    0    0  0.69161327503E+02  0.52726448738E+02  0.54065271453E+02  0.10240322844E+03  0.00000000000E+00 0. -1.
         22    1    3    3    0    0  0.25788877072E+01 -0.53575410759E+02  0.68683940512E+01  0.54075411571E+02  0.00000000000E+00 0. -1.
</event>
<event>
 7    1  0.6507405E-006  0.7605303E+02  0.7818608E-02  0.1509015E+00
          2   -1    0    0  502    0  0.00000000000E+00  0.00000000000E+00  0.13203244452E+04  0.13203244452E+04  0.00000000000E+00 0. -1.
          1   -1    0    0  501    0 -0.00000000000E+00 -0.00000000000E+00 -0.73766231360E+03  0.73766231360E+03  0.00000000000E+00 0. -1.
         25    2    1    2    0    0 -0.81626754572E+02 -0.48515095866E+02 -0.32846841113E+02  0.16037665646E+03  0.12500046150E+03 0.  0.
          2    1    1    2  501    0  0.20637742606E+02  0.34458214629E+01 -0.63973519663E+03  0.64007727026E+03  0.00000000000E+00 0. -1.
          1    1    1    2  502    0  0.60989011967E+02  0.45069274403E+02  0.12552441693E+04  0.12575328321E+04  0.00000000000E+00 0. -1.
         22    1    3    3    0    0 -0.10013185487E+03 -0.64807820125E+01  0.55764236441E+01  0.10049619593E+03  0.00000000000E+00 0. -1.
         22    1    3    3    0    0  0.18505100300E+02 -0.42034313853E+02 -0.38423264757E+02  0.59880460526E+02  0.00000000000E+00 0. -1.
</event>
<event>
 7    1  0.6507405E-006  0.1383629E+03  0.7818608E-02  0.1279188E+00
          2   -1    0    0  502    0  0.00000000000E+00  0.00000000000E+00  0.46873911351E+03  0.46873911351E+03  0.00000000000E+00 0. -1.
          1   -1    0    0  501    0 -0.00000000000E+00 -0.00000000000E+00 -0.14915746582E+04  0.14915746582E+04  0.00000000000E+00 0. -1.
         25    2    1    2    0    0 -0.16882642645E+03 -0.88267847072E+02 -0.67177731763E+03  0.70936918988E+03  0.12500523181E+03 0.  0.
          2    1    1    2  501    0  0.12109260102E+03  0.32983634526E+02 -0.79306974572E+03  0.80293895145E+03  0.00000000000E+00 0. -1.
          1    1    1    2  502    0  0.47733825436E+02  0.55284212546E+02  0.44201151864E+03  0.44800563039E+03  0.00000000000E+00 0. -1.
         22    1    3    3    0    0 -0.49351425601E+02 -0.26475923636E+02 -0.42179237421E+03  0.42549423578E+03  0.00000000000E+00 0. -1.
         22    1    3    3    0    0 -0.11947500085E+03 -0.61791923437E+02 -0.24998494342E+03  0.28387495410E+03  0.00000000000E+00 0. -1.
</event>
<event>
 7    1  0.6507405E-006  0.6596015E+02  0.7818608E-02  0.1469139E+00
          2   -1    0    0  502    0  0.00000000000E+00  0.00000000000E+00  0.18920929686E+04  0.18920929686E+04  0.00000000000E+00 0. -1.
          1   -1    0    0  501    0 -0.00000000000E+00 -0.00000000000E+00 -0.12210715267E+02  0.12210715267E+02  0.00000000000E+00 0. -1.
         25    2    1    2    0    0 -0.20854077288E+02 -0.63578129020E+02  0.12253037032E+04  0.12334793711E+04  0.12500049104E+03 0.  0.
          2    1    1    2  501    0 -0.10934650783E+02  0.65754770430E+02  0.13791309381E+03  0.15317727595E+03  0.00000000000E+00 0. -1.
          1    1    1    2  502    0  0.31788728071E+02 -0.21766414102E+01  0.51666545629E+03  0.51764703681E+03  0.00000000000E+00 0. -1.
         22    1    3    3    0    0 -0.54126071847E+02 -0.36473190242E+02  0.29269476726E+03  0.29988356414E+03  0.00000000000E+00 0. -1.
         22    1    3    3    0    0  0.33271994559E+02 -0.27104938778E+02  0.93260893598E+03  0.93359580697E+03  0.00000000000E+00 0. -1.
</event>
<event>
 7    1  0.6507405E-006  0.9710680E+02  0.7818608E-02  0.1338340E+00
          2   -1    0    0  502    0  0.00000000000E+00  0.00000000000E+00  0.75207007547E+03  0.75207007547E+03  0.00000000000E+00 0. -1.
          1   -1    0    0  501    0 -0.00000000000E+00 -0.00000000000E+00 -0.18742352202E+04  0.18742352202E+04  0.00000000000E+00 0. -1.
         25    2    1    2    0    0  0.26526916252E+02  0.15274724528E+03 -0.19728715931E+03  0.28032216271E+03  0.12499157353E+03 0.  0.
          2    1    1    2  501    0 -0.24357861108E+02 -0.92021980463E+02 -0.16327426722E+04  0.16355152045E+04  0.00000000000E+00 0. -1.
          1    1    1    2  502    0 -0.21690551436E+01 -0.60725264822E+02  0.70786468681E+03  0.71046792850E+03  0.00000000000E+00 0. -1.
         22    1    3    3    0    0  0.51854038311E+02  0.21435336477E+02 -0.23002327375E+02  0.60641751324E+02  0.00000000000E+00 0.  1.
         22    1    3    3    0    0 -0.25327122059E+02  0.13131190881E+03 -0.17428483193E+03  0.21968041139E+03  0.00000000000E+00 0.  1.
</event>
<event>
 7    1  0.6507405E-006  0.7669281E+02  0.7818608E-02  0.1419256E+00
          2   -1    0    0  502    0  0.00000000000E+00  0.00000000000E+00  0.89523711017E+02  0.89523711017E+02  0.00000000000E+00 0. -1.
          1   -1    0    0  501    0 -0.00000000000E+00 -0.00000000000E+00 -0.65657054857E+03  0.65657054857E+03  0.00000000000E+00 0. -1.
         25    2    1    2    0    0 -0.80453981721E+02 -0.31237423330E+02 -0.30554903205E+03  0.34122153028E+03  0.12499320759E+03 0.  0.
          2    1    1    2  501    0  0.29766131056E+02 -0.26268787155E+02 -0.31106411347E+03  0.31358723575E+03  0.00000000000E+00 0. -1.
          1    1    1    2  502    0  0.50687850664E+02  0.57506210485E+02  0.49566307968E+02  0.91285493562E+02  0.00000000000E+00 0. -1.
         22    1    3    3    0    0 -0.87234812880E+02  0.24521850936E+02 -0.22898645534E+03  0.24626414778E+03  0.00000000000E+00 0.  1.
         22    1    3    3    0    0  0.67808311599E+01 -0.55759274266E+02 -0.76562576711E+02  0.94957382496E+02  0.00000000000E+00 0.  1.
</event>
<event>
 7    1  0.6507405E-006  0.6056132E+02  0.7818608E-02  0.1477635E+00
          2   -1    0    0  502    0  0.00000000000E+00  0.00000000000E+00  0.19309466097E+04  0.19309466097E+04  0.00000000000E+00 0. -1.
          1   -1    0    0  501    0 -0.00000000000E+00 -0.00000000000E+00 -0.21478078896E+03  0.21478078896E+03  0.00000000000E+00 0. -1.
         25    2    1    2    0    0 -0.83534278207E+02  0.20306585619E+02  0.78704913592E+03  0.80153813348E+03  0.12500681583E+03 0.  0.
          2    1    1    2  501    0  0.31980689104E+02  0.66468757964E+01 -0.20550121331E+03  0.20808097968E+03  0.00000000000E+00 0. -1.
          1    1    1    2  502    0  0.51553589103E+02 -0.26953461416E+02  0.11346178982E+04  0.11361082855E+04  0.00000000000E+00 0. -1.
         22    1    3    3    0    0 -0.97492382067E+02 -0.24083658820E+02  0.43584113805E+03  0.44726086885E+03  0.00000000000E+00 0. -1.
         22    1    3    3    0    0  0.13958103860E+02  0.44390244439E+02  0.35120799787E+03  0.35427726463E+03  0.00000000000E+00 0. -1.
</event>
<event>
 7    1  0.6507405E-006  0.7042816E+02  0.7818608E-02  0.1440956E+00
          2   -1    0    0  502    0  0.00000000000E+00  0.00000000000E+00  0.38898880711E+04  0.38898880711E+04  0.00000000000E+00 0. -1.
          1   -1    0    0  501    0 -0.00000000000E+00 -0.00000000000E+00 -0.14627138101E+03  0.14627138101E+03  0.00000000000E+00 0. -1.
         25    2    1    2    0    0  0.42057194361E+02 -0.96994954727E+02  0.16128135522E+04  0.16211012102E+04  0.12499900334E+03 0.  0.
          2    1    1    2  501    0 -0.34717166015E+02  0.61062513669E+02 -0.13329129867E+03  0.15066679294E+03  0.00000000000E+00 0. -1.
          1    1    1    2  502    0 -0.73400283465E+01  0.35932441058E+02  0.22640944366E+04  0.22643914490E+04  0.00000000000E+00 0. -1.
         22    1    3    3    0    0 -0.43748467357E+02 -0.40267568717E+02  0.49278356757E+03  0.49635778422E+03  0.00000000000E+00 0.  1.
         22    1    3    3    0    0  0.85805661718E+02 -0.56727386010E+02  0.11200299846E+04  0.11247434260E+04  0.00000000000E+00 0.  1.
</event>
<event>
 7    1  0.6507405E-006  0.7923231E+02  0.7818608E-02  0.1412985E+00
          2   -1    0    0  502    0  0.00000000000E+00  0.00000000000E+00  0.60303743302E+02  0.60303743302E+02  0.00000000000E+00 0. -1.
          1   -1    0    0  501    0 -0.00000000000E+00 -0.00000000000E+00 -0.21758984398E+04  0.21758984398E+04  0.00000000000E+00 0. -1.
         25    2    1    2    0    0  0.95965655096E+01  0.66289456703E+02 -0.81980678460E+03  0.83198216268E+03  0.12499907521E+03 0.  0.
          2    1    1    2  501    0  0.40170201619E+02 -0.36650143435E+01 -0.13200223895E+04  0.13206385524E+04  0.00000000000E+00 0. -1.
          1    1    1    2  502    0 -0.49766767128E+02 -0.62624442360E+02  0.24234477568E+02  0.83581468007E+02  0.00000000000E+00 0. -1.
         22    1    3    3    0    0  0.66959583189E+02  0.44212130808E+02 -0.44789135113E+03  0.45502193431E+03  0.00000000000E+00 0.  1.
         22    1    3    3    0    0 -0.57363017680E+02  0.22077325895E+02 -0.37191543347E+03  0.37696022837E+03  0.00000000000E+00 0.  1.
</event>
<event>
 7    1  0.6507405E-006  0.8277671E+02  0.7818608E-02  0.1422423E+00
          2   -1    0    0  502    0  0.00000000000E+00  0.00000000000E+00  0.83804963992E+03  0.83804963992E+03  0.00000000000E+00 0. -1.
          1   -1    0    0  501    0 -0.00000000000E+00 -0.00000000000E+00 -0.75667080240E+03  0.75667080240E+03  0.00000000000E+00 0. -1.
         25    2    1    2    0    0 -0.56143503878E+02 -0.33768653357E+02 -0.25030301228E+02  0.14332882448E+03  0.12499688384E+03 0.  0.
          2    1    1    2  501    0 -0.26671255019E+02  0.24026953503E+02 -0.66977747584E+03  0.67073878484E+03  0.00000000000E+00 0. -1.
          1    1    1    2  502    0  0.82814758897E+02  0.97416998538E+01  0.77618661459E+03  0.78065283300E+03  0.00000000000E+00 0. -1.
         22    1    3    3    0    0 -0.79282686761E+02 -0.63555020568E+01 -0.54902931888E+02  0.96646100575E+02  0.00000000000E+00 0.  1.
         22    1    3    3    0    0  0.23139182882E+02 -0.27413151300E+02  0.29872630660E+02  0.46682723906E+02  0.00000000000E+00 0.  1.
</event>
<event>
 7    1  0.6507405E-006  0.4493427E+02  0.7818608E-02  0.1562629E+00
          2   -1    0    0  502    0  0.00000000000E+00  0.00000000000E+00  0.13013278610E+04  0.13013278610E+04  0.00000000000E+00 0. -1.
          1   -1    0    0  501    0 -0.00000000000E+00 -0.00000000000E+00 -0.19522437386E+03  0.19522437386E+03  0.00000000000E+00 0. -1.
         25    2    1    2    0    0  0.60363145888E+02 -0.29879867978E+02  0.30466442099E+03  0.33611901941E+03  0.12497627736E+03 0.  0.
          2    1    1    2  501    0 -0.35585325173E+02  0.27133142958E+02 -0.17654668708E+03  0.18212977663E+03  0.00000000000E+00 0. -1.
          1    1    1    2  502    0 -0.24777820714E+02  0.27467250197E+01  0.97798575327E+03  0.97830343887E+03  0.00000000000E+00 0. -1.
         22    1    3    3    0    0 -0.11251424626E+02 -0.61723101682E+02  0.11735118324E+03  0.13307004188E+03  0.00000000000E+00 0. -1.
         22    1    3    3    0    0  0.71614570514E+02  0.31843233705E+02  0.18731323774E+03  0.20304897753E+03  0.00000000000E+00 0. -1.
</event>
<event>
 7    1  0.6507405E-006  0.4319119E+02  0.7818608E-02  0.1498158E+00
          2   -1    0    0  502    0  0.00000000000E+00  0.00000000000E+00  0.25562812686E+04  0.25562812686E+04  0.00000000000E+00 0. -1.
          1   -1    0    0  501    0 -0.00000000000E+00 -0.00000000000E+00 -0.64233993242E+03  0.64233993242E+03  0.00000000000E+00 0. -1.
         25    2    1    2    0    0  0.61990584246E+01 -0.81198171360E+01  0.10558950769E+04  0.10633171123E+04  0.12499803262E+03 0.  0.
          2    1    1    2  501    0  0.18869255259E+02  0.38880993971E+02 -0.63763428847E+03  0.63909722759E+03  0.00000000000E+00 0. -1.
          1    1    1    2  502    0 -0.25068313684E+02 -0.30761176835E+02  0.14956805478E+04  0.14962068611E+04  0.00000000000E+00 0. -1.
         22    1    3    3    0    0  0.41432234106E+02  0.31161378348E+02  0.81795315437E+03  0.81959442669E+03  0.00000000000E+00 0.  1.
         22    1    3    3    0    0 -0.35233175681E+02 -0.39281195484E+02  0.23794192248E+03  0.24372268557E+03  0.00000000000E+00 0.  1.
</event>
<event>
 7    1  0.6507405E-006  0.6157425E+02  0.7818608E-02  0.1423781E+00
          2   -1    0    0  502    0  0.00000000000E+00  0.00000000000E+00  0.78272549173E+02  0.78272549173E+02  0.00000000000E+00 0. -1.
          1   -1    0    0  501    0 -0.00000000000E+00 -0.00000000000E+00 -0.49624492278E+03  0.49624492278E+03  0.00000000000E+00 0. -1.
         25    2    1    2    0    0 -0.23587382575E+02 -0.64115566548E+01 -0.20131698441E+03  0.23822536171E+03  0.12500128828E+03 0.  0.
          2    1    1    2  501    0 -0.16567565710E+02 -0.44794193305E+02 -0.25588847636E+03  0.26030734973E+03  0.00000000000E+00 0. -1.
          1    1    1    2  502    0  0.40154948285E+02  0.51205749960E+02  0.39233087176E+02  0.75984760512E+02  0.00000000000E+00 0. -1.
         22    1    3    3    0    0 -0.68749382472E+02  0.70342576595E+01 -0.68531554330E+02  0.97326935172E+02  0.00000000000E+00 0. -1.
         22    1    3    3    0    0  0.45161999897E+02 -0.13445814314E+02 -0.13278543008E+03  0.14089842654E+03  0.00000000000E+00 0. -1.
</event>
<event>
 7    1  0.6507405E-006  0.8208469E+02  0.7818608E-02  0.1359374E+00
          2   -1    0    0  502    0  0.00000000000E+00  0.00000000000E+00  0.44562005610E+03  0.44562005610E+03  0.00000000000E+00 0. -1.
          1   -1    0    0  501    0 -0.00000000000E+00 -0.00000000000E+00 -0.17093816134E+04  0.17093816134E+04  0.00000000000E+00 0. -1.
         25    2    1    2    0    0  0.75458663938E+02 -0.10145623964E+03 -0.44848788555E+03  0.48244536508E+03  0.12499907313E+03 0.  0.
          2    1    1    2  501    0 -0.50405734036E+01  0.59844307956E+02 -0.12392791784E+04  0.12407335051E+04  0.00000000000E+00 0. -1.
          1    1    1    2  502    0 -0.70418090535E+02  0.41611931686E+02  0.42400550667E+03  0.43182279933E+03  0.00000000000E+00 0. -1.
         22    1    3    3    0    0 -0.30521866729E+02 -0.41887088577E+02 -0.18748700768E+03  0.19451861245E+03  0.00000000000E+00 0.  1.
         22    1    3    3    0    0  0.10598053067E+03 -0.59569151065E+02 -0.26100087786E+03  0.28792675264E+03  0.00000000000E+00 0.  1.
</event>
<event>
 7    1  0.6507405E-006  0.8744102E+02  0.7818608E-02  0.1399748E+00
          2   -1    0    0  502    0  0.00000000000E+00  0.00000000000E+00  0.76102794395E+03  0.76102794395E+03  0.00000000000E+00 0. -1.
          1   -1    0    0  501    0 -0.00000000000E+00 -0.00000000000E+00 -0.43125441355E+03  0.43125441355E+03  0.00000000000E+00 0. -1.
         25    2    1    2    0    0  0.44837351089E+02 -0.86252363819E+02 -0.57661239192E+01  0.15845185129E+03  0.12499553061E+03 0.  0.
          2    1    1    2  501    0  0.24140745749E+02  0.32580404366E+02 -0.34516462722E+03  0.34753831190E+03  0.00000000000E+00 0. -1.
          1    1    1    2  502    0 -0.68978096838E+02  0.53671959453E+02  0.68070428154E+03  0.68629219432E+03  0.00000000000E+00 0. -1.
         22    1    3    3    0    0  0.61902213215E+02 -0.73301880794E+02  0.43037408699E+02  0.10515354619E+03  0.00000000000E+00 0. -1.
         22    1    3    3    0    0 -0.17064862126E+02 -0.12950483025E+02 -0.48803532618E+02  0.53298305095E+02  0.00000000000E+00 0. -1.
</event>
<event>
 7    1  0.6507405E-006  0.2732473E+03  0.7818608E-02  0.1195490E+00
          2   -1    0    0  502    0  0.00000000000E+00  0.00000000000E+00  0.17464161889E+04  0.17464161889E+04  0.00000000000E+00 0. -1.
          1   -1    0    0  501    0 -0.00000000000E+00 -0.00000000000E+00 -0.17120096238E+03  0.17120096238E+03  0.00000000000E+00 0. -1.
         25    2    1    2    0    0  0.17467954230E+03 -0.14707251517E+03  0.64173170409E+03  0.69252301677E+03  0.12500112600E+03 0.  0.
          2    1    1    2  501    0  0.56553157101E+02 -0.66029690966E+02 -0.10715303144E+03  0.13798533188E+03  0.00000000000E+00 0. -1.
          1    1    1    2  502    0 -0.23123269940E+03  0.21310220613E+03  0.10406365539E+04  0.10871088027E+04  0.00000000000E+00 0. -1.
         22    1    3    3    0    0  0.11980556763E+03 -0.87274133612E+02  0.23549987600E+03  0.27826307701E+03  0.00000000000E+00 0. -1.
         22    1    3    3    0    0  0.54873974676E+02 -0.59798381556E+02  0.40623182809E+03  0.41425993976E+03  0.00000000000E+00 0. -1.
</event>
<event>
 7    1  0.6507405E-006  0.6403565E+02  0.7818608E-02  0.1451949E+00
          2   -1    0    0  502    0  0.00000000000E+00  0.00000000000E+00  0.25248014380E+03  0.25248014380E+03  0.00000000000E+00 0. -1.
          1   -1    0    0  501    0 -0.00000000000E+00 -0.00000000000E+00 -0.25082168266E+03  0.25082168266E+03  0.00000000000E+00 0. -1.
         25    2    1    2    0    0  0.43664575164E+02 -0.23734887520E+00  0.11983065712E+03  0.17858388029E+03  0.12500465774E+03 0.  0.
          2    1    1    2  501    0 -0.54072711569E+02  0.35933251403E+02 -0.21309864979E+03  0.22276914336E+03  0.00000000000E+00 0. -1.
          1    1    1    2  502    0  0.10408136405E+02 -0.35695902528E+02  0.94926453805E+02  0.10194880280E+03  0.00000000000E+00 0. -1.
         22    1    3    3    0    0  0.25419936719E+02  0.39880061010E+02 -0.36901686684E+01  0.47436376272E+02  0.00000000000E+00 0. -1.
         22    1    3    3    0    0  0.18244638445E+02 -0.40117409886E+02  0.12352082579E+03  0.13114750402E+03  0.00000000000E+00 0. -1.
</event>
<event>
 7    1  0.6507405E-006  0.6309821E+02  0.7818608E-02  0.1424367E+00
          2   -1    0    0  502    0  0.00000000000E+00  0.00000000000E+00  0.14550138978E+03  0.14550138978E+03  0.00000000000E+00 0. -1.
          1   -1    0    0  501    0 -0.00000000000E+00 -0.00000000000E+00 -0.81120505797E+03  0.81120505797E+03  0.00000000000E+00 0. -1.
         25    2    1    2    0    0 -0.61520324740E+01  0.98346761201E+02 -0.38054218610E+03  0.41249349860E+03  0.12501439133E+03 0.  0.
          2    1    1    2  501    0 -0.14939030595E+02 -0.57019378526E+02 -0.40834693561E+03  0.41257920934E+03  0.00000000000E+00 0. -1.
          1    1    1    2  502    0  0.21091063069E+02 -0.41327382675E+02  0.12318545352E+03  0.13163373982E+03  0.00000000000E+00 0. -1.
         22    1    3    3    0    0 -0.18972981053E+02 -0.35536891990E+01 -0.22669315161E+03  0.22751348906E+03  0.00000000000E+00 0. -1.
         22    1    3    3    0    0  0.12820948579E+02  0.10190045040E+03 -0.15384903449E+03  0.18498000953E+03  0.00000000000E+00 0. -1.
</event>
<event>
 7    1  0.6507405E-006  0.2973419E+03  0.7818608E-02  0.1147603E+00
          2   -1    0    0  502    0  0.00000000000E+00  0.00000000000E+00  0.10255373981E+04  0.10255373981E+04  0.00000000000E+00 0. -1.
          1   -1    0    0  501    0 -0.00000000000E+00 -0.00000000000E+00 -0.37123136008E+03  0.37123136008E+03  0.00000000000E+00 0. -1.
         25    2    1    2    0    0  0.32752898331E+03 -0.54843190924E+02  0.16965166661E+03  0.39330598016E+03  0.12499958219E+03 0.  0.
          2    1    1    2  501    0 -0.83627824627E+02 -0.10975043976E+03 -0.20873876853E+03  0.25022119328E+03  0.00000000000E+00 0. -1.
          1    1    1    2  502    0 -0.24390115868E+03  0.16459363068E+03  0.69339313994E+03  0.75324158474E+03  0.00000000000E+00 0. -1.
         22    1    3    3    0    0  0.86960630472E+02 -0.10259504811E+02 -0.12269098036E+02  0.88419112513E+02  0.00000000000E+00 0.  1.
         22    1    3    3    0    0  0.24056835284E+03 -0.44583686113E+02  0.18192076465E+03  0.30488686765E+03  0.00000000000E+00 0.  1.
</event>
<event>
 7    1  0.6507405E-006  0.4818594E+02  0.7818608E-02  0.1549480E+00
          2   -1    0    0  502    0  0.00000000000E+00  0.00000000000E+00  0.17755820456E+04  0.17755820456E+04  0.00000000000E+00 0. -1.
          1   -1    0    0  501    0 -0.00000000000E+00 -0.00000000000E+00 -0.10109431306E+03  0.10109431306E+03  0.00000000000E+00 0. -1.
         25    2    1    2    0    0 -0.28753445500E+02 -0.53902641069E+01  0.12263530802E+02  0.12896186870E+03  0.12499981526E+03 0.  0.
          2    1    1    2  501    0 -0.10265939154E+02 -0.23100537076E+02 -0.38634472259E+02  0.46169760306E+02  0.00000000000E+00 0. -1.
          1    1    1    2  502    0  0.39019384654E+02  0.28490801183E+02  0.17008586740E+04  0.17015447297E+04  0.00000000000E+00 0. -1.
         22    1    3    3    0    0  0.16353947408E+02 -0.51666381794E+02  0.30008612469E+02  0.61946617550E+02  0.00000000000E+00 0.  1.
         22    1    3    3    0    0 -0.45107392908E+02  0.46276117687E+02 -0.17745081667E+02  0.67015251149E+02  0.00000000000E+00 0.  1.
</event>
<event>
 7    1  0.6507405E-006  0.1644816E+03  0.7818608E-02  0.1221097E+00
          2   -1    0    0  502    0  0.00000000000E+00  0.00000000000E+00  0.17643706708E+04  0.17643706708E+04  0.00000000000E+00 0. -1.
          1   -1    0    0  501    0 -0.00000000000E+00 -0.00000000000E+00 -0.15671194837E+04  0.15671194837E+04  0.00000000000E+00 0. -1.
         25    2    1    2    0    0  0.67766829250E+01 -0.97355382894E+02  0.18233057428E+03  0.24164649032E+03  0.12499837582E+03 0.  0.
          2    1    1    2  501    0  0.99718736502E+02 -0.45930518566E+02 -0.15303557072E+04  0.15342887699E+04  0.00000000000E+00 0. -1.
          1    1    1    2  502    0 -0.10649541943E+03  0.14328590146E+03  0.15452763200E+04  0.15555548943E+04  0.00000000000E+00 0. -1.
         22    1    3    3    0    0 -0.22295071176E+02 -0.11965083675E+03  0.13443834714E+03  0.18134790353E+03  0.00000000000E+00 0. -1.
         22    1    3    3    0    0  0.29071754101E+02  0.22295453852E+02  0.47892227145E+02  0.60298586798E+02  0.00000000000E+00 0. -1.
</event>
<event>
 7    1  0.6507405E-006  0.4692452E+02  0.7818608E-02  0.1476528E+00
          2   -1    0    0  502    0  0.00000000000E+00  0.00000000000E+00  0.63071562144E+03  0.63071562144E+03  0.00000000000E+00 0. -1.
          1   -1    0    0  501    0 -0.00000000000E+00 -0.00000000000E+00 -0.30984029965E+03  0.30984029965E+03  0.00000000000E+00 0. -1.
         25    2    1    2    0    0 -0.15534695935E+00  0.23052655396E+02  0.12160861281E+02  0.12768661943E+03  0.12499814871E+03 0.  0.
          2    1    1    2  501    0  0.42637375404E+02 -0.22283095436E+02 -0.24896650560E+03  0.25357208646E+03  0.00000000000E+00 0. -1.
          1    1    1    2  502    0 -0.42482028445E+02 -0.76955995955E+00  0.55768096611E+03  0.55929721519E+03  0.00000000000E+00 0. -1.
         22    1    3    3    0    0 -0.73622985257E+01  0.33285111796E+02 -0.52076159862E+02  0.62241694489E+02  0.00000000000E+00 0. -1.
         22    1    3    3    0    0  0.72069515664E+01 -0.10232456400E+02  0.64237021144E+02  0.65444924939E+02  0.00000000000E+00 0. -1.
</event>
<event>
 7    1  0.6507405E-006  0.1546759E+03  0.7818608E-02  0.1315478E+00
          2   -1    0    0  502    0  0.00000000000E+00  0.00000000000E+00  0.25417566330E+04  0.25417566330E+04  0.00000000000E+00 0. -1.
          1   -1    0    0  501    0 -0.00000000000E+00 -0.00000000000E+00 -0.59411596077E+03  0.59411596077E+03  0.00000000000E+00 0. -1.
         25    2    1    2    0    0  0.50363414825E+02  0.14413882205E+03  0.39289522428E+03  0.43966530032E+03  0.12500578173E+03 0.  0.
          2    1    1    2  501    0 -0.49104151007E+01 -0.15482150616E+03 -0.55995835196E+03  0.58098809529E+03  0.00000000000E+00 0. -1.
          1    1    1    2  502    0 -0.45452999724E+02  0.10682684104E+02  0.21147037999E+04  0.21152191981E+04  0.00000000000E+00 0. -1.
         22    1    3    3    0    0  0.84965972885E+01  0.14386806066E+03  0.35521770860E+03  0.38334035993E+03  0.00000000000E+00 0.  1.
         22    1    3    3    0    0  0.41866817536E+02  0.27076138917E+00  0.37677515679E+02  0.56324940391E+02  0.00000000000E+00 0.  1.
</event>
<event>
 7    1  0.6507405E-006  0.1129095E+03  0.7818608E-02  0.1280278E+00
          2   -1    0    0  502    0  0.00000000000E+00  0.00000000000E+00  0.30141919615E+04  0.30141919615E+04  0.00000000000E+00 0. -1.
          1   -1    0    0  501    0 -0.00000000000E+00 -0.00000000000E+00 -0.11443002410E+04  0.11443002410E+04  0.00000000000E+00 0. -1.
         25    2    1    2    0    0  0.11634038006E+03  0.20529752298E+02 -0.10311320911E+03  0.20053504595E+03  0.12500166398E+03 0.  0.
          2    1    1    2  501    0 -0.94365851150E+02  0.65282953915E+02 -0.98849500597E+03  0.99513273224E+03  0.00000000000E+00 0. -1.
          1    1    1    2  502    0 -0.21974528911E+02 -0.85812706213E+02  0.29614999356E+04  0.29628244243E+04  0.00000000000E+00 0. -1.
         22    1    3    3    0    0  0.30126035971E+02 -0.33948912807E+02 -0.85835896796E+02  0.97097414501E+02  0.00000000000E+00 0. -1.
         22    1    3    3    0    0  0.86214344090E+02  0.54478665105E+02 -0.17277312316E+02  0.10343763145E+03  0.00000000000E+00 0. -1.
</event>
<event>
 7    1  0.6507405E-006  0.2579182E+02  0.7818608E-02  0.1691919E+00
          2   -1    0    0  502    0  0.00000000000E+00  0.00000000000E+00  0.32575266248E+02  0.32575266248E+02  0.00000000000E+00 0. -1.
          1   -1    0    0  501    0 -0.00000000000E+00 -0.00000000000E+00 -0.62884946533E+03  0.62884946533E+03  0.00000000000E+00 0. -1.
         25    2    1    2    0    0  0.12782370617E+02 -0.43078973505E+02 -0.18188013134E+03  0.22522130916E+03  0.12500027587E+03 0.  0.
          2    1    1    2  501    0 -0.58118597348E+01  0.19622873905E+02 -0.41098842247E+03  0.41149765285E+03  0.00000000000E+00 0. -1.
          1    1    1    2  502    0 -0.69705108826E+01  0.23456099600E+02 -0.34056452762E+01  0.24705769573E+02  0.00000000000E+00 0. -1.
         22    1    3    3    0    0  0.37603919317E+02 -0.24336467972E+02 -0.43674392343E+01  0.45004365864E+02  0.00000000000E+00 0.  1.
         22    1    3    3    0    0 -0.24821548700E+02 -0.18742505534E+02 -0.17751269210E+03  0.18021694330E+03  0.00000000000E+00 0.  1.
</event>
<event>
 7    1  0.6507405E-006  0.6121934E+02  0.7818608E-02  0.1402896E+00
          2   -1    0    0  502    0  0.00000000000E+00  0.00000000000E+00  0.55988887052E+03  0.55988887052E+03  0.00000000000E+00 0. -1.
          1   -1    0    0  501    0 -0.00000000000E+00 -0.00000000000E+00 -0.17727970763E+04  0.17727970763E+04  0.00000000000E+00 0. -1.
         25    2    1    2    0    0  0.29180941934E+01 -0.19311989943E+02  0.15971341419E+02  0.12751938185E+03  0.12499856307E+03 0.  0.
          2    1    1    2  501    0  0.51790481665E+02  0.33406042174E+02 -0.17148330526E+04  0.17159401551E+04  0.00000000000E+00 0. -1.
          1    1    1    2  502    0 -0.54708575859E+02 -0.14094052231E+02  0.48595350546E+03  0.48922640980E+03  0.00000000000E+00 0. -1.
         22    1    3    3    0    0  0.40955326866E+02  0.39023302247E+02  0.11560330108E+02  0.57739052202E+02  0.00000000000E+00 0. -1.
         22    1    3    3    0    0 -0.38037232673E+02 -0.58335292190E+02  0.44110113111E+01  0.69780329643E+02  0.00000000000E+00 0. -1.
</event>
<event>
 7    1  0.6507405E-006  0.1272305E+03  0.7818608E-02  0.1373672E+00
          2   -1    0    0  502    0  0.00000000000E+00  0.00000000000E+00  0.11286770899E+04  0.11286770899E+04  0.00000000000E+00 0. -1.
          1   -1    0    0  501    0 -0.00000000000E+00 -0.00000000000E+00 -0.15509068611E+03  0.15509068611E+03  0.00000000000E+00 0. -1.
         25    2    1    2    0    0 -0.25302889928E+02 -0.96614602242E+02  0.12447834149E+03  0.20271492429E+03  0.12499546162E+03 0.  0.
          2    1    1    2  501    0  0.40690227220E+02  0.12738142831E+03 -0.76999253447E+02  0.15430686278E+03  0.00000000000E+00 0. -1.
          1    1    1    2  502    0 -0.15387337292E+02 -0.30766826072E+02  0.92610731577E+03  0.92674598897E+03  0.00000000000E+00 0. -1.
         22    1    3    3    0    0 -0.42151916834E+02  0.14684553836E+02  0.53342046627E+02  0.69554253302E+02  0.00000000000E+00 0. -1.
         22    1    3    3    0    0  0.16849026906E+02 -0.11129915608E+03  0.71136294859E+02  0.13316067099E+03  0.00000000000E+00 0. -1.
</event>
<event>
 7    1  0.6507405E-006  0.9819339E+02  0.7818608E-02  0.1456219E+00
          2   -1    0    0  502    0  0.00000000000E+00  0.00000000000E+00  0.32861382826E+03  0.32861382826E+03  0.00000000000E+00 0. -1.
          1   -1    0    0  501    0 -0.00000000000E+00 -0.00000000000E+00 -0.16505529112E+04  0.16505529112E+04  0.00000000000E+00 0. -1.
         25    2    1    2    0    0 -0.23787746816E+02 -0.11513741977E+03  0.13078971998E+03  0.21576310647E+03  0.12500113972E+03 0.  0.
          2    1    1    2  501    0  0.80267164421E+01  0.97704501659E+02 -0.16056737238E+04  0.16086636396E+04  0.00000000000E+00 0. -1.
          1    1    1    2  502    0  0.15761030374E+02  0.17432918114E+02  0.15294492095E+03  0.15473999340E+03  0.00000000000E+00 0. -1.
         22    1    3    3    0    0 -0.54681642042E+02 -0.35362033864E+02  0.10983079972E+03  0.12768461138E+03  0.00000000000E+00 0. -1.
         22    1    3    3    0    0  0.30893895226E+02 -0.79775385909E+02  0.20958920253E+02  0.88078495090E+02  0.00000000000E+00 0. -1.
</event>
<event>
 7    1  0.6507405E-006  0.4011477E+02  0.7818608E-02  0.1593442E+00
          2   -1    0    0  502    0  0.00000000000E+00  0.00000000000E+00  0.80110131820E+03  0.80110131820E+03  0.00000000000E+00 0. -1.
          1   -1    0    0  501    0 -0.00000000000E+00 -0.00000000000E+00 -0.17518541623E+03  0.17518541623E+03  0.00000000000E+00 0. -1.
         25    2    1    2    0    0 -0.47644746875E+02  0.28638465125E+02  0.90257104193E+02  0.16389120130E+03  0.12499518957E+03 0.  0.
          2    1    1    2  501    0  0.39193466480E+02 -0.71666566997E+01 -0.13529768295E+03  0.14104237589E+03  0.00000000000E+00 0. -1.
          1    1    1    2  502    0  0.84512803956E+01 -0.21471808426E+02  0.67095648074E+03  0.67135315724E+03  0.00000000000E+00 0. -1.
         22    1    3    3    0    0 -0.60281847516E+02  0.69755352212E+02  0.49538377083E+02  0.10466021740E+03  0.00000000000E+00 0. -1.
         22    1    3    3    0    0  0.12637100641E+02 -0.41116887087E+02  0.40718727110E+02  0.59230983900E+02  0.00000000000E+00 0. -1.
</event>
<event>
 7    1  0.6507405E-006  0.9160394E+02  0.7818608E-02  0.1302230E+00
          2   -1    0    0  502    0  0.00000000000E+00  0.00000000000E+00  0.19782226409E+03  0.19782226409E+03  0.00000000000E+00 0. -1.
          1   -1    0    0  501    0 -0.00000000000E+00 -0.00000000000E+00 -0.76923050884E+03  0.76923050884E+03  0.00000000000E+00 0. -1.
         25    2    1    2    0    0 -0.19467910909E+02  0.51676758007E+01 -0.42453866060E+02  0.13353930459E+03  0.12499884279E+03 0.  0.
          2    1    1    2  501    0 -0.31515646555E+02  0.86011898802E+02 -0.65977316076E+03  0.66610202400E+03  0.00000000000E+00 0. -1.
          1    1    1    2  502    0  0.50983557464E+02 -0.91179574603E+02  0.13081878207E+03  0.16741144435E+03  0.00000000000E+00 0. -1.
         22    1    3    3    0    0  0.33371156479E+02  0.41708324106E+02 -0.44110926051E+02  0.69274758618E+02  0.00000000000E+00 0. -1.
         22    1    3    3    0    0 -0.52839067388E+02 -0.36540648306E+02  0.16570599904E+01  0.64264545971E+02  0.00000000000E+00 0. -1.
</event>
<event>
 7    1  0.6507405E-006  0.1418497E+03  0.7818608E-02  0.1413640E+00
          2   -1    0    0  502    0  0.00000000000E+00  0.00000000000E+00  0.83981528194E+03  0.83981528194E+03  0.00000000000E+00 0. -1.
          1   -1    0    0  501    0 -0.00000000000E+00 -0.00000000000E+00 -0.21547785571E+03  0.21547785571E+03  0.00000000000E+00 0. -1.
         25    2    1    2    0    0  0.14943781637E+03  0.11855046205E+02  0.65924650945E+02  0.20601784346E+03  0.12500035655E+03 0.  0.
          2    1    1    2  501    0 -0.85443972625E+01 -0.20724186195E+02 -0.13743520296E+03  0.13925133260E+03  0.00000000000E+00 0. -1.
          1    1    1    2  502    0 -0.14089341911E+03  0.88691399900E+01  0.69584797825E+03  0.71002396159E+03  0.00000000000E+00 0. -1.
         22    1    3    3    0    0  0.50378997571E+02  0.11816712324E+02 -0.36657091453E+02  0.63414670544E+02  0.00000000000E+00 0. -1.
         22    1    3    3    0    0  0.99058818799E+02  0.38333881212E-01  0.10258174240E+03  0.14260317291E+03  0.00000000000E+00 0. -1.
</event>
<event>
 7    1  0.6507405E-006  0.5004874E+02  0.7818608E-02  0.1575782E+00
          2   -1    0    0  502    0  0.00000000000E+00  0.00000000000E+00  0.15496852938E+04  0.15496852938E+04  0.00000000000E+00 0. -1.
          1   -1    0    0  501    0 -0.00000000000E+00 -0.00000000000E+00 -0.10024518343E+03  0.10024518343E+03  0.00000000000E+00 0. -1.
         25    2    1    2    0    0 -0.23953749346E+02  0.64860696270E+02  0.33730315248E+03  0.36630328421E+03  0.12499594923E+03 0.  0.
          2    1    1    2  501    0  0.11733641434E+02 -0.48261198022E+02 -0.78456109649E+02  0.92855709125E+02  0.00000000000E+00 0. -1.
          1    1    1    2  502    0  0.12220107912E+02 -0.16599498248E+02  0.11905930675E+04  0.11907714839E+04  0.00000000000E+00 0. -1.
         22    1    3    3    0    0  0.64094845707E+01  0.54216472784E+02  0.32841706508E+03  0.33292382920E+03  0.00000000000E+00 0.  1.
         22    1    3    3    0    0 -0.30363233917E+02  0.10644223487E+02  0.88860873978E+01  0.33379455010E+02  0.00000000000E+00 0.  1.
</event>
<event>
 7    1  0.6507405E-006  0.6929916E+02  0.7818608E-02  0.1484513E+00
          2   -1    0    0  502    0  0.00000000000E+00  0.00000000000E+00  0.24200429996E+03  0.24200429996E+03  0.00000000000E+00 0. -1.
          1   -1    0    0  501    0 -0.00000000000E+00 -0.00000000000E+00 -0.14354962863E+04  0.14354962863E+04  0.00000000000E+00 0. -1.
         25    2    1    2    0    0  0.77709738267E+02  0.54897676935E+02 -0.30938122027E+03  0.34697877313E+03  0.12499988475E+03 0.  0.
          2    1    1    2  501    0 -0.25128664034E+02 -0.10394701080E+02 -0.11018296015E+04  0.11021651284E+04  0.00000000000E+00 0. -1.
          1    1    1    2  502    0 -0.52581074233E+02 -0.44502975855E+02  0.21771883534E+03  0.22835668480E+03  0.00000000000E+00 0. -1.
         22    1    3    3    0    0  0.10137342198E+02 -0.35417329894E+02 -0.12967442583E+03  0.13480582212E+03  0.00000000000E+00 0. -1.
         22    1    3    3    0    0  0.67572396068E+02  0.90315006829E+02 -0.17970679444E+03  0.21217295100E+03  0.00000000000E+00 0. -1.
</event>
<event>
 7    1  0.6507405E-006  0.8858941E+02  0.7818608E-02  0.1393309E+00
          2   -1    0    0  502    0  0.00000000000E+00  0.00000000000E+00  0.47738500467E+03  0.47738500467E+03  0.00000000000E+00 0. -1.
          1   -1    0    0  501    0 -0.00000000000E+00 -0.00000000000E+00 -0.22477770429E+03  0.22477770429E+03  0.00000000000E+00 0. -1.
         25    2    1    2    0    0  0.46744075447E+02  0.24742650151E+02  0.46908326502E+02  0.14359299605E+03  0.12498539952E+03 0.  0.
          2    1    1    2  501    0  0.25737621349E+02  0.33352452438E+02 -0.16815316505E+03  0.17335021821E+03  0.00000000000E+00 0. -1.
          1    1    1    2  502    0 -0.72481696796E+02 -0.58095102588E+02  0.37385213893E+03  0.38521949470E+03  0.00000000000E+00 0. -1.
         22    1    3    3    0    0  0.17440610749E+02  0.54386268197E+02 -0.23509247745E+02  0.61763466557E+02  0.00000000000E+00 0.  1.
         22    1    3    3    0    0  0.29303464697E+02 -0.29643618046E+02  0.70417574247E+02  0.81829529492E+02  0.00000000000E+00 0.  1.
</event>
<event>
 7    1  0.6507405E-006  0.1909715E+03  0.7818608E-02  0.1200060E+00
          2   -1    0    0  502    0  0.00000000000E+00  0.00000000000E+00  0.55714114156E+03  0.55714114156E+03  0.00000000000E+00 0. -1.
          1   -1    0    0  501    0 -0.00000000000E+00 -0.00000000000E+00 -0.19269555171E+04  0.19269555171E+04  0.00000000000E+00 0. -1.
         25    2    1    2    0    0  0.17359370633E+03 -0.20582122976E+03 -0.59561547137E+03  0.66549246003E+03  0.12500108446E+03 0.  0.
          2    1    1    2  501    0 -0.61268003063E+02  0.16854749243E+03 -0.12833802732E+04  0.12958498953E+04  0.00000000000E+00 0. -1.
          1    1    1    2  502    0 -0.11232570327E+03  0.37273737332E+02  0.50918136904E+03  0.52275430337E+03  0.00000000000E+00 0. -1.
         22    1    3    3    0    0  0.39047033702E+02 -0.12110203287E+03 -0.17940721462E+03  0.21994845275E+03  0.00000000000E+00 0.  1.
         22    1    3    3    0    0  0.13454667263E+03 -0.84719196884E+02 -0.41620825675E+03  0.44554400728E+03  0.00000000000E+00 0.  1.
</event>
<event>
 7    1  0.6507405E-006  0.7569147E+02  0.7818608E-02  0.1510076E+00
          2   -1    0    0  502    0  0.00000000000E+00  0.00000000000E+00  0.17223433750E+04  0.17223433750E+04  0.00000000000E+00 0. -1.
          1   -1    0    0  501    0 -0.00000000000E+00 -0.00000000000E+00 -0.11584950828E+03  0.11584950828E+03  0.00000000000E+00 0. -1.
         25    2    1    2    0    0 -0.68529170024E+01  0.60877046900E+02  0.44833552896E+03  0.46944965475E+03  0.12500101803E+03 0.  0.
          2    1    1    2  501    0 -0.77729569516E+01 -0.75768425389E+02 -0.91419685647E+02  0.11899089070E+03  0.00000000000E+00 0. -1.
          1    1    1    2  502    0  0.14625873954E+02  0.14891378489E+02  0.12495780234E+04  0.12497523378E+04  0.00000000000E+00 0. -1.
         22    1    3    3    0    0 -0.60915846255E+02  0.42727598770E+02  0.32731295160E+03  0.33566375483E+03  0.00000000000E+00 0. -1.
         22    1    3    3    0    0  0.54062929252E+02  0.18149448130E+02  0.12102257735E+03  0.13378589991E+03  0.00000000000E+00 0. -1.
</event>
<event>
 7    1  0.6507405E-006  0.5494949E+02  0.7818608E-02  0.1484640E+00
          2   -1    0    0  502    0  0.00000000000E+00  0.00000000000E+00  0.33532389175E+03  0.33532389175E+03  0.00000000000E+00 0. -1.
          1   -1    0    0  501    0 -0.00000000000E+00 -0.00000000000E+00 -0.68760067213E+03  0.68760067213E+03  0.00000000000E+00 0. -1.
         25    2    1    2    0    0 -0.31199791847E+01  0.85609081985E+02 -0.14457831159E+03  0.20944311254E+03  0.12499952008E+03 0.  0.
          2    1    1    2  501    0 -0.77324664518E+01 -0.53108355461E+02 -0.50820339536E+03  0.51102933332E+03  0.00000000000E+00 0. -1.
          1    1    1    2  502    0  0.10852445636E+02 -0.32500726525E+02  0.30050492658E+03  0.30245211802E+03  0.00000000000E+00 0. -1.
         22    1    3    3    0    0  0.10780313794E+02  0.60560360367E+02 -0.16378371087E+03  0.17495392639E+03  0.00000000000E+00 0.  1.
         22    1    3    3    0    0 -0.13900292979E+02  0.25048721619E+02  0.19205399282E+02  0.34489186149E+02  0.00000000000E+00 0.  1.
</event>
<event>
 7    1  0.6507405E-006  0.2554358E+03  0.7818608E-02  0.1293025E+00
          2   -1    0    0  502    0  0.00000000000E+00  0.00000000000E+00  0.25003353712E+04  0.25003353712E+04  0.00000000000E+00 0. -1.
          1   -1    0    0  501    0 -0.00000000000E+00 -0.00000000000E+00 -0.15112819005E+03  0.15112819005E+03  0.00000000000E+00 0. -1.
         25    2    1    2    0    0  0.30983861941E+02 -0.23351678249E+03  0.77797615907E+03  0.82241204179E+03  0.12499829995E+03 0.  0.
          2    1    1    2  501    0 -0.60596776324E+02  0.25165647863E+03  0.14167313604E+01  0.25885316236E+03  0.00000000000E+00 0. -1.
          1    1    1    2  502    0  0.29612914383E+02 -0.18139696139E+02  0.15698142908E+04  0.15701983571E+04  0.00000000000E+00 0. -1.
         22    1    3    3    0    0 -0.15642275528E+02 -0.84382296162E+01  0.19422874180E+03  0.19504022315E+03  0.00000000000E+00 0. -1.
         22    1    3    3    0    0  0.46626137469E+02 -0.22507855288E+03  0.58374741727E+03  0.62737181864E+03  0.00000000000E+00 0. -1.
</event>
<event>
 7    1  0.6507405E-006  0.9501060E+02  0.7818608E-02  0.1344693E+00
          2   -1    0    0  502    0  0.00000000000E+00  0.00000000000E+00  0.76730672068E+03  0.76730672068E+03  0.00000000000E+00 0. -1.
          1   -1    0    0  501    0 -0.00000000000E+00 -0.00000000000E+00 -0.88839544253E+02  0.88839544253E+02  0.00000000000E+00 0. -1.
         25    2    1    2    0    0 -0.37715278769E+02 -0.21168064154E+02  0.78106522325E+02  0.15361148916E+03  0.12500132631E+03 0.  0.
          2    1    1    2  501    0 -0.38591385850E+02 -0.44345995045E+02 -0.28746938960E+02  0.65438893924E+02  0.00000000000E+00 0. -1.
          1    1    1    2  502    0  0.76306664620E+02  0.65514059199E+02  0.62910759306E+03  0.63709588184E+03  0.00000000000E+00 0. -1.
         22    1    3    3    0    0 -0.95680574068E+01  0.26049118008E+02 -0.24622685369E+02  0.37099607900E+02  0.00000000000E+00 0. -1.
         22    1    3    3    0    0 -0.28147221362E+02 -0.47217182162E+02  0.10272920769E+03  0.11651188126E+03  0.00000000000E+00 0. -1.
</event>
<event>
 7    1  0.6507405E-006  0.1465598E+03  0.7818608E-02  0.1379760E+00
          2   -1    0    0  502    0  0.00000000000E+00  0.00000000000E+00  0.41316615160E+03  0.41316615160E+03  0.00000000000E+00 0. -1.
          1   -1    0    0  501    0 -0.00000000000E+00 -0.00000000000E+00 -0.84418638338E+03  0.84418638338E+03  0.00000000000E+00 0. -1.
         25    2    1    2    0    0 -0.98674149052E+02 -0.67208143477E+02 -0.66345425329E+03  0.68560250516E+03  0.12500290649E+03 0.  0.
          2    1    1    2  501    0 -0.18882480595E+02 -0.21226399247E+02 -0.15486773545E+03  0.15745197230E+03  0.00000000000E+00 0. -1.
          1    1    1    2  502    0  0.11755662965E+03  0.88434542723E+02  0.38730175696E+03  0.41429805752E+03  0.00000000000E+00 0. -1.
         22    1    3    3    0    0  0.53433462678E+01  0.26706057703E+02 -0.57080066570E+02  0.63244753671E+02  0.00000000000E+00 0.  1.
         22    1    3    3    0    0 -0.10401749532E+03 -0.93914201179E+02 -0.60637418672E+03  0.62235775149E+03  0.00000000000E+00 0.  1.
</event>
<event>
 7    1  0.6507405E-006  0.6806768E+02  0.7818608E-02  0.1501607E+00
          2   -1    0    0  502    0  0.00000000000E+00  0.00000000000E+00  0.12996928667E+04  0.12996928667E+04  0.00000000000E+00 0. -1.
          1   -1    0    0  501    0 -0.00000000000E+00 -0.00000000000E+00 -0.11502180755E+03  0.11502180755E+03  0.00000000000E+00 0. -1.
         25    2    1    2    0    0  0.43205971744E+02 -0.20401805847E+02  0.46503419654E+03  0.48390599540E+03  0.12500087500E+03 0.  0.
          2    1    1    2  501    0 -0.53707251781E+02  0.42636540650E+02 -0.94246674282E+02  0.11655376058E+03  0.00000000000E+00 0. -1.
          1    1    1    2  502    0  0.10501280038E+02 -0.22234734803E+02  0.81388353686E+03  0.81425491824E+03  0.00000000000E+00 0. -1.
         22    1    3    3    0    0  0.31036702102E+01 -0.42928730428E+02  0.48517126395E+02  0.64856921130E+02  0.00000000000E+00 0.  1.
         22    1    3    3    0    0  0.40102301534E+02  0.22526924581E+02  0.41651707015E+03  0.41904907427E+03  0.00000000000E+00 0.  1.
</event>
<event>
 7    1  0.6507405E-006  0.1195671E+03  0.7818608E-02  0.1270802E+00
          2   -1    0    0  502    0  0.00000000000E+00  0.00000000000E+00  0.13076163527E+04  0.13076163527E+04  0.00000000000E+00 0. -1.
          1   -1    0    0  501    0 -0.00000000000E+00 -0.00000000000E+00 -0.12645675469E+04  0.12645675469E+04  0.00000000000E+00 0. -1.
         25    2    1    2    0    0  0.53484228491E+02  0.62570012562E+02  0.70316383169E+02  0.16536021689E+03  0.12499615361E+03 0.  0.
          2    1    1    2  501    0  0.70314040288E+02 -0.58710000300E+02 -0.12120892487E+04  0.12155456698E+04  0.00000000000E+00 0. -1.
          1    1    1    2  502    0 -0.12379826878E+03 -0.38600122614E+01  0.11848216714E+04  0.11912780130E+04  0.00000000000E+00 0. -1.
         22    1    3    3    0    0  0.12478195192E+02  0.95962592502E+02  0.46468478041E+02  0.10734916845E+03  0.00000000000E+00 0. -1.
         22    1    3    3    0    0  0.41006033299E+02 -0.33392579940E+02  0.23847905128E+02  0.58011048439E+02  0.00000000000E+00 0. -1.
</event>
<event>
 7    1  0.6507405E-006  0.1180629E+03  0.7818608E-02  0.1377813E+00
          2   -1    0    0  502    0  0.00000000000E+00  0.00000000000E+00  0.22959697655E+04  0.22959697655E+04  0.00000000000E+00 0. -1.
          1   -1    0    0  501    0 -0.00000000000E+00 -0.00000000000E+00 -0.43519209615E+03  0.43519209615E+03  0.00000000000E+00 0. -1.
         25    2    1    2    0    0  0.35029047951E+02 -0.77358947512E+02  0.92960550043E+03  0.94180824795E+03  0.12499979408E+03 0.  0.
          2    1    1    2  501    0 -0.34597735412E+02  0.11318865862E+03 -0.42068696568E+03  0.43701967785E+03  0.00000000000E+00 0. -1.
          1    1    1    2  502    0 -0.43131253821E+00 -0.35829711108E+02  0.13518591346E+04  0.13523339359E+04  0.00000000000E+00 0. -1.
         22    1    3    3    0    0 -0.58890523360E+01 -0.60699828809E+02  0.83684578024E+03  0.83906496176E+03  0.00000000000E+00 0. -1.
         22    1    3    3    0    0  0.40918100287E+02 -0.16659118703E+02  0.92759720195E+02  0.10274328619E+03  0.00000000000E+00 0. -1.
</event>
<event>
 7    1  0.6507405E-006  0.5639594E+02  0.7818608E-02  0.1440538E+00
          2   -1    0    0  502    0  0.00000000000E+00  0.00000000000E+00  0.31064140089E+04  0.31064140089E+04  0.00000000000E+00 0. -1.
          1   -1    0    0  501    0 -0.00000000000E+00 -0.00000000000E+00 -0.24269745604E+02  0.24269745604E+02  0.00000000000E+00 0. -1.
         25    2    1    2    0    0  0.75473868696E+02 -0.58107423043E+02  0.14322017231E+04  0.14407981446E+04  0.12499896142E+03 0.  0.
          2    1    1    2  501    0 -0.42842601845E+02  0.16590335583E+02  0.74480255266E+01  0.46542462890E+02  0.00000000000E+00 0. -1.
          1    1    1    2  502    0 -0.32631266850E+02  0.41517087460E+02  0.16424945147E+04  0.16433431470E+04  0.00000000000E+00 0. -1.
         22    1    3    3    0    0  0.27948689846E+02 -0.43748986962E+02  0.17308097927E+03  0.18069899974E+03  0.00000000000E+00 0. -1.
         22    1    3    3    0    0  0.47525178849E+02 -0.14358436081E+02  0.12591207438E+04  0.12600991449E+04  0.00000000000E+00 0. -1.
</event>
<event>
 7    1  0.6507405E-006  0.7620700E+02  0.7818608E-02  0.1398457E+00
          2   -1    0    0  502    0  0.00000000000E+00  0.00000000000E+00  0.13093902522E+04  0.13093902522E+04  0.00000000000E+00 0. -1.
          1   -1    0    0  501    0 -0.00000000000E+00 -0.00000000000E+00 -0.73084699416E+02  0.73084699416E+02  0.00000000000E+00 0. -1.
         25    2    1    2    0    0  0.45937611008E+02  0.10491685711E+03  0.24748151715E+03  0.29998170302E+03  0.12499643917E+03 0.  0.
          2    1    1    2  501    0 -0.43544686274E+02 -0.57971916506E+02 -0.17892844711E+02  0.74679560108E+02  0.00000000000E+00 0. -1.
          1    1    1    2  502    0 -0.23929247338E+01 -0.46944940600E+02  0.10067168803E+04  0.10078136885E+04  0.00000000000E+00 0. -1.
         22    1    3    3    0    0  0.25854001504E+02  0.12771177526E+03  0.23150577696E+03  0.26565701891E+03  0.00000000000E+00 0.  1.
         22    1    3    3    0    0  0.20083609504E+02 -0.22794918150E+02  0.15975740193E+02  0.34324684105E+02  0.00000000000E+00 0.  1.
</event>
<event>
 7    1  0.6507405E-006  0.1009843E+03  0.7818608E-02  0.1412131E+00
          2   -1    0    0  502    0  0.00000000000E+00  0.00000000000E+00  0.94659973639E+03  0.94659973639E+03  0.00000000000E+00 0. -1.
          1   -1    0    0  501    0 -0.00000000000E+00 -0.00000000000E+00 -0.55563716980E+02  0.55563716980E+02  0.00000000000E+00 0. -1.
         25    2    1    2    0    0 -0.66272708242E+02 -0.10940645276E+03  0.38079420923E+03  0.42070151316E+03  0.12499475839E+03 0.  0.
          2    1    1    2  501    0  0.45828705447E+02  0.84971869089E+02  0.31340816264E+02  0.10150239181E+03  0.00000000000E+00 0. -1.
          1    1    1    2  502    0  0.20444002796E+02  0.24434583668E+02  0.47890099392E+03  0.47995954840E+03  0.00000000000E+00 0. -1.
         22    1    3    3    0    0 -0.56467747611E+02  0.10127336014E+02  0.15017631194E+03  0.16076098446E+03  0.00000000000E+00 0.  1.
         22    1    3    3    0    0 -0.98049606312E+01 -0.11953378877E+03  0.23061789729E+03  0.25994052870E+03  0.00000000000E+00 0.  1.
</event>
<event>
 7    1  0.6507405E-006  0.8261288E+02  0.7818608E-02  0.1444128E+00
          2   -1    0    0  502    0  0.00000000000E+00  0.00000000000E+00  0.18243605439E+03  0.18243605439E+03  0.00000000000E+00 0. -1.
          1   -1    0    0  501    0 -0.00000000000E+00 -0.00000000000E+00 -0.99047138809E+03  0.99047138809E+03  0.00000000000E+00 0. -1.
         25    2    1    2    0    0  0.40830389454E+02  0.35113913659E+02 -0.31966822478E+02  0.13980652134E+03  0.12499551205E+03 0.  0.
          2    1    1    2  501    0 -0.68510696909E+02 -0.48006180659E+02 -0.90080507865E+03  0.90468121385E+03  0.00000000000E+00 0. -1.
          1    1    1    2  502    0  0.27680307455E+02  0.12892267000E+02  0.12473656742E+03  0.12841970730E+03  0.00000000000E+00 0. -1.
         22    1    3    3    0    0  0.74116064665E+02 -0.39608704779E+01 -0.45065010279E+02  0.86831645659E+02  0.00000000000E+00 0. -1.
         22    1    3    3    0    0 -0.33285675210E+02  0.39074784137E+02  0.13098187801E+02  0.52974875679E+02  0.00000000000E+00 0. -1.
</event>
<event>
 7    1  0.6507405E-006  0.5612944E+02  0.7818608E-02  0.1491707E+00
          2   -1    0    0  502    0  0.00000000000E+00  0.00000000000E+00  0.53225523526E+03  0.53225523526E+03  0.00000000000E+00 0. -1.
          1   -1    0    0  501    0 -0.00000000000E+00 -0.00000000000E+00 -0.94013912579E+03  0.94013912579E+03  0.00000000000E+00 0. -1.
         25    2    1    2    0    0  0.26222703224E+02  0.67648834714E+02  0.70421828531E+02  0.16077196567E+03  0.12499758401E+03 0.  0.
          2    1    1    2  501    0 -0.40281303472E+02 -0.38981531958E+02 -0.89347274725E+03  0.89522940820E+03  0.00000000000E+00 0. -1.
          1    1    1    2  502    0  0.14058600249E+02 -0.28667302756E+02  0.41516702818E+03  0.41639298718E+03  0.00000000000E+00 0. -1.
         22    1    3    3    0    0 -0.43831132155E+01 -0.34163504004E+02  0.33987212953E+02  0.48388917446E+02  0.00000000000E+00 0.  1.
         22    1    3    3    0    0  0.30605816439E+02  0.10181233872E+03  0.36434615579E+02  0.11238304822E+03  0.00000000000E+00 0.  1.
</event>
<event>
 7    1  0.6507405E-006  0.1732770E+03  0.7818608E-02  0.1348800E+00
          2   -1    0    0  502    0  0.00000000000E+00  0.00000000000E+00  0.40076972379E+03  0.40076972379E+03  0.00000000000E+00 0. -1.
          1   -1    0    0  501    0 -0.00000000000E+00 -0.00000000000E+00 -0.42713161354E+03  0.42713161354E+03  0.00000000000E+00 0. -1.
         25    2    1    2    0    0  0.68093481019E+02 -0.18609458833E+03 -0.60592978408E+02  0.24199978074E+03  0.12499786750E+03 0.  0.
          2    1    1    2  501    0  0.57113759661E+00  0.31113109385E+02 -0.25163730521E+03  0.25355410695E+03  0.00000000000E+00 0. -1.
          1    1    1    2  502    0 -0.68664618615E+02  0.15498147895E+03  0.28586839387E+03  0.33234744964E+03  0.00000000000E+00 0. -1.
         22    1    3    3    0    0 -0.27732421558E+02 -0.10405869636E+03 -0.20394680855E+02  0.10960493830E+03  0.00000000000E+00 0.  1.
         22    1    3    3    0    0  0.95825902576E+02 -0.82035891979E+02 -0.40198297553E+02  0.13239484244E+03  0.00000000000E+00 0.  1.
</event>
<event>
 7    1  0.6507405E-006  0.2455548E+03  0.7818608E-02  0.1290359E+00
          2   -1    0    0  502    0  0.00000000000E+00  0.00000000000E+00  0.22039780021E+04  0.22039780021E+04  0.00000000000E+00 0. -1.
          1   -1    0    0  501    0 -0.00000000000E+00 -0.00000000000E+00 -0.75373159130E+03  0.75373159130E+03  0.00000000000E+00 0. -1.
         25    2    1    2    0    0 -0.11865132319E+02 -0.22938832423E+03  0.48454389891E+03  0.55060678102E+03  0.12500101067E+03 0.  0.
          2    1    1    2  501    0 -0.21558083252E+02  0.24534162240E+03 -0.69944714371E+03  0.74154134711E+03  0.00000000000E+00 0. -1.
          1    1    1    2  502    0  0.33423215572E+02 -0.15953298169E+02  0.16651496556E+04  0.16655614653E+04  0.00000000000E+00 0. -1.
         22    1    3    3    0    0 -0.64683470501E+02 -0.12398240677E+03  0.30869137164E+03  0.33888929088E+03  0.00000000000E+00 0.  1.
         22    1    3    3    0    0  0.52818338182E+02 -0.10540591746E+03  0.17585252727E+03  0.21171749014E+03  0.00000000000E+00 0.  1.
</event>
<event>
 7    1  0.6507405E-006  0.5302732E+02  0.7818608E-02  0.1505620E+00
          2   -1    0    0  502    0  0.00000000000E+00  0.00000000000E+00  0.22462573226E+04  0.22462573226E+04  0.00000000000E+00 0. -1.
          1   -1    0    0  501    0 -0.00000000000E+00 -0.00000000000E+00 -0.38577909276E+03  0.38577909276E+03  0.00000000000E+00 0. -1.
         25    2    1    2    0    0 -0.48987960440E+01 -0.83480323066E+02 -0.27410868900E+02  0.15286962248E+03  0.12499921280E+03 0.  0.
          2    1    1    2  501    0  0.22155990419E+01  0.30629931238E+02 -0.29451972836E+03  0.29611648377E+03  0.00000000000E+00 0. -1.
          1    1    1    2  502    0  0.26831970020E+01  0.52850391828E+02  0.21824088271E+04  0.21830503091E+04  0.00000000000E+00 0. -1.
         22    1    3    3    0    0  0.29613314790E+02  0.12611943095E+02 -0.38482837579E+02  0.50169097158E+02  0.00000000000E+00 0.  1.
         22    1    3    3    0    0 -0.34512110834E+02 -0.96092266162E+02  0.11071968679E+02  0.10270052532E+03  0.00000000000E+00 0.  1.
</event>
<event>
 7    1  0.6507405E-006  0.1517390E+03  0.7818608E-02  0.1376227E+00
          2   -1    0    0  502    0  0.00000000000E+00  0.00000000000E+00  0.18467206300E+03  0.18467206300E+03  0.00000000000E+00 0. -1.
          1   -1    0    0  501    0 -0.00000000000E+00 -0.00000000000E+00 -0.12027444923E+04  0.12027444923E+04  0.00000000000E+00 0. -1.
         25    2    1    2    0    0 -0.22559369232E+02 -0.13210264003E+03 -0.19450222017E+02  0.18429147340E+03  0.12500001355E+03 0.  0.
          2    1    1    2  501    0  0.47466922407E+02  0.14542072977E+03 -0.10934920494E+04  0.11041400090E+04  0.00000000000E+00 0. -1.
          1    1    1    2  502    0 -0.24907553175E+02 -0.13318089739E+02  0.94869842107E+02  0.98985072919E+02  0.00000000000E+00 0. -1.
         22    1    3    3    0    0 -0.53690621770E+02 -0.30647222382E+02 -0.43354173926E+02  0.75508406834E+02  0.00000000000E+00 0.  1.
         22    1    3    3    0    0  0.31131252538E+02 -0.10145541765E+03  0.23903951908E+02  0.10878306657E+03  0.00000000000E+00 0.  1.
</event>
<event>
 7    1  0.6507405E-006  0.2002843E+03  0.7818608E-02  0.1242683E+00
          2   -1    0    0  502    0  0.00000000000E+00  0.00000000000E+00  0.11342447430E+03  0.11342447430E+03  0.00000000000E+00 0. -1.
          1   -1    0    0  501    0 -0.00000000000E+00 -0.00000000000E+00 -0.12396592544E+04  0.12396592544E+04  0.00000000000E+00 0. -1.
         25    2    1    2    0    0  0.19673395492E+03 -0.47112179241E+02 -0.15176339152E+03  0.28209921498E+03  0.12499613447E+03 0.  0.
          2    1    1    2  501    0 -0.26756384126E+02 -0.67058293336E+02 -0.79627549262E+03  0.79954198072E+03  0.00000000000E+00 0. -1.
          1    1    1    2  502    0 -0.16997757080E+03  0.11417047258E+03 -0.17819589594E+03  0.27144253298E+03  0.00000000000E+00 0. -1.
         22    1    3    3    0    0  0.21373832630E+03 -0.34762458507E+02 -0.14178454364E+03  0.25883461412E+03  0.00000000000E+00 0.  1.
         22    1    3    3    0    0 -0.17004371375E+02 -0.12349720734E+02 -0.99788478806E+01  0.23264600858E+02  0.00000000000E+00 0.  1.
</event>
<event>
 7    1  0.6507405E-006  0.1374635E+03  0.7818608E-02  0.1224525E+00
          2   -1    0    0  502    0  0.00000000000E+00  0.00000000000E+00  0.25002319401E+04  0.25002319401E+04  0.00000000000E+00 0. -1.
          1   -1    0    0  501    0 -0.00000000000E+00 -0.00000000000E+00 -0.80921566265E+03  0.80921566265E+03  0.00000000000E+00 0. -1.
         25    2    1    2    0    0  0.14581898374E+03 -0.12200782120E+03  0.20710100673E+03  0.30767658630E+03  0.12499988127E+03 0.  0.
          2    1    1    2  501    0 -0.19836088659E+02  0.13588522499E+03 -0.75090540033E+03  0.76335914551E+03  0.00000000000E+00 0. -1.
          1    1    1    2  502    0 -0.12598289508E+03 -0.13877403793E+02  0.22348206711E+04  0.22384118710E+04  0.00000000000E+00 0. -1.
         22    1    3    3    0    0 -0.19997600371E+02 -0.16240671942E+02  0.48894145673E+02  0.55265730130E+02  0.00000000000E+00 0. -1.
         22    1    3    3    0    0  0.16581658411E+03 -0.10576714926E+03  0.15820686105E+03  0.25241085617E+03  0.00000000000E+00 0. -1.
</event>
<event>
 7    1  0.6507405E-006  0.1434482E+03  0.7818608E-02  0.1315457E+00
          2   -1    0    0  502    0  0.00000000000E+00  0.00000000000E+00  0.16266729612E+04  0.16266729612E+04  0.00000000000E+00 0. -1.
          1   -1    0    0  501    0 -0.00000000000E+00 -0.00000000000E+00 -0.92104285455E+02  0.92104285455E+02  0.00000000000E+00 0. -1.
         25    2    1    2    0    0 -0.69272520957E+02 -0.94234820238E+02  0.12055411064E+03  0.20937301409E+03  0.12499952773E+03 0.  0.
          2    1    1    2  501    0  0.96523254640E+02  0.13657968890E+03  0.10089947491E+03  0.19532397227E+03  0.00000000000E+00 0. -1.
          1    1    1    2  502    0 -0.27250733683E+02 -0.42344868664E+02  0.13131150902E+04  0.13140802603E+04  0.00000000000E+00 0. -1.
         22    1    3    3    0    0 -0.50485553366E+02 -0.75521955707E+02  0.14643226703E+03  0.17232169254E+03  0.00000000000E+00 0.  1.
         22    1    3    3    0    0 -0.18786967591E+02 -0.18712864531E+02 -0.25878156391E+02  0.37051321548E+02  0.00000000000E+00 0.  1.
</event>
<event>
 7    1  0.6507405E-006  0.5378296E+02  0.7818608E-02  0.1486725E+00
          2   -1    0    0  502    0  0.00000000000E+00  0.00000000000E+00  0.26623102028E+04  0.26623102028E+04  0.00000000000E+00 0. -1.
          1   -1    0    0  501    0 -0.00000000000E+00 -0.00000000000E+00 -0.41577497556E+03  0.41577497556E+03  0.00000000000E+00 0. -1.
         25    2    1    2    0    0 -0.59270884738E+02 -0.29675222403E+02  0.22210953623E+04  0.22255978189E+04  0.12500954599E+03 0.  0.
          2    1    1    2  501    0  0.28628457749E+02  0.45527717047E+02 -0.41109166148E+03  0.41459464028E+03  0.00000000000E+00 0. -1.
          1    1    1    2  502    0  0.30642426990E+02 -0.15852494644E+02  0.43653152644E+03  0.43789271916E+03  0.00000000000E+00 0. -1.
         22    1    3    3    0    0 -0.57993737853E+00 -0.14532014168E+01 -0.14293231575E+01  0.21192183487E+01  0.00000000000E+00 0.  1.
         22    1    3    3    0    0 -0.58690947360E+02 -0.28222020987E+02  0.22225246854E+04  0.22234786006E+04  0.00000000000E+00 0.  1.
</event>
<event>
 7    1  0.6507405E-006  0.6590633E+02  0.7818608E-02  0.1393546E+00
          2   -1    0    0  502    0  0.00000000000E+00  0.00000000000E+00  0.20390193294E+04  0.20390193294E+04  0.00000000000E+00 0. -1.
          1   -1    0    0  501    0 -0.00000000000E+00 -0.00000000000E+00 -0.15051304477E+03  0.15051304477E+03  0.00000000000E+00 0. -1.
         25    2    1    2    0    0 -0.10608058365E+02 -0.13963529573E+02  0.12305246459E+03  0.17627961541E+03  0.12500033082E+03 0.  0.
          2    1    1    2  501    0  0.21535442891E+02 -0.52256987075E+02 -0.11682421897E+03  0.12977852726E+03  0.00000000000E+00 0. -1.
          1    1    1    2  502    0 -0.10927384526E+02  0.66220516648E+02  0.18822780390E+04  0.18834742315E+04  0.00000000000E+00 0. -1.
         22    1    3    3    0    0  0.30963575517E+02 -0.12643498515E+02  0.12989167981E+03  0.13412848149E+03  0.00000000000E+00 0.  1.
         22    1    3    3    0    0 -0.41571633883E+02 -0.13200310577E+01 -0.68392152156E+01  0.42151133916E+02  0.00000000000E+00 0.  1.
</event>
<event>
 7    1  0.6507405E-006  0.9645787E+02  0.7818608E-02  0.1369854E+00
          2   -1    0    0  502    0  0.00000000000E+00  0.00000000000E+00  0.53867895963E+03  0.53867895963E+03  0.00000000000E+00 0. -1.
          1   -1    0    0  501    0 -0.00000000000E+00 -0.00000000000E+00 -0.14940978303E+03  0.14940978303E+03  0.00000000000E+00 0. -1.
         25    2    1    2    0    0  0.58821070643E+02  0.23313527884E+02  0.29116261129E+02  0.14309633957E+03  0.12500146720E+03 0.  0.
          2    1    1    2  501    0 -0.10533173255E+03 -0.28751678964E+02 -0.58403882252E+02  0.12382425605E+03  0.00000000000E+00 0. -1.
          1    1    1    2  502    0  0.46510661907E+02  0.54381510800E+01  0.41855679772E+03  0.42116814703E+03  0.00000000000E+00 0. -1.
         22    1    3    3    0    0  0.19333692441E+02 -0.50734152901E+02  0.69975057425E-01  0.54293193225E+02  0.00000000000E+00 0.  1.
         22    1    3    3    0    0  0.39487378203E+02  0.74047680786E+02  0.29046286072E+02  0.88803146350E+02  0.00000000000E+00 0.  1.
</event>
<event>
 7    1  0.6507405E-006  0.1063957E+03  0.7818608E-02  0.1353742E+00
          2   -1    0    0  502    0  0.00000000000E+00  0.00000000000E+00  0.14225206004E+03  0.14225206004E+03  0.00000000000E+00 0. -1.
          1   -1    0    0  501    0 -0.00000000000E+00 -0.00000000000E+00 -0.23676707298E+04  0.23676707298E+04  0.00000000000E+00 0. -1.
         25    2    1    2    0    0 -0.78632483764E+01  0.10074869541E+03 -0.42706934216E+03  0.45631718328E+03  0.12500007375E+03 0.  0.
          2    1    1    2  501    0  0.48565508579E+02 -0.15785389475E+01 -0.19031030031E+04  0.19037232312E+04  0.00000000000E+00 0. -1.
          1    1    1    2  502    0 -0.40702260202E+02 -0.99170156466E+02  0.10475367552E+03  0.14988237539E+03  0.00000000000E+00 0. -1.
         22    1    3    3    0    0 -0.28520589735E+02  0.89703424644E+02 -0.14247738179E+03  0.17076279675E+03  0.00000000000E+00 0.  1.
         22    1    3    3    0    0  0.20657341358E+02  0.11045270769E+02 -0.28459196037E+03  0.28555438653E+03  0.00000000000E+00 0.  1.
</event>
<event>
 7    1  0.6507405E-006  0.4913053E+02  0.7818608E-02  0.1575696E+00
          2   -1    0    0  502    0  0.00000000000E+00  0.00000000000E+00  0.23229113165E+03  0.23229113165E+03  0.00000000000E+00 0. -1.
          1   -1    0    0  501    0 -0.00000000000E+00 -0.00000000000E+00 -0.81601216693E+03  0.81601216693E+03  0.00000000000E+00 0. -1.
         25    2    1    2    0    0 -0.29282412193E+02 -0.21627677822E+02 -0.21704900550E+03  0.25310137571E+03  0.12499927794E+03 0.  0.
          2    1    1    2  501    0  0.48363830472E+02  0.12837162072E+02 -0.57934091814E+03  0.58149785232E+03  0.00000000000E+00 0. -1.
          1    1    1    2  502    0 -0.19081418278E+02  0.87905157497E+01  0.21266888836E+03  0.21370407054E+03  0.00000000000E+00 0. -1.
         22    1    3    3    0    0 -0.29440612369E+02  0.49599156537E+02 -0.79691289843E+02  0.98374425857E+02  0.00000000000E+00 0. -1.
         22    1    3    3    0    0  0.15820017567E+00 -0.71226834359E+02 -0.13735771566E+03  0.15472694985E+03  0.00000000000E+00 0. -1.
</event>
<event>
 7    1  0.6507405E-006  0.1026263E+03  0.7818608E-02  0.1284795E+00
          2   -1    0    0  502    0  0.00000000000E+00  0.00000000000E+00  0.16023538861E+04  0.16023538861E+04  0.00000000000E+00 0. -1.
          1   -1    0    0  501    0 -0.00000000000E+00 -0.00000000000E+00 -0.10795982957E+03  0.10795982957E+03  0.00000000000E+00 0. -1.
         25    2    1    2    0    0  0.66116104762E+02 -0.53233982154E+02  0.45485190439E+03  0.47929148201E+03  0.12499949456E+03 0.  0.
          2    1    1    2  501    0 -0.90964229335E+02 -0.47514919149E+02 -0.65089767503E+02  0.12152710148E+03  0.00000000000E+00 0. -1.
          1    1    1    2  502    0  0.24848124573E+02  0.10074890130E+03  0.11046319197E+04  0.11094951322E+04  0.00000000000E+00 0. -1.
         22    1    3    3    0    0  0.74003652740E+02 -0.87522469662E+02  0.31930787471E+03  0.33925542319E+03  0.00000000000E+00 0.  1.
         22    1    3    3    0    0 -0.78875479778E+01  0.34288487507E+02  0.13554402968E+03  0.14003605882E+03  0.00000000000E+00 0.  1.
</event>
<event>
 7    1  0.6507405E-006  0.9515257E+02  0.7818608E-02  0.1321053E+00
          2   -1    0    0  502    0  0.00000000000E+00  0.00000000000E+00  0.37958839112E+03  0.37958839112E+03  0.00000000000E+00 0. -1.
          1   -1    0    0  501    0 -0.00000000000E+00 -0.00000000000E+00 -0.14925894374E+03  0.14925894374E+03  0.00000000000E+00 0. -1.
         25    2    1    2    0    0 -0.16530101724E+02 -0.21845437805E+02  0.15963850852E+03  0.20459604382E+03  0.12499848130E+03 0.  0.
          2    1    1    2  501    0  0.27097606753E+02 -0.91212556836E+02 -0.87672690304E+02  0.12938512836E+03  0.00000000000E+00 0. -1.
          1    1    1    2  502    0 -0.10567505029E+02  0.11305799464E+03  0.15836362917E+03  0.19486616268E+03  0.00000000000E+00 0. -1.
         22    1    3    3    0    0 -0.19969239862E+01  0.15870226108E+02  0.16323561563E+03  0.16401743198E+03  0.00000000000E+00 0. -1.
         22    1    3    3    0    0 -0.14533177737E+02 -0.37715663913E+02 -0.35971071107E+01  0.40578611843E+02  0.00000000000E+00 0. -1.
</event>
<event>
 7    1  0.6507405E-006  0.1396405E+03  0.7818608E-02  0.1238774E+00
          2   -1    0    0  502    0  0.00000000000E+00  0.00000000000E+00  0.13410760794E+04  0.13410760794E+04  0.00000000000E+00 0. -1.
          1   -1    0    0  501    0 -0.00000000000E+00 -0.00000000000E+00 -0.14486298045E+03  0.14486298045E+03  0.00000000000E+00 0. -1.
         25    2    1    2    0    0  0.13727308904E+02  0.43979019692E+02  0.66936183333E+02  0.14908697680E+03  0.12499552323E+03 0.  0.
          2    1    1    2  501    0  0.11064038762E+03 -0.10747814590E+03 -0.39931737810E+02  0.15933421134E+03  0.00000000000E+00 0. -1.
          1    1    1    2  502    0 -0.12436769653E+03  0.63499126210E+02  0.11692086534E+04  0.11775178717E+04  0.00000000000E+00 0. -1.
         22    1    3    3    0    0 -0.32843834525E+02  0.43791407852E+02  0.83341345998E+02  0.99710505067E+02  0.00000000000E+00 0.  1.
         22    1    3    3    0    0  0.46571143429E+02  0.18761183953E+00 -0.16405162665E+02  0.49376471730E+02  0.00000000000E+00 0.  1.
</event>
<event>
 7    1  0.6507405E-006  0.3552383E+02  0.7818608E-02  0.1622070E+00
          2   -1    0    0  502    0  0.00000000000E+00  0.00000000000E+00  0.70486828326E+02  0.70486828326E+02  0.00000000000E+00 0. -1.
          1   -1    0    0  501    0 -0.00000000000E+00 -0.00000000000E+00 -0.32083106171E+03  0.32083106171E+03  0.00000000000E+00 0. -1.
         25    2    1    2    0    0 -0.13954298408E+02 -0.16881920063E+02 -0.96617181468E+02  0.15948981439E+03  0.12498959745E+03 0.  0.
          2    1    1    2  501    0  0.36730491373E+01  0.36299810996E+02 -0.18778568639E+03  0.19129723359E+03  0.00000000000E+00 0. -1.
          1    1    1    2  502    0  0.10281249270E+02 -0.19417890933E+02  0.34058634475E+02  0.40530842048E+02  0.00000000000E+00 0. -1.
         22    1    3    3    0    0  0.40191954746E+02 -0.17444038030E+02  0.52472825300E+01  0.44127334647E+02  0.00000000000E+00 0. -1.
         22    1    3    3    0    0 -0.54146253154E+02  0.56211796706E+00 -0.10186446400E+03  0.11536247974E+03  0.00000000000E+00 0. -1.
</event>
<event>
 7    1  0.6507405E-006  0.5251975E+02  0.7818608E-02  0.1541059E+00
          2   -1    0    0  502    0  0.00000000000E+00  0.00000000000E+00  0.10124211645E+04  0.10124211645E+04  0.00000000000E+00 0. -1.
          1   -1    0    0  501    0 -0.00000000000E+00 -0.00000000000E+00 -0.12038963540E+03  0.12038963540E+03  0.00000000000E+00 0. -1.
         25    2    1    2    0    0  0.61737376177E+02  0.19724952484E+02  0.12549974313E+03  0.18861607011E+03  0.12500103603E+03 0.  0.
          2    1    1    2  501    0 -0.40797716838E+02 -0.32425752931E+02 -0.80995979929E+02  0.96313197003E+02  0.00000000000E+00 0. -1.
          1    1    1    2  502    0 -0.20939659339E+02  0.12700800447E+02  0.84752776586E+03  0.84788153274E+03  0.00000000000E+00 0. -1.
         22    1    3    3    0    0  0.68657106076E+02  0.57879823995E+02  0.11934153372E+03  0.14935285036E+03  0.00000000000E+00 0. -1.
         22    1    3    3    0    0 -0.69197298993E+01 -0.38154871511E+02  0.61582094157E+01  0.39263219749E+02  0.00000000000E+00 0. -1.
</event>
<event>
 7    1  0.6507405E-006  0.5897721E+02  0.7818608E-02  0.1490026E+00
          2   -1    0    0  502    0  0.00000000000E+00  0.00000000000E+00  0.75491464560E+03  0.75491464560E+03  0.00000000000E+00 0. -1.
          1   -1    0    0  501    0 -0.00000000000E+00 -0.00000000000E+00 -0.14740536229E+04  0.14740536229E+04  0.00000000000E+00 0. -1.
         25    2    1    2    0    0 -0.53467725549E+02  0.70613129226E+02  0.19819936278E+03  0.25048056575E+03  0.12495004889E+03 0.  0.
          2    1    1    2  501    0  0.30109879419E+02 -0.50621748218E+02 -0.14468679521E+04  0.14480663096E+04  0.00000000000E+00 0. -1.
          1    1    1    2  502    0  0.23357846129E+02 -0.19991381008E+02  0.52952961202E+03  0.53042139314E+03  0.00000000000E+00 0. -1.
         22    1    3    3    0    0 -0.15099357022E+02 -0.21957767593E+02  0.12123123990E+03  0.12412553189E+03  0.00000000000E+00 0.  1.
         22    1    3    3    0    0 -0.38368368527E+02  0.92570896819E+02  0.76968122879E+02  0.12635503386E+03  0.00000000000E+00 0.  1.
</event>
<event>
 7    1  0.6507405E-006  0.4481295E+02  0.7818608E-02  0.1483141E+00
          2   -1    0    0  502    0  0.00000000000E+00  0.00000000000E+00  0.15137072392E+02  0.15137072392E+02  0.00000000000E+00 0. -1.
          1   -1    0    0  501    0 -0.00000000000E+00 -0.00000000000E+00 -0.11796658383E+04  0.11796658383E+04  0.00000000000E+00 0. -1.
         25    2    1    2    0    0  0.42321377071E+02 -0.83606165791E+01 -0.73967541161E+03  0.75140225813E+03  0.12499856045E+03 0.  0.
          2    1    1    2  501    0 -0.15442238908E+02  0.44217450126E+02 -0.36819694650E+03  0.37116389513E+03  0.00000000000E+00 0. -1.
          1    1    1    2  502    0 -0.26879138163E+02 -0.35856833547E+02 -0.56656407825E+02  0.72236757458E+02  0.00000000000E+00 0. -1.
         22    1    3    3    0    0 -0.35207078796E+02 -0.25927463860E+02 -0.14534853203E+03  0.15178263255E+03  0.00000000000E+00 0. -1.
         22    1    3    3    0    0  0.77528455867E+02  0.17566847281E+02 -0.59432687958E+03  0.59961962558E+03  0.00000000000E+00 0. -1.
</event>
<event>
 7    1  0.6507405E-006  0.5926852E+02  0.7818608E-02  0.1463615E+00
          2   -1    0    0  502    0  0.00000000000E+00  0.00000000000E+00  0.44021919143E+03  0.44021919143E+03  0.00000000000E+00 0. -1.
          1   -1    0    0  501    0 -0.00000000000E+00 -0.00000000000E+00 -0.27488031626E+03  0.27488031626E+03  0.00000000000E+00 0. -1.
         25    2    1    2    0    0 -0.30881108187E+02  0.69737753002E+01  0.23724283913E+03  0.27002047913E+03  0.12499847218E+03 0.  0.
          2    1    1    2  501    0  0.56364602907E+02  0.19711989387E+02 -0.25315925006E+03  0.26010601085E+03  0.00000000000E+00 0. -1.
          1    1    1    2  502    0 -0.25483494720E+02 -0.26685764687E+02  0.18125528610E+03  0.18497301771E+03  0.00000000000E+00 0. -1.
         22    1    3    3    0    0  0.45175554913E+02  0.19451288450E+02  0.66732656970E+02  0.82900125997E+02  0.00000000000E+00 0. -1.
         22    1    3    3    0    0 -0.76056663100E+02 -0.12477513150E+02  0.17051018216E+03  0.18712035314E+03  0.00000000000E+00 0. -1.
</event>
<event>
 7    1  0.6507405E-006  0.2657061E+02  0.7818608E-02  0.1644442E+00
          2   -1    0    0  502    0  0.00000000000E+00  0.00000000000E+00  0.96552759749E+03  0.96552759749E+03  0.00000000000E+00 0. -1.
          1   -1    0    0  501    0 -0.00000000000E+00 -0.00000000000E+00 -0.45117879566E+02  0.45117879566E+02  0.00000000000E+00 0. -1.
         25    2    1    2    0    0 -0.29274386267E+01  0.26991635281E+00  0.16460226108E+03  0.20670575946E+03  0.12499889556E+03 0.  0.
          2    1    1    2  501    0  0.19812351549E+02  0.19263656239E+02 -0.15845896817E+02  0.31854515716E+02  0.00000000000E+00 0. -1.
          1    1    1    2  502    0 -0.16884912922E+02 -0.19533572591E+02  0.77165335366E+03  0.77208520187E+03  0.00000000000E+00 0. -1.
         22    1    3    3    0    0  0.21519548994E+02 -0.11535975779E+02 -0.12572304736E+02  0.27463295004E+02  0.00000000000E+00 0. -1.
         22    1    3    3    0    0 -0.24446987621E+02  0.11805892131E+02  0.17717456582E+03  0.17924246446E+03  0.00000000000E+00 0. -1.
</event>
<event>
 7    1  0.6507405E-006  0.1455403E+03  0.7818608E-02  0.1286023E+00
          2   -1    0    0  502    0  0.00000000000E+00  0.00000000000E+00  0.58186394375E+02  0.58186394375E+02  0.00000000000E+00 0. -1.
          1   -1    0    0  501    0 -0.00000000000E+00 -0.00000000000E+00 -0.96794284941E+03  0.96794284941E+03  0.00000000000E+00 0. -1.
         25    2    1    2    0    0  0.46323516486E+02 -0.13992317855E+03 -0.27153827716E+03  0.33329003069E+03  0.12499937806E+03 0.  0.
          2    1    1    2  501    0  0.57232194634E+02  0.30988215640E+02 -0.43627042261E+03  0.44109826032E+03  0.00000000000E+00 0. -1.
          1    1    1    2  502    0 -0.10355571112E+03  0.10893496291E+03 -0.20194775526E+03  0.25174095278E+03  0.00000000000E+00 0. -1.
         22    1    3    3    0    0  0.87630180186E+02 -0.89488397323E+02 -0.15038781266E+03  0.19571335144E+03  0.00000000000E+00 0.  1.
         22    1    3    3    0    0 -0.41306663700E+02 -0.50434781230E+02 -0.12115046451E+03  0.13757667925E+03  0.00000000000E+00 0.  1.
</event>
<event>
 7    1  0.6507405E-006  0.9207248E+02  0.7818608E-02  0.1311693E+00
          2   -1    0    0  502    0  0.00000000000E+00  0.00000000000E+00  0.35678919188E+03  0.35678919188E+03  0.00000000000E+00 0. -1.
          1   -1    0    0  501    0 -0.00000000000E+00 -0.00000000000E+00 -0.46815446926E+03  0.46815446926E+03  0.00000000000E+00 0. -1.
         25    2    1    2    0    0  0.48934287048E+02 -0.83946295013E+02 -0.12068229797E+03  0.19907519625E+03  0.12500068729E+03 0.  0.
          2    1    1    2  501    0  0.43150303391E+02  0.68742885790E+02 -0.29583287097E+03  0.30676476423E+03  0.00000000000E+00 0. -1.
          1    1    1    2  502    0 -0.92084590439E+02  0.15203409223E+02  0.30514989156E+03  0.31910370065E+03  0.00000000000E+00 0. -1.
         22    1    3    3    0    0 -0.74080351408E+01  0.27780424877E+02 -0.43220091695E+02  0.51909607175E+02  0.00000000000E+00 0. -1.
         22    1    3    3    0    0  0.56342322189E+02 -0.11172671989E+03 -0.77462206279E+02  0.14716558908E+03  0.00000000000E+00 0. -1.
</event>
<event>
 7    1  0.6507405E-006  0.1519986E+03  0.7818608E-02  0.1323240E+00
          2   -1    0    0  502    0  0.00000000000E+00  0.00000000000E+00  0.45565760933E+03  0.45565760933E+03  0.00000000000E+00 0. -1.
          1   -1    0    0  501    0 -0.00000000000E+00 -0.00000000000E+00 -0.14398618746E+04  0.14398618746E+04  0.00000000000E+00 0. -1.
         25    2    1    2    0    0 -0.16081338436E+03  0.14071553757E+02 -0.17621208853E+03  0.26969228408E+03  0.12499709890E+03 0.  0.
          2    1    1    2  501    0  0.14164954867E+03 -0.54042411873E+02 -0.12109675859E+04  0.12204211040E+04  0.00000000000E+00 0. -1.
          1    1    1    2  502    0  0.19163835683E+02  0.39970858116E+02  0.40297540922E+03  0.40540609582E+03  0.00000000000E+00 0. -1.
         22    1    3    3    0    0 -0.94494056094E+02  0.21169917293E+02 -0.17836813940E+03  0.20295931905E+03  0.00000000000E+00 0.  1.
         22    1    3    3    0    0 -0.66319328262E+02 -0.70983635365E+01  0.21560508727E+01  0.66732965027E+02  0.00000000000E+00 0.  1.
</event>
<event>
 7    1  0.6507405E-006  0.9459522E+02  0.7818608E-02  0.1399834E+00
          2   -1    0    0  502    0  0.00000000000E+00  0.00000000000E+00  0.54880360553E+03  0.54880360553E+03  0.00000000000E+00 0. -1.
          1   -1    0    0  501    0 -0.00000000000E+00 -0.00000000000E+00 -0.45645593646E+03  0.45645593646E+03  0.00000000000E+00 0. -1.
         25    2    1    2    0    0  0.11990005140E+03 -0.20218694518E+02  0.16353797397E+03  0.23907071149E+03  0.12500127291E+03 0.  0.
          2    1    1    2  501    0 -0.93741419067E+02 -0.65912228428E+01 -0.41237871003E+03  0.42295046797E+03  0.00000000000E+00 0. -1.
          1    1    1    2  502    0 -0.26158632332E+02  0.26809917361E+02  0.34118840513E+03  0.34323836253E+03  0.00000000000E+00 0. -1.
         22    1    3    3    0    0  0.70708132765E+02  0.48155654470E+02  0.55082562684E+02  0.10174819806E+03  0.00000000000E+00 0. -1.
         22    1    3    3    0    0  0.49191918634E+02 -0.68374348988E+02  0.10845541129E+03  0.13732251343E+03  0.00000000000E+00 0. -1.
</event>
<event>
 7    1  0.6507405E-006  0.5009585E+02  0.7818608E-02  0.1528606E+00
          2   -1    0    0  502    0  0.00000000000E+00  0.00000000000E+00  0.28825137343E+03  0.28825137343E+03  0.00000000000E+00 0. -1.
          1   -1    0    0  501    0 -0.00000000000E+00 -0.00000000000E+00 -0.14414283269E+04  0.14414283269E+04  0.00000000000E+00 0. -1.
         25    2    1    2    0    0 -0.55192868251E+02  0.28755455536E+01 -0.50822752422E+02  0.14581797845E+03  0.12500163682E+03 0.  0.
          2    1    1    2  501    0  0.41967778462E+02 -0.27395288354E+02 -0.13418326489E+04  0.13427682800E+04  0.00000000000E+00 0. -1.
          1    1    1    2  502    0  0.13225089789E+02  0.24519742801E+02  0.23947844777E+03  0.24109344192E+03  0.00000000000E+00 0. -1.
         22    1    3    3    0    0  0.33152160693E+02 -0.25792876498E+02 -0.51589798495E+01  0.42319656304E+02  0.00000000000E+00 0.  1.
         22    1    3    3    0    0 -0.88345028944E+02  0.28668422051E+02 -0.45663772573E+02  0.10349832215E+03  0.00000000000E+00 0.  1.
</event>
<event>
 7    1  0.6507405E-006  0.6299208E+02  0.7818608E-02  0.1445232E+00
          2   -1    0    0  502    0  0.00000000000E+00  0.00000000000E+00  0.95827617477E+03  0.95827617477E+03  0.00000000000E+00 0. -1.
          1   -1    0    0  501    0 -0.00000000000E+00 -0.00000000000E+00 -0.24260041705E+04  0.24260041705E+04  0.00000000000E+00 0. -1.
         25    2    1    2    0    0  0.67782548250E+02 -0.37061831333E+02  0.52221937969E+03  0.54250032687E+03  0.12500188378E+03 0.  0.
          2    1    1    2  501    0 -0.60815854646E+01  0.39251454081E+02 -0.24134620129E+04  0.24137888370E+04  0.00000000000E+00 0. -1.
          1    1    1    2  502    0 -0.61700962785E+02 -0.21896227481E+01  0.42351463740E+03  0.42799118139E+03  0.00000000000E+00 0. -1.
         22    1    3    3    0    0 -0.35520367607E+02 -0.20751699456E+02  0.11776688822E+03  0.12474521837E+03  0.00000000000E+00 0.  1.
         22    1    3    3    0    0  0.10330291586E+03 -0.16310131877E+02  0.40445249147E+03  0.41775510851E+03  0.00000000000E+00 0.  1.
</event>
<event>
 7    1  0.6507405E-006  0.9751369E+02  0.7818608E-02  0.1420958E+00
          2   -1    0    0  502    0  0.00000000000E+00  0.00000000000E+00  0.18511247660E+04  0.18511247660E+04  0.00000000000E+00 0. -1.
          1   -1    0    0  501    0 -0.00000000000E+00 -0.00000000000E+00 -0.42591921481E+03  0.42591921481E+03  0.00000000000E+00 0. -1.
         25    2    1    2    0    0 -0.56891225395E+02 -0.90648798113E+02 -0.52365692158E+02  0.17268950144E+03  0.12500272823E+03 0.  0.
          2    1    1    2  501    0  0.26180102149E+02  0.93202676192E+02 -0.30577893930E+03  0.32073804937E+03  0.00000000000E+00 0. -1.
          1    1    1    2  502    0  0.30711123245E+02 -0.25538780791E+01  0.17833501827E+04  0.17836164300E+04  0.00000000000E+00 0. -1.
         22    1    3    3    0    0  0.39558994073E+02 -0.20555369660E+02 -0.70306147746E+01  0.45131660484E+02  0.00000000000E+00 0.  1.
         22    1    3    3    0    0 -0.96450219468E+02 -0.70093428453E+02 -0.45335077384E+02  0.12755784096E+03  0.00000000000E+00 0.  1.
</event>
<event>
 7    1  0.6507405E-006  0.1730082E+03  0.7818608E-02  0.1214161E+00
          2   -1    0    0  502    0  0.00000000000E+00  0.00000000000E+00  0.70120857908E+03  0.70120857908E+03  0.00000000000E+00 0. -1.
          1   -1    0    0  501    0 -0.00000000000E+00 -0.00000000000E+00 -0.49407971086E+03  0.49407971086E+03  0.00000000000E+00 0. -1.
         25    2    1    2    0    0  0.56955771911E+02 -0.25842927222E+03 -0.15674419999E+03  0.33199982387E+03  0.12500196048E+03 0.  0.
          2    1    1    2  501    0 -0.67494915524E+02  0.89745601127E+02 -0.22455584568E+03  0.25106804730E+03  0.00000000000E+00 0. -1.
          1    1    1    2  502    0  0.10539143614E+02  0.16868367110E+03  0.58842891390E+03  0.61222041876E+03  0.00000000000E+00 0. -1.
         22    1    3    3    0    0  0.34272918068E+02 -0.23681329508E+03 -0.85374617446E+02  0.25405510218E+03  0.00000000000E+00 0.  1.
         22    1    3    3    0    0  0.22682853843E+02 -0.21615977142E+02 -0.71369582548E+02  0.77944721690E+02  0.00000000000E+00 0.  1.
</event>
<event>
 7    1  0.6507405E-006  0.6435709E+02  0.7818608E-02  0.1388105E+00
          2   -1    0    0  502    0  0.00000000000E+00  0.00000000000E+00  0.18057433021E+04  0.18057433021E+04  0.00000000000E+00 0. -1.
          1   -1    0    0  501    0 -0.00000000000E+00 -0.00000000000E+00 -0.23639369507E+04  0.23639369507E+04  0.00000000000E+00 0. -1.
         25    2    1    2    0    0  0.60138522831E+02  0.30500768902E+02  0.88501216800E+03  0.89633609198E+03  0.12499965374E+03 0.  0.
          2    1    1    2  501    0  0.17690244923E+01 -0.60438563604E+02 -0.23565947338E+04  0.23573702910E+04  0.00000000000E+00 0. -1.
          1    1    1    2  502    0 -0.61907547324E+02  0.29937794702E+02  0.91338891722E+03  0.91597386975E+03  0.00000000000E+00 0. -1.
         22    1    3    3    0    0  0.30912446132E+02  0.74579949996E+02  0.67308034462E+03  0.67790478578E+03  0.00000000000E+00 0.  1.
         22    1    3    3    0    0  0.29226076699E+02 -0.44079181094E+02  0.21193182338E+03  0.21843130620E+03  0.00000000000E+00 0.  1.
</event>
<event>
 7    1  0.6507405E-006  0.2616880E+03  0.7818608E-02  0.1274509E+00
          2   -1    0    0  502    0  0.00000000000E+00  0.00000000000E+00  0.99975768513E+03  0.99975768513E+03  0.00000000000E+00 0. -1.
          1   -1    0    0  501    0 -0.00000000000E+00 -0.00000000000E+00 -0.15433704451E+04  0.15433704451E+04  0.00000000000E+00 0. -1.
         25    2    1    2    0    0 -0.82632191646E+02  0.26177989185E+03  0.13443208616E+03  0.33023336693E+03  0.12500119988E+03 0.  0.
          2    1    1    2  501    0  0.11318610142E+03 -0.23537009332E+03 -0.14331285392E+04  0.14567318162E+04  0.00000000000E+00 0. -1.
          1    1    1    2  502    0 -0.30553909773E+02 -0.26409798526E+02  0.75508369314E+03  0.75616294706E+03  0.00000000000E+00 0. -1.
         22    1    3    3    0    0 -0.67164457209E+02  0.13602669617E+03  0.90392738454E+01  0.15197379660E+03  0.00000000000E+00 0. -1.
         22    1    3    3    0    0 -0.15467734437E+02  0.12575319568E+03  0.12539281231E+03  0.17825957033E+03  0.00000000000E+00 0. -1.
</event>
<event>
 7    1  0.6507405E-006  0.4947955E+02  0.7818608E-02  0.1530447E+00
          2   -1    0    0  502    0  0.00000000000E+00  0.00000000000E+00  0.89404614984E+03  0.89404614984E+03  0.00000000000E+00 0. -1.
          1   -1    0    0  501    0 -0.00000000000E+00 -0.00000000000E+00 -0.21445869777E+03  0.21445869777E+03  0.00000000000E+00 0. -1.
         25    2    1    2    0    0 -0.47649857325E+02 -0.37713711544E+02  0.20219242701E+03  0.24535423079E+03  0.12499635227E+03 0.  0.
          2    1    1    2  501    0  0.48417351376E+02  0.98591159983E+01 -0.18941753648E+03  0.19575608600E+03  0.00000000000E+00 0. -1.
          1    1    1    2  502    0 -0.76749405065E+00  0.27854595546E+02  0.66681256153E+03  0.66739453081E+03  0.00000000000E+00 0. -1.
         22    1    3    3    0    0  0.41947565613E+02 -0.16914952679E+02  0.49115623805E+02  0.66768693163E+02  0.00000000000E+00 0.  1.
         22    1    3    3    0    0 -0.89597422938E+02 -0.20798758865E+02  0.15307680321E+03  0.17858553762E+03  0.00000000000E+00 0.  1.
</event>
<event>
 7    1  0.6507405E-006  0.1644561E+03  0.7818608E-02  0.1374029E+00
          2   -1    0    0  502    0  0.00000000000E+00  0.00000000000E+00  0.75201625709E+03  0.75201625709E+03  0.00000000000E+00 0. -1.
          1   -1    0    0  501    0 -0.00000000000E+00 -0.00000000000E+00 -0.76992806790E+03  0.76992806790E+03  0.00000000000E+00 0. -1.
         25    2    1    2    0    0  0.14463333480E+03  0.11279502134E+03  0.31596079700E+02  0.22419712054E+03  0.12499807291E+03 0.  0.
          2    1    1    2  501    0 -0.11810071338E+03 -0.11242518503E+03 -0.66346959742E+03  0.68321234432E+03  0.00000000000E+00 0. -1.
          1    1    1    2  502    0 -0.26532621424E+02 -0.36983630255E+00  0.61396170691E+03  0.61453486014E+03  0.00000000000E+00 0. -1.
         22    1    3    3    0    0  0.57118067196E+02  0.12115257382E+03  0.15711823915E+02  0.13486022822E+03  0.00000000000E+00 0. -1.
         22    1    3    3    0    0  0.87515267606E+02 -0.83575524851E+01  0.15884255785E+02  0.89336892321E+02  0.00000000000E+00 0. -1.
</event>
<event>
 7    1  0.6507405E-006  0.7103848E+02  0.7818608E-02  0.1365339E+00
          2   -1    0    0  502    0  0.00000000000E+00  0.00000000000E+00  0.25008056307E+04  0.25008056307E+04  0.00000000000E+00 0. -1.
          1   -1    0    0  501    0 -0.00000000000E+00 -0.00000000000E+00 -0.12163297615E+03  0.12163297615E+03  0.00000000000E+00 0. -1.
         25    2    1    2    0    0 -0.67965069136E+02  0.11791563850E+03  0.87285701002E+02  0.20436875963E+03  0.12499779153E+03 0.  0.
          2    1    1    2  501    0  0.37190294521E+02 -0.54541066480E+02 -0.45146119176E+02  0.79975108728E+02  0.00000000000E+00 0. -1.
          1    1    1    2  502    0  0.30774774615E+02 -0.63374572016E+02  0.23370330727E+04  0.23380947384E+04  0.00000000000E+00 0. -1.
         22    1    3    3    0    0 -0.52319714946E+02  0.10527370604E+03  0.11870316364E+03  0.16706390039E+03  0.00000000000E+00 0.  1.
         22    1    3    3    0    0 -0.15645354190E+02  0.12641932458E+02 -0.31417462638E+02  0.37304859236E+02  0.00000000000E+00 0.  1.
</event>
<event>
 7    1  0.6507405E-006  0.2349273E+03  0.7818608E-02  0.1363191E+00
          2   -1    0    0  502    0  0.00000000000E+00  0.00000000000E+00  0.17148972805E+04  0.17148972805E+04  0.00000000000E+00 0. -1.
          1   -1    0    0  501    0 -0.00000000000E+00 -0.00000000000E+00 -0.12497356973E+04  0.12497356973E+04  0.00000000000E+00 0. -1.
         25    2    1    2    0    0 -0.14747685547E+03  0.19414502411E+03 -0.88176468983E+03  0.92335104657E+03  0.12500589465E+03 0.  0.
          2    1    1    2  501    0 -0.84199385409E+01 -0.18496527009E+02 -0.33873237847E+03  0.33934148154E+03  0.00000000000E+00 0. -1.
          1    1    1    2  502    0  0.15589679401E+03 -0.17564849710E+03  0.16856586515E+04  0.17019404497E+04  0.00000000000E+00 0. -1.
         22    1    3    3    0    0 -0.16454553853E+03  0.15362738190E+03 -0.79240431435E+03  0.82376040456E+03  0.00000000000E+00 0.  1.
         22    1    3    3    0    0  0.17068683054E+02  0.40517642213E+02 -0.89360375472E+02  0.99590642011E+02  0.00000000000E+00 0.  1.
</event>
<event>
 7    1  0.6507405E-006  0.1141569E+03  0.7818608E-02  0.1446423E+00
          2   -1    0    0  502    0  0.00000000000E+00  0.00000000000E+00  0.42772144263E+03  0.42772144263E+03  0.00000000000E+00 0. -1.
          1   -1    0    0  501    0 -0.00000000000E+00 -0.00000000000E+00 -0.17825330228E+04  0.17825330228E+04  0.00000000000E+00 0. -1.
         25    2    1    2    0    0  0.92687283634E+01  0.13492686139E+03 -0.42612374187E+03  0.46421682892E+03  0.12499861445E+03 0.  0.
          2    1    1    2  501    0  0.16068461784E+01 -0.21665314866E+02 -0.13293524872E+04  0.13295299933E+04  0.00000000000E+00 0. -1.
          1    1    1    2  502    0 -0.10875574542E+02 -0.11326154652E+03  0.40066464887E+03  0.41650764326E+03  0.00000000000E+00 0. -1.
         22    1    3    3    0    0  0.44869909080E+02  0.15427016932E+02 -0.54644752160E+02  0.72369541458E+02  0.00000000000E+00 0. -1.
         22    1    3    3    0    0 -0.35601180716E+02  0.11949984446E+03 -0.37147898971E+03  0.39184728746E+03  0.00000000000E+00 0. -1.
</event>
<event>
 7    1  0.6507405E-006  0.7772324E+02  0.7818608E-02  0.1362591E+00
          2   -1    0    0  502    0  0.00000000000E+00  0.00000000000E+00  0.31594845533E+03  0.31594845533E+03  0.00000000000E+00 0. -1.
          1   -1    0    0  501    0 -0.00000000000E+00 -0.00000000000E+00 -0.15645736636E+03  0.15645736636E+03  0.00000000000E+00 0. -1.
         25    2    1    2    0    0 -0.20657290556E+02 -0.13929582945E+02  0.15939955689E+03  0.20409267773E+03  0.12499938174E+03 0.  0.
          2    1    1    2  501    0  0.81693850043E+02  0.46536882078E+01 -0.11297163063E+03  0.13949240580E+03  0.00000000000E+00 0. -1.
          1    1    1    2  502    0 -0.61036559486E+02  0.92758947375E+01  0.11306316271E+03  0.12882073815E+03  0.00000000000E+00 0. -1.
         22    1    3    3    0    0 -0.46535068383E+02 -0.34010553609E+01  0.47052134331E+01  0.46895829243E+02  0.00000000000E+00 0. -1.
         22    1    3    3    0    0  0.25877777826E+02 -0.10528527585E+02  0.15469434346E+03  0.15719684849E+03  0.00000000000E+00 0. -1.
</event>
<event>
 7    1  0.6507405E-006  0.6847250E+02  0.7818608E-02  0.1417160E+00
          2   -1    0    0  502    0  0.00000000000E+00  0.00000000000E+00  0.10802571283E+04  0.10802571283E+04  0.00000000000E+00 0. -1.
          1   -1    0    0  501    0 -0.00000000000E+00 -0.00000000000E+00 -0.17762347197E+02  0.17762347197E+02  0.00000000000E+00 0. -1.
         25    2    1    2    0    0  0.12587524759E+01  0.74474061577E+02  0.52631431762E+03  0.54606080033E+03  0.12501066518E+03 0.  0.
          2    1    1    2  501    0  0.40517970283E+02 -0.57244357540E+02  0.18438359343E+03  0.19727121410E+03  0.00000000000E+00 0. -1.
          1    1    1    2  502    0 -0.41776722759E+02 -0.17229704037E+02  0.35179687009E+03  0.35468746111E+03  0.00000000000E+00 0. -1.
         22    1    3    3    0    0 -0.46690247436E+02  0.19876742712E+02  0.37257029750E+03  0.37601022684E+03  0.00000000000E+00 0.  1.
         22    1    3    3    0    0  0.47948999912E+02  0.54597318865E+02  0.15374402012E+03  0.17005057349E+03  0.00000000000E+00 0.  1.
</event>
<event>
 7    1  0.6507405E-006  0.3275452E+03  0.7818608E-02  0.1264299E+00
          2   -1    0    0  502    0  0.00000000000E+00  0.00000000000E+00  0.16563192831E+04  0.16563192831E+04  0.00000000000E+00 0. -1.
          1   -1    0    0  501    0 -0.00000000000E+00 -0.00000000000E+00 -0.19957691645E+04  0.19957691645E+04  0.00000000000E+00 0. -1.
         25    2    1    2    0    0 -0.33237609944E+03 -0.13846224289E+03  0.39259182238E+03  0.54717354786E+03  0.12499955315E+03 0.  0.
          2    1    1    2  501    0  0.30574272569E+03  0.11481383303E+03 -0.19043067183E+04  0.19321089276E+04  0.00000000000E+00 0. -1.
          1    1    1    2  502    0  0.26633373755E+02  0.23648409855E+02  0.11722650146E+04  0.11728059721E+04  0.00000000000E+00 0. -1.
         22    1    3    3    0    0 -0.13641240233E+03 -0.54319980852E+02  0.25225956118E+03  0.29187992401E+03  0.00000000000E+00 0. -1.
         22    1    3    3    0    0 -0.19596369711E+03 -0.84142262036E+02  0.14033226119E+03  0.25529362385E+03  0.00000000000E+00 0. -1.
</event>
<event>
 7    1  0.6507405E-006  0.4910740E+02  0.7818608E-02  0.1478775E+00
          2   -1    0    0  502    0  0.00000000000E+00  0.00000000000E+00  0.19443662190E+03  0.19443662190E+03  0.00000000000E+00 0. -1.
          1   -1    0    0  501    0 -0.00000000000E+00 -0.00000000000E+00 -0.83929941147E+03  0.83929941147E+03  0.00000000000E+00 0. -1.
         25    2    1    2    0    0  0.79053264575E+02  0.27168263286E+02 -0.22691165277E+03  0.27222253604E+03  0.12501471032E+03 0.  0.
          2    1    1    2  501    0 -0.30386952793E+02 -0.25948942137E+02 -0.58558870803E+03  0.58695046594E+03  0.00000000000E+00 0. -1.
          1    1    1    2  502    0 -0.48666311782E+02 -0.12193211486E+01  0.16763757122E+03  0.17456303140E+03  0.00000000000E+00 0. -1.
         22    1    3    3    0    0  0.37026229845E+01  0.39174147659E+02 -0.76783653752E+01  0.40090903665E+02  0.00000000000E+00 0.  1.
         22    1    3    3    0    0  0.75350641590E+02 -0.12005884374E+02 -0.21923328739E+03  0.23213163237E+03  0.00000000000E+00 0.  1.
</event>
<event>
 7    1  0.6507405E-006  0.8769257E+02  0.7818608E-02  0.1313638E+00
          2   -1    0    0  502    0  0.00000000000E+00  0.00000000000E+00  0.13140732901E+04  0.13140732901E+04  0.00000000000E+00 0. -1.
          1   -1    0    0  501    0 -0.00000000000E+00 -0.00000000000E+00 -0.66998250051E+03  0.66998250051E+03  0.00000000000E+00 0. -1.
         25    2    1    2    0    0 -0.12462386284E+01  0.35322344345E+02  0.34958714443E+03  0.37294925366E+03  0.12502301042E+03 0.  0.
          2    1    1    2  501    0  0.75880205144E+02  0.35403707071E+02 -0.65284569862E+03  0.65819353857E+03  0.00000000000E+00 0. -1.
          1    1    1    2  502    0 -0.74633966515E+02 -0.70726051416E+02  0.94734934375E+03  0.95291299835E+03  0.00000000000E+00 0. -1.
         22    1    3    3    0    0 -0.58863788703E+02  0.39699636984E+02  0.21693190301E+03  0.22825524604E+03  0.00000000000E+00 0. -1.
         22    1    3    3    0    0  0.57617550075E+02 -0.43772926387E+01  0.13265524141E+03  0.14469400762E+03  0.00000000000E+00 0. -1.
</event>
<event>
 7    1  0.6507405E-006  0.6411853E+02  0.7818608E-02  0.1433485E+00
          2   -1    0    0  502    0  0.00000000000E+00  0.00000000000E+00  0.64913453900E+03  0.64913453900E+03  0.00000000000E+00 0. -1.
          1   -1    0    0  501    0 -0.00000000000E+00 -0.00000000000E+00 -0.22655545424E+03  0.22655545424E+03  0.00000000000E+00 0. -1.
         25    2    1    2    0    0 -0.31225775678E+02  0.21348455198E+02 -0.18840531023E+01  0.13060885242E+03  0.12499726825E+03 0.  0.
          2    1    1    2  501    0  0.24086164177E+02 -0.63351836358E+02 -0.15232432795E+03  0.16672222216E+03  0.00000000000E+00 0. -1.
          1    1    1    2  502    0  0.71396115006E+01  0.42003381160E+02  0.57678746581E+03  0.57835891866E+03  0.00000000000E+00 0. -1.
         22    1    3    3    0    0 -0.48816563058E+02 -0.42055091248E+02  0.39342334016E+01  0.64553587980E+02  0.00000000000E+00 0.  1.
         22    1    3    3    0    0  0.17590787380E+02  0.63403546446E+02 -0.58182865039E+01  0.66055264441E+02  0.00000000000E+00 0.  1.
</event>
<event>
 7    1  0.6507405E-006  0.9365761E+02  0.7818608E-02  0.1299509E+00
          2   -1    0    0  502    0  0.00000000000E+00  0.00000000000E+00  0.11612569220E+04  0.11612569220E+04  0.00000000000E+00 0. -1.
          1   -1    0    0  501    0 -0.00000000000E+00 -0.00000000000E+00 -0.15307072035E+04  0.15307072035E+04  0.00000000000E+00 0. -1.
         25    2    1    2    0    0 -0.11804265054E+03 -0.43593335916E+02  0.25174142141E+03  0.30794962748E+03  0.12499913412E+03 0.  0.
          2    1    1    2  501    0  0.32903707962E+02  0.82895312161E+02 -0.14987796302E+04  0.15014308731E+04  0.00000000000E+00 0. -1.
          1    1    1    2  502    0  0.85138942576E+02 -0.39301976246E+02  0.87758792728E+03  0.88258362493E+03  0.00000000000E+00 0. -1.
         22    1    3    3    0    0 -0.70572412375E+02  0.22934533008E+02  0.47868392185E+02  0.88305385810E+02  0.00000000000E+00 0. -1.
         22    1    3    3    0    0 -0.47470238163E+02 -0.66527868923E+02  0.20387302922E+03  0.21964424167E+03  0.00000000000E+00 0. -1.
</event>
<event>
 7    1  0.6507405E-006  0.5372518E+02  0.7818608E-02  0.1479425E+00
          2   -1    0    0  502    0  0.00000000000E+00  0.00000000000E+00  0.40567902820E+03  0.40567902820E+03  0.00000000000E+00 0. -1.
          1   -1    0    0  501    0 -0.00000000000E+00 -0.00000000000E+00 -0.14413464275E+04  0.14413464275E+04  0.00000000000E+00 0. -1.
         25    2    1    2    0    0 -0.13560754971E+02 -0.51385801174E+02 -0.13381787683E+03  0.19067343245E+03  0.12499895617E+03 0.  0.
          2    1    1    2  501    0 -0.22715474049E+02  0.48965510752E+02 -0.12776536351E+04  0.12787933474E+04  0.00000000000E+00 0. -1.
          1    1    1    2  502    0  0.36276229019E+02  0.24202904213E+01  0.37580411267E+03  0.37755867583E+03  0.00000000000E+00 0. -1.
         22    1    3    3    0    0 -0.39821265945E+02 -0.80797824824E+02 -0.11736778261E+03  0.14795005276E+03  0.00000000000E+00 0. -1.
         22    1    3    3    0    0  0.26260510975E+02  0.29412023650E+02 -0.16450094222E+02  0.42723379685E+02  0.00000000000E+00 0. -1.
</event>
<event>
 7    1  0.6507405E-006  0.5193966E+02  0.7818608E-02  0.1459535E+00
          2   -1    0    0  502    0  0.00000000000E+00  0.00000000000E+00  0.33555881630E+03  0.33555881630E+03  0.00000000000E+00 0. -1.
          1   -1    0    0  501    0 -0.00000000000E+00 -0.00000000000E+00 -0.58013173103E+02  0.58013173103E+02  0.00000000000E+00 0. -1.
         25    2    1    2    0    0  0.40210985793E+02  0.84209912981E+01  0.98667359042E+02  0.16446649731E+03  0.12500457801E+03 0.  0.
          2    1    1    2  501    0 -0.47279388404E+02  0.34368573405E+02  0.16070360768E+02  0.60620094861E+02  0.00000000000E+00 0. -1.
          1    1    1    2  502    0  0.70684026108E+01 -0.42789564703E+02  0.16280792339E+03  0.16848539723E+03  0.00000000000E+00 0. -1.
         22    1    3    3    0    0  0.51546149154E+02  0.23522670822E+02 -0.70314367611E+01  0.57094331051E+02  0.00000000000E+00 0. -1.
         22    1    3    3    0    0 -0.11335163361E+02 -0.15101679524E+02  0.10569879580E+03  0.10737216626E+03  0.00000000000E+00 0. -1.
</event>
<event>
 7    1  0.6507405E-006  0.6091415E+02  0.7818608E-02  0.1517061E+00
          2   -1    0    0  502    0  0.00000000000E+00  0.00000000000E+00  0.11836131541E+02  0.11836131541E+02  0.00000000000E+00 0. -1.
          1   -1    0    0  501    0 -0.00000000000E+00 -0.00000000000E+00 -0.21507872895E+04  0.21507872895E+04  0.00000000000E+00 0. -1.
         25    2    1    2    0    0 -0.35829081078E+02 -0.73091323855E+02 -0.10740988818E+04  0.10844068971E+04  0.12499538295E+03 0.  0.
          2    1    1    2  501    0  0.32003768691E+01  0.24534746416E+02 -0.94013270969E+03  0.94045824364E+03  0.00000000000E+00 0. -1.
          1    1    1    2  502    0  0.32628704209E+02  0.48556577440E+02 -0.12471956640E+03  0.13775828031E+03  0.00000000000E+00 0. -1.
         22    1    3    3    0    0  0.91111514022E+01 -0.88473919494E+02 -0.88401493260E+03  0.88847793927E+03  0.00000000000E+00 0. -1.
         22    1    3    3    0    0 -0.44940232480E+02  0.15382595639E+02 -0.19008394924E+03  0.19592895779E+03  0.00000000000E+00 0. -1.
</event>
<event>
 7    1  0.6507405E-006  0.7592947E+02  0.7818608E-02  0.1348947E+00
          2   -1    0    0  502    0  0.00000000000E+00  0.00000000000E+00  0.25422870485E+03  0.25422870485E+03  0.00000000000E+00 0. -1.
          1   -1    0    0  501    0 -0.00000000000E+00 -0.00000000000E+00 -0.95883405187E+02  0.95883405187E+02  0.00000000000E+00 0. -1.
         25    2    1    2    0    0  0.54057231909E+01  0.57376887090E+02  0.97759504877E+02  0.16883673651E+03  0.12501037472E+03 0.  0.
          2    1    1    2  501    0 -0.75479166002E+02 -0.46415012756E+02  0.95565930423E+00  0.88613606146E+02  0.00000000000E+00 0. -1.
          1    1    1    2  502    0  0.70073442811E+02 -0.10961874335E+02  0.59630135485E+02  0.92661767382E+02  0.00000000000E+00 0. -1.
         22    1    3    3    0    0 -0.42354661424E+02 -0.15866560995E+02  0.55865492324E+02  0.71879192641E+02  0.00000000000E+00 0.  1.
         22    1    3    3    0    0  0.47760384615E+02  0.73243448085E+02  0.41894012554E+02  0.96957543873E+02  0.00000000000E+00 0.  1.
</event>
<event>
 7    1  0.6507405E-006  0.1643956E+03  0.7818608E-02  0.1280891E+00
          2   -1    0    0  502    0  0.00000000000E+00  0.00000000000E+00  0.23986031178E+04  0.23986031178E+04  0.00000000000E+00 0. -1.
          1   -1    0    0  501    0 -0.00000000000E+00 -0.00000000000E+00 -0.56083493667E+02  0.56083493667E+02  0.00000000000E+00 0. -1.
         25    2    1    2    0    0 -0.17370982414E+03 -0.12421149750E+03  0.87336534075E+03  0.90774166260E+03  0.12499723389E+03 0.  0.
          2    1    1    2  501    0  0.48310913848E+02  0.36395154466E+02 -0.87651537731E+01  0.61117751808E+02  0.00000000000E+00 0. -1.
          1    1    1    2  502    0  0.12539891029E+03  0.87816343032E+02  0.14779194372E+04  0.14858271971E+04  0.00000000000E+00 0. -1.
         22    1    3    3    0    0 -0.93184191884E+02  0.70470902880E+01  0.32827755699E+03  0.34131965886E+03  0.00000000000E+00 0. -1.
         22    1    3    3    0    0 -0.80525632253E+02 -0.13125858779E+03  0.54508778376E+03  0.56642200374E+03  0.00000000000E+00 0. -1.
</event>
<event>
 7    1  0.6507405E-006  0.5898533E+02  0.7818608E-02  0.1440607E+00
          2   -1    0    0  502    0  0.00000000000E+00  0.00000000000E+00  0.14137152649E+04  0.14137152649E+04  0.00000000000E+00 0. -1.
          1   -1    0    0  501    0 -0.00000000000E+00 -0.00000000000E+00 -0.40388025766E+03  0.40388025766E+03  0.00000000000E+00 0. -1.
         25    2    1    2    0    0 -0.83487170713E+02 -0.43069740386E+02  0.33666249428E+03  0.37120264624E+03  0.12499863723E+03 0.  0.
          2    1    1    2  501    0  0.58376168270E+02  0.70566490013E+01 -0.38391606091E+03  0.38839299059E+03  0.00000000000E+00 0. -1.
          1    1    1    2  502    0  0.25111002443E+02  0.36013091384E+02  0.10570885739E+04  0.10579998857E+04  0.00000000000E+00 0. -1.
         22    1    3    3    0    0 -0.47592370434E+02  0.33424565963E+02  0.67548131386E+02  0.89134647512E+02  0.00000000000E+00 0. -1.
         22    1    3    3    0    0 -0.35894800278E+02 -0.76494306348E+02  0.26911436289E+03  0.28206799873E+03  0.00000000000E+00 0. -1.
</event>
<event>
 7    1  0.6507405E-006  0.8608153E+02  0.7818608E-02  0.1390905E+00
          2   -1    0    0  502    0  0.00000000000E+00  0.00000000000E+00  0.11333996090E+04  0.11333996090E+04  0.00000000000E+00 0. -1.
          1   -1    0    0  501    0 -0.00000000000E+00 -0.00000000000E+00 -0.93358235478E+02  0.93358235478E+02  0.00000000000E+00 0. -1.
         25    2    1    2    0    0  0.19787441931E+02  0.88490149767E+02  0.28390917290E+03  0.32319019688E+03  0.12500174174E+03 0.  0.
          2    1    1    2  501    0  0.37499120061E+02 -0.23395140914E+02 -0.64596887598E+02  0.78270521341E+02  0.00000000000E+00 0. -1.
          1    1    1    2  502    0 -0.57286561992E+02 -0.65095008853E+02  0.82072908821E+03  0.82529712625E+03  0.00000000000E+00 0. -1.
         22    1    3    3    0    0  0.13530107872E+02  0.11975325856E+03  0.20098334440E+03  0.23434634941E+03  0.00000000000E+00 0.  1.
         22    1    3    3    0    0  0.62573340590E+01 -0.31263108793E+02  0.82925828505E+02  0.88843847475E+02  0.00000000000E+00 0.  1.
</event>
<event>
 7    1  0.6507405E-006  0.1990376E+03  0.7818608E-02  0.1304879E+00
          2   -1    0    0  502    0  0.00000000000E+00  0.00000000000E+00  0.62159583728E+03  0.62159583728E+03  0.00000000000E+00 0. -1.
          1   -1    0    0  501    0 -0.00000000000E+00 -0.00000000000E+00 -0.13970026719E+04  0.13970026719E+04  0.00000000000E+00 0. -1.
         25    2    1    2    0    0 -0.10895425685E+03  0.19532257036E+03 -0.37043162725E+03  0.45040711007E+03  0.12500015102E+03 0.  0.
          2    1    1    2  501    0 -0.11713059296E+02 -0.38190952673E+02 -0.96928822558E+03  0.97011102914E+03  0.00000000000E+00 0. -1.
          1    1    1    2  502    0  0.12066731614E+03 -0.15713161769E+03  0.56431301818E+03  0.59808036998E+03  0.00000000000E+00 0. -1.
         22    1    3    3    0    0 -0.94422818547E+02  0.12601632693E+03 -0.33725938536E+03  0.37220918357E+03  0.00000000000E+00 0. -1.
         22    1    3    3    0    0 -0.14531438302E+02  0.69306243433E+02 -0.33172241891E+02  0.78197926507E+02  0.00000000000E+00 0. -1.
</event>
<event>
 7    1  0.6507405E-006  0.7961376E+02  0.7818608E-02  0.1380748E+00
          2   -1    0    0  502    0  0.00000000000E+00  0.00000000000E+00  0.16488536440E+02  0.16488536440E+02  0.00000000000E+00 0. -1.
          1   -1    0    0  501    0 -0.00000000000E+00 -0.00000000000E+00 -0.15746696336E+04  0.15746696336E+04  0.00000000000E+00 0. -1.
         25    2    1    2    0    0 -0.78399758242E+02  0.44070387088E+02 -0.96654967072E+03  0.97874068546E+03  0.12500536909E+03 0.  0.
          2    1    1    2  501    0 -0.14411648292E+01 -0.51859246202E+02 -0.41732620019E+03  0.42053848306E+03  0.00000000000E+00 0. -1.
          1    1    1    2  502    0  0.79840923071E+02  0.77888591137E+01 -0.17430522623E+03  0.19187900150E+03  0.00000000000E+00 0. -1.
         22    1    3    3    0    0 -0.28604838145E+02 -0.21877365306E+02 -0.66787624382E+03  0.66884641955E+03  0.00000000000E+00 0.  1.
         22    1    3    3    0    0 -0.49794920096E+02  0.65947752394E+02 -0.29867342690E+03  0.30989426592E+03  0.00000000000E+00 0.  1.
</event>
<event>
 7    1  0.6507405E-006  0.5768573E+02  0.7818608E-02  0.1424982E+00
          2   -1    0    0  502    0  0.00000000000E+00  0.00000000000E+00  0.25142585600E+03  0.25142585600E+03  0.00000000000E+00 0. -1.
          1   -1    0    0  501    0 -0.00000000000E+00 -0.00000000000E+00 -0.47389973809E+03  0.47389973809E+03  0.00000000000E+00 0. -1.
         25    2    1    2    0    0  0.20456936018E+02  0.89956071929E+02 -0.15001073809E+03  0.21595966164E+03  0.12499909122E+03 0.  0.
          2    1    1    2  501    0 -0.36462734491E+02 -0.42045637096E+02 -0.28526897160E+03  0.29064712757E+03  0.00000000000E+00 0. -1.
          1    1    1    2  502    0  0.16005798473E+02 -0.47910434833E+02  0.21280582760E+03  0.21871880489E+03  0.00000000000E+00 0. -1.
         22    1    3    3    0    0  0.37246146295E+02  0.10139824490E+03 -0.59761483685E+02  0.12345166834E+03  0.00000000000E+00 0.  1.
         22    1    3    3    0    0 -0.16789210277E+02 -0.11442172974E+02 -0.90249254407E+02  0.92507993304E+02  0.00000000000E+00 0.  1.
</event>
<event>
 7    1  0.6507405E-006  0.6600826E+02  0.7818608E-02  0.1436020E+00
          2   -1    0    0  502    0  0.00000000000E+00  0.00000000000E+00  0.10769853154E+04  0.10769853154E+04  0.00000000000E+00 0. -1.
          1   -1    0    0  501    0 -0.00000000000E+00 -0.00000000000E+00 -0.37045577218E+03  0.37045577218E+03  0.00000000000E+00 0. -1.
         25    2    1    2    0    0 -0.41869185142E+02 -0.28798225162E+02  0.17671864782E+02  0.13608801478E+03  0.12500114610E+03 0.  0.
          2    1    1    2  501    0  0.21449705113E+02 -0.34475355745E+02 -0.30881227503E+03  0.31147016103E+03  0.00000000000E+00 0. -1.
          1    1    1    2  502    0  0.20419480029E+02  0.63273580907E+02  0.99766995342E+03  0.99988291173E+03  0.00000000000E+00 0. -1.
         22    1    3    3    0    0 -0.10553405913E+02 -0.69387688443E+02  0.39308158937E+02  0.80443502180E+02  0.00000000000E+00 0.  1.
         22    1    3    3    0    0 -0.31315779228E+02  0.40589463281E+02 -0.21636294155E+02  0.55644512604E+02  0.00000000000E+00 0.  1.
</event>
<event>
 7    1  0.6507405E-006  0.6700288E+02  0.7818608E-02  0.1457129E+00
          2   -1    0    0  502    0  0.00000000000E+00  0.00000000000E+00  0.16010775091E+04  0.16010775091E+04  0.00000000000E+00 0. -1.
          1   -1    0    0  501    0 -0.00000000000E+00 -0.00000000000E+00 -0.41147691636E+03  0.41147691636E+03  0.00000000000E+00 0. -1.
         25    2    1    2    0    0 -0.52708765510E+02 -0.35690109154E+02  0.23080679709E+03  0.27008977324E+03  0.12499884068E+03 0.  0.
          2    1    1    2  501    0 -0.14624305189E+02  0.30930549371E+02 -0.39024311485E+03  0.39174003864E+03  0.00000000000E+00 0. -1.
          1    1    1    2  502    0  0.67333070699E+02  0.47595597838E+01  0.13490369105E+04  0.13507246136E+04  0.00000000000E+00 0. -1.
         22    1    3    3    0    0 -0.11372980606E+02 -0.75700366440E+02  0.16968703291E+03  0.18615471873E+03  0.00000000000E+00 0. -1.
         22    1    3    3    0    0 -0.41335784905E+02  0.40010257285E+02  0.61119764174E+02  0.83935054503E+02  0.00000000000E+00 0. -1.
</event>
<event>
 7    1  0.6507405E-006  0.1274038E+03  0.7818608E-02  0.1353555E+00
          2   -1    0    0  502    0  0.00000000000E+00  0.00000000000E+00  0.11778180349E+04  0.11778180349E+04  0.00000000000E+00 0. -1.
          1   -1    0    0  501    0 -0.00000000000E+00 -0.00000000000E+00 -0.10948716795E+03  0.10948716795E+03  0.00000000000E+00 0. -1.
         25    2    1    2    0    0 -0.11093576110E+03 -0.44462435127E+02  0.20681801185E+03  0.26959532447E+03  0.12499719086E+03 0.  0.
          2    1    1    2  501    0  0.13005280452E+03  0.85958172491E+01 -0.22926112486E+02  0.13233754823E+03  0.00000000000E+00 0. -1.
          1    1    1    2  502    0 -0.19117043423E+02  0.35866617878E+02  0.88443896757E+03  0.88537233015E+03  0.00000000000E+00 0. -1.
         22    1    3    3    0    0 -0.34042545195E+02  0.24945403593E+02  0.14025394977E+03  0.14646616834E+03  0.00000000000E+00 0. -1.
         22    1    3    3    0    0 -0.76893215901E+02 -0.69407838720E+02  0.66564062084E+02  0.12312915613E+03  0.00000000000E+00 0. -1.
</event>
<event>
 7    1  0.6507405E-006  0.1599049E+03  0.7818608E-02  0.1221461E+00
          2   -1    0    0  502    0  0.00000000000E+00  0.00000000000E+00  0.14225861984E+04  0.14225861984E+04  0.00000000000E+00 0. -1.
          1   -1    0    0  501    0 -0.00000000000E+00 -0.00000000000E+00 -0.18046800047E+04  0.18046800047E+04  0.00000000000E+00 0. -1.
         25    2    1    2    0    0  0.21840080059E+03 -0.10056581711E+03  0.53010785246E+03  0.59535833576E+03  0.12499927780E+03 0.  0.
          2    1    1    2  501    0 -0.72750393560E+02  0.85811585373E+02 -0.17640186859E+04  0.17676023795E+04  0.00000000000E+00 0. -1.
          1    1    1    2  502    0 -0.14565040703E+03  0.14754231736E+02  0.85181702717E+03  0.86430548777E+03  0.00000000000E+00 0. -1.
         22    1    3    3    0    0  0.84063460850E+02 -0.76974244677E+02  0.13129909888E+03  0.17387108201E+03  0.00000000000E+00 0.  1.
         22    1    3    3    0    0  0.13433733974E+03 -0.23591572431E+02  0.39880875358E+03  0.42148725375E+03  0.00000000000E+00 0.  1.
</event>
<event>
 7    1  0.6507405E-006  0.4274214E+02  0.7818608E-02  0.1583471E+00
          2   -1    0    0  502    0  0.00000000000E+00  0.00000000000E+00  0.13765682984E+04  0.13765682984E+04  0.00000000000E+00 0. -1.
          1   -1    0    0  501    0 -0.00000000000E+00 -0.00000000000E+00 -0.52396705735E+02  0.52396705735E+02  0.00000000000E+00 0. -1.
         25    2    1    2    0    0 -0.22729291569E+02 -0.20233654181E+02  0.88218101700E+02  0.15598769719E+03  0.12499482690E+03 0.  0.
          2    1    1    2  501    0  0.44503562487E+02  0.12774658535E+02  0.10717281273E+02  0.47524931274E+02  0.00000000000E+00 0. -1.
          1    1    1    2  502    0 -0.21774270918E+02  0.74589956459E+01  0.12252362096E+04  0.12254523756E+04  0.00000000000E+00 0. -1.
         22    1    3    3    0    0  0.93606066015E+01  0.16189493435E+02 -0.25916435593E+02  0.31959072069E+02  0.00000000000E+00 0.  1.
         22    1    3    3    0    0 -0.32089898171E+02 -0.36423147616E+02  0.11413453729E+03  0.12402862512E+03  0.00000000000E+00 0.  1.
</event>
<event>
 7    1  0.6507405E-006  0.3837445E+02  0.7818608E-02  0.1545078E+00
          2   -1    0    0  502    0  0.00000000000E+00  0.00000000000E+00  0.12684369025E+04  0.12684369025E+04  0.00000000000E+00 0. -1.
          1   -1    0    0  501    0 -0.00000000000E+00 -0.00000000000E+00 -0.86071215622E+02  0.86071215622E+02  0.00000000000E+00 0. -1.
         25    2    1    2    0    0 -0.65170473054E+02 -0.79111292553E+01  0.29150400175E+03  0.32389837246E+03  0.12500318445E+03 0.  0.
          2    1    1    2  501    0  0.33862958425E+02  0.17198288220E+02 -0.64413330789E+02  0.74776722677E+02  0.00000000000E+00 0. -1.
          1    1    1    2  502    0  0.31307514630E+02 -0.92871589648E+01  0.95527501593E+03  0.95583302300E+03  0.00000000000E+00 0. -1.
         22    1    3    3    0    0 -0.64959424988E+02 -0.58936454461E+02  0.15391764351E+03  0.17715494219E+03  0.00000000000E+00 0. -1.
         22    1    3    3    0    0 -0.21104806688E+00  0.51025325205E+02  0.13758635824E+03  0.14674343027E+03  0.00000000000E+00 0. -1.
</event>
<event>
 7    1  0.6507405E-006  0.1332943E+03  0.7818608E-02  0.1284714E+00
          2   -1    0    0  502    0  0.00000000000E+00  0.00000000000E+00  0.15580658657E+04  0.15580658657E+04  0.00000000000E+00 0. -1.
          1   -1    0    0  501    0 -0.00000000000E+00 -0.00000000000E+00 -0.16110886006E+04  0.16110886006E+04  0.00000000000E+00 0. -1.
         25    2    1    2    0    0  0.10701569741E+03 -0.14266679706E+03  0.21423968541E+03  0.30549851839E+03  0.12499810982E+03 0.  0.
          2    1    1    2  501    0 -0.69837519733E+02  0.17287825190E+02 -0.15613352848E+04  0.15629920089E+04  0.00000000000E+00 0. -1.
          1    1    1    2  502    0 -0.37178177674E+02  0.12537897187E+03  0.12940728646E+04  0.13006639390E+04  0.00000000000E+00 0. -1.
         22    1    3    3    0    0  0.12590731096E+03 -0.76370485064E+02  0.16256346160E+03  0.21934443460E+03  0.00000000000E+00 0. -1.
         22    1    3    3    0    0 -0.18891613548E+02 -0.66296312001E+02  0.51676223807E+02  0.86154083793E+02  0.00000000000E+00 0. -1.
</event>
<event>
 7    1  0.6507405E-006  0.9031167E+02  0.7818608E-02  0.1334962E+00
          2   -1    0    0  502    0  0.00000000000E+00  0.00000000000E+00  0.67650652423E+03  0.67650652423E+03  0.00000000000E+00 0. -1.
          1   -1    0    0  501    0 -0.00000000000E+00 -0.00000000000E+00 -0.91866019681E+03  0.91866019681E+03  0.00000000000E+00 0. -1.
         25    2    1    2    0    0 -0.15553484550E+03  0.11656241252E+02  0.56079341375E+02  0.20759780482E+03  0.12499999965E+03 0.  0.
          2    1    1    2  501    0  0.89137765355E+02 -0.75595769539E+00 -0.83845123664E+03  0.84317648740E+03  0.00000000000E+00 0. -1.
          1    1    1    2  502    0  0.66397080146E+02 -0.10900283557E+02  0.54021822268E+03  0.54439242882E+03  0.00000000000E+00 0. -1.
         22    1    3    3    0    0 -0.39427470443E+02  0.10899740124E+02  0.79262903920E+02  0.89196063243E+02  0.00000000000E+00 0. -1.
         22    1    3    3    0    0 -0.11610737506E+03  0.75650112852E+00 -0.23183562545E+02  0.11840174158E+03  0.00000000000E+00 0. -1.
</event>
<event>
 7    1  0.6507405E-006  0.1102631E+03  0.7818608E-02  0.1298548E+00
          2   -1    0    0  502    0  0.00000000000E+00  0.00000000000E+00  0.13676899478E+04  0.13676899478E+04  0.00000000000E+00 0. -1.
          1   -1    0    0  501    0 -0.00000000000E+00 -0.00000000000E+00 -0.20772337303E+04  0.20772337303E+04  0.00000000000E+00 0. -1.
         25    2    1    2    0    0 -0.10355257140E+03 -0.72716892137E+02 -0.21776544925E+03  0.28117232919E+03  0.12500082548E+03 0.  0.
          2    1    1    2  501    0  0.11061698805E+03 -0.33861020578E+01 -0.18249941313E+04  0.18283465654E+04  0.00000000000E+00 0. -1.
          1    1    1    2  502    0 -0.70644166522E+01  0.76102994195E+02  0.13332157980E+04  0.13354047835E+04  0.00000000000E+00 0. -1.
         22    1    3    3    0    0 -0.12184383136E+03 -0.26717179143E+02 -0.17958446186E+03  0.21865567873E+03  0.00000000000E+00 0.  1.
         22    1    3    3    0    0  0.18291259957E+02 -0.45999712994E+02 -0.38180987393E+02  0.62516650459E+02  0.00000000000E+00 0.  1.
</event>
<event>
 7    1  0.6507405E-006  0.9915321E+02  0.7818608E-02  0.1370769E+00
          2   -1    0    0  502    0  0.00000000000E+00  0.00000000000E+00  0.19311917461E+04  0.19311917461E+04  0.00000000000E+00 0. -1.
          1   -1    0    0  501    0 -0.00000000000E+00 -0.00000000000E+00 -0.41427497487E+02  0.41427497487E+02  0.00000000000E+00 0. -1.
         25    2    1    2    0    0 -0.98394338443E+02 -0.43647947740E+02  0.64040695272E+03  0.66131141155E+03  0.12500051510E+03 0.  0.
          2    1    1    2  501    0 -0.71666273385E+00  0.45205221541E+02 -0.11427291407E+02  0.46632699353E+02  0.00000000000E+00 0. -1.
          1    1    1    2  502    0  0.99111001177E+02 -0.15572738012E+01  0.12607845873E+04  0.12646751327E+04  0.00000000000E+00 0. -1.
         22    1    3    3    0    0 -0.10730836175E+03 -0.66541959884E+02  0.39529211498E+03  0.41496840012E+03  0.00000000000E+00 0. -1.
         22    1    3    3    0    0  0.89140233116E+01  0.22894012144E+02  0.24511483773E+03  0.24634301143E+03  0.00000000000E+00 0. -1.
</event>
<event>
 7    1  0.6507405E-006  0.1131259E+03  0.7818608E-02  0.1383456E+00
          2   -1    0    0  502    0  0.00000000000E+00  0.00000000000E+00  0.20152058003E+04  0.20152058003E+04  0.00000000000E+00 0. -1.
          1   -1    0    0  501    0 -0.00000000000E+00 -0.00000000000E+00 -0.80724440786E+02  0.80724440786E+02  0.00000000000E+00 0. -1.
         25    2    1    2    0    0  0.34289865745E+02  0.13862702131E+03  0.38322460126E+03  0.42764348765E+03  0.12499844637E+03 0.  0.
          2    1    1    2  501    0 -0.36975110181E+02 -0.10301235413E+03 -0.69528392906E+01  0.10966788888E+03  0.00000000000E+00 0. -1.
          1    1    1    2  502    0  0.26852444353E+01 -0.35614667183E+02  0.15582095975E+04  0.15586188645E+04  0.00000000000E+00 0. -1.
         22    1    3    3    0    0  0.33472768115E+02  0.11300793995E+03  0.13971310713E+03  0.18278668716E+03  0.00000000000E+00 0. -1.
         22    1    3    3    0    0  0.81709763040E+00  0.25619081358E+02  0.24351149413E+03  0.24485680050E+03  0.00000000000E+00 0. -1.
</event>
<event>
 7    1  0.6507405E-006  0.1007935E+03  0.7818608E-02  0.1337304E+00
          2   -1    0    0  502    0  0.00000000000E+00  0.00000000000E+00  0.84105106635E+03  0.84105106635E+03  0.00000000000E+00 0. -1.
          1   -1    0    0  501    0 -0.00000000000E+00 -0.00000000000E+00 -0.34341581737E+02  0.34341581737E+02  0.00000000000E+00 0. -1.
         25    2    1    2    0    0  0.89332067181E+02 -0.92177544334E+02  0.34371366473E+03  0.38760897807E+03  0.12499887460E+03 0.  0.
          2    1    1    2  501    0 -0.96909822564E+00  0.59063145148E+02  0.17050968011E+03  0.18045205812E+03  0.00000000000E+00 0. -1.
          1    1    1    2  502    0 -0.88362968956E+02  0.33114399186E+02  0.29248613977E+03  0.30733161190E+03  0.00000000000E+00 0. -1.
         22    1    3    3    0    0  0.10180873633E+03 -0.10112301433E+03  0.21817109585E+03  0.26113121201E+03  0.00000000000E+00 0. -1.
         22    1    3    3    0    0 -0.12476669151E+02  0.89454699988E+01  0.12554256888E+03  0.12647776606E+03  0.00000000000E+00 0. -1.
</event>
<event>
 7    1  0.6507405E-006  0.1237091E+03  0.7818608E-02  0.1249815E+00
          2   -1    0    0  502    0  0.00000000000E+00  0.00000000000E+00  0.30595338149E+03  0.30595338149E+03  0.00000000000E+00 0. -1.
          1   -1    0    0  501    0 -0.00000000000E+00 -0.00000000000E+00 -0.20233807536E+04  0.20233807536E+04  0.00000000000E+00 0. -1.
         25    2    1    2    0    0 -0.25931835937E+02  0.12697597940E+03 -0.11143344354E+03  0.21175099703E+03  0.12500285175E+03 0.  0.
          2    1    1    2  501    0  0.10530460464E+03 -0.27374836714E+02 -0.18442321594E+04  0.18474389568E+04  0.00000000000E+00 0. -1.
          1    1    1    2  502    0 -0.79372768705E+02 -0.99601142686E+02  0.23823823082E+03  0.27014418124E+03  0.00000000000E+00 0. -1.
         22    1    3    3    0    0 -0.37827863738E+02  0.10325580226E+03 -0.14102393909E+02  0.11086742303E+03  0.00000000000E+00 0. -1.
         22    1    3    3    0    0  0.11896027801E+02  0.23720177143E+02 -0.97331049634E+02  0.10088357401E+03  0.00000000000E+00 0. -1.
</event>
<event>
 7    1  0.6507405E-006  0.7853621E+02  0.7818608E-02  0.1358847E+00
          2   -1    0    0  502    0  0.00000000000E+00  0.00000000000E+00  0.13118516654E+04  0.13118516654E+04  0.00000000000E+00 0. -1.
          1   -1    0    0  501    0 -0.00000000000E+00 -0.00000000000E+00 -0.21114889790E+02  0.21114889790E+02  0.00000000000E+00 0. -1.
         25    2    1    2    0    0  0.25953301486E+02  0.66316297359E+02  0.82149711065E+03  0.83399549397E+03  0.12497822208E+03 0.  0.
          2    1    1    2  501    0 -0.58133202300E+02  0.24406344799E+02  0.10732978450E+03  0.12447819696E+03  0.00000000000E+00 0. -1.
          1    1    1    2  502    0  0.32179900814E+02 -0.90722642158E+02  0.36190988048E+03  0.37449286429E+03  0.00000000000E+00 0. -1.
         22    1    3    3    0    0  0.27186640467E+02  0.25122072963E+02  0.75402050741E+03  0.75492857779E+03  0.00000000000E+00 0. -1.
         22    1    3    3    0    0 -0.12333389811E+01  0.41194224396E+02  0.67476603246E+02  0.79066916180E+02  0.00000000000E+00 0. -1.
</event>
<event>
 7    1  0.6507405E-006  0.7414890E+02  0.7818608E-02  0.1441964E+00
          2   -1    0    0  502    0  0.00000000000E+00  0.00000000000E+00  0.12731417571E+04  0.12731417571E+04  0.00000000000E+00 0. -1.
          1   -1    0    0  501    0 -0.00000000000E+00 -0.00000000000E+00 -0.19736703271E+02  0.19736703271E+02  0.00000000000E+00 0. -1.
         25    2    1    2    0    0  0.48831873871E+02 -0.11460919130E+02  0.43951161025E+03  0.45968591248E+03  0.12499911204E+03 0.  0.
          2    1    1    2  501    0 -0.81239212100E+02  0.23505139782E+02  0.18572835361E+03  0.20407675643E+03  0.00000000000E+00 0. -1.
          1    1    1    2  502    0  0.32407338229E+02 -0.12044220652E+02  0.62816509000E+03  0.62911579150E+03  0.00000000000E+00 0. -1.
         22    1    3    3    0    0  0.65249097633E+02 -0.94568809693E+01  0.10004122046E+03  0.11981286713E+03  0.00000000000E+00 0. -1.
         22    1    3    3    0    0 -0.16417223762E+02 -0.20040381607E+01  0.33947038980E+03  0.33987304535E+03  0.00000000000E+00 0. -1.
</event>
<event>
 7    1  0.6507405E-006  0.1023734E+03  0.7818608E-02  0.1371672E+00
          2   -1    0    0  502    0  0.00000000000E+00  0.00000000000E+00  0.34276936234E+03  0.34276936234E+03  0.00000000000E+00 0. -1.
          1   -1    0    0  501    0 -0.00000000000E+00 -0.00000000000E+00 -0.10163580633E+04  0.10163580633E+04  0.00000000000E+00 0. -1.
         25    2    1    2    0    0  0.40223556383E+02  0.13262282749E+03 -0.39223065005E+02  0.19070968743E+03  0.12499994876E+03 0.  0.
          2    1    1    2  501    0  0.37855279874E+01 -0.43298283006E+02 -0.89156041760E+03  0.89261920759E+03  0.00000000000E+00 0. -1.
          1    1    1    2  502    0 -0.44009084370E+02 -0.89324544489E+02  0.25719478167E+03  0.27579853059E+03  0.00000000000E+00 0. -1.
         22    1    3    3    0    0  0.63858340316E+02  0.14904570003E+02 -0.23299441212E+02  0.69590931849E+02  0.00000000000E+00 0. -1.
         22    1    3    3    0    0 -0.23634783933E+02  0.11771825749E+03 -0.15923623793E+02  0.12111875558E+03  0.00000000000E+00 0. -1.
</event>
<event>
 7    1  0.6507405E-006  0.5341953E+02  0.7818608E-02  0.1504192E+00
          2   -1    0    0  502    0  0.00000000000E+00  0.00000000000E+00  0.36971041968E+03  0.36971041968E+03  0.00000000000E+00 0. -1.
          1   -1    0    0  501    0 -0.00000000000E+00 -0.00000000000E+00 -0.63351158695E+02  0.63351158695E+02  0.00000000000E+00 0. -1.
         25    2    1    2    0    0  0.31749519462E+01 -0.42024028480E+02  0.14567816838E+03  0.19652305246E+03  0.12499232823E+03 0.  0.
          2    1    1    2  501    0 -0.29866562733E+02 -0.74559650552E+01 -0.26796722273E+02  0.40812587629E+02  0.00000000000E+00 0. -1.
          1    1    1    2  502    0  0.26691610787E+02  0.49479993535E+02  0.18747781488E+03  0.19572593828E+03  0.00000000000E+00 0. -1.
         22    1    3    3    0    0 -0.64175589431E+01  0.32108056163E+02  0.10792001085E+03  0.11277783947E+03  0.00000000000E+00 0.  1.
         22    1    3    3    0    0  0.95925108893E+01 -0.74132084643E+02  0.37758157527E+02  0.83745212989E+02  0.00000000000E+00 0.  1.
</event>
<event>
 7    1  0.6507405E-006  0.8508705E+02  0.7818608E-02  0.1322857E+00
          2   -1    0    0  502    0  0.00000000000E+00  0.00000000000E+00  0.10260537781E+04  0.10260537781E+04  0.00000000000E+00 0. -1.
          1   -1    0    0  501    0 -0.00000000000E+00 -0.00000000000E+00 -0.12460227586E+03  0.12460227586E+03  0.00000000000E+00 0. -1.
         25    2    1    2    0    0  0.31934533368E+02  0.10996885017E+03  0.41996437927E+03  0.45288829094E+03  0.12499904715E+03 0.  0.
          2    1    1    2  501    0  0.41295810627E+02 -0.67882259696E+02 -0.90009882955E+02  0.12006300091E+03  0.00000000000E+00 0. -1.
          1    1    1    2  502    0 -0.73230343995E+02 -0.42086590470E+02  0.57149700596E+03  0.57770476214E+03  0.00000000000E+00 0. -1.
         22    1    3    3    0    0 -0.40282502907E+02  0.55535689017E+02  0.10688088431E+03  0.12700557557E+03  0.00000000000E+00 0. -1.
         22    1    3    3    0    0  0.72217036275E+02  0.54433161149E+02  0.31308349496E+03  0.32588271537E+03  0.00000000000E+00 0. -1.
</event>
<event>
 7    1  0.6507405E-006  0.4837155E+02  0.7818608E-02  0.1557325E+00
          2   -1    0    0  502    0  0.00000000000E+00  0.00000000000E+00  0.26412536960E+04  0.26412536960E+04  0.00000000000E+00 0. -1.
          1   -1    0    0  501    0 -0.00000000000E+00 -0.00000000000E+00 -0.16482260159E+03  0.16482260159E+03  0.00000000000E+00 0. -1.
         25    2    1    2    0    0 -0.59038158122E+01 -0.25031107278E+02  0.58668125304E+03  0.60040009886E+03  0.12499589861E+03 0.  0.
          2    1    1    2  501    0 -0.10510381804E+02 -0.21520458414E+02 -0.15675606644E+03  0.15857510088E+03  0.00000000000E+00 0. -1.
          1    1    1    2  502    0  0.16414197616E+02  0.46551565692E+02  0.20465059078E+04  0.20471010978E+04  0.00000000000E+00 0. -1.
         22    1    3    3    0    0  0.46526514132E+02 -0.52434753214E+01  0.45347552585E+03  0.45588623920E+03  0.00000000000E+00 0.  1.
         22    1    3    3    0    0 -0.52430329944E+02 -0.19787631957E+02  0.13320572719E+03  0.14451385966E+03  0.00000000000E+00 0.  1.
</event>
<event>
 7    1  0.6507405E-006  0.6340324E+02  0.7818608E-02  0.1437238E+00
          2   -1    0    0  502    0  0.00000000000E+00  0.00000000000E+00  0.52844629125E+03  0.52844629125E+03  0.00000000000E+00 0. -1.
          1   -1    0    0  501    0 -0.00000000000E+00 -0.00000000000E+00 -0.97730024621E+02  0.97730024621E+02  0.00000000000E+00 0. -1.
         25    2    1    2    0    0 -0.16144635253E+02 -0.97499428430E+02  0.27249879531E+03  0.31567019018E+03  0.12500115094E+03 0.  0.
          2    1    1    2  501    0  0.15965965091E+01  0.41856487276E+02 -0.66474169285E+02  0.78570540469E+02  0.00000000000E+00 0. -1.
          1    1    1    2  502    0  0.14548038744E+02  0.55642941154E+02  0.22469164061E+03  0.23193558522E+03  0.00000000000E+00 0. -1.
         22    1    3    3    0    0 -0.47810868669E+02 -0.33549125700E+02  0.21852624972E+03  0.22619713706E+03  0.00000000000E+00 0. -1.
         22    1    3    3    0    0  0.31666233417E+02 -0.63950302730E+02  0.53972545588E+02  0.89473053124E+02  0.00000000000E+00 0. -1.
</event>
<event>
 7    1  0.6507405E-006  0.7807906E+02  0.7818608E-02  0.1465912E+00
          2   -1    0    0  502    0  0.00000000000E+00  0.00000000000E+00  0.14411365240E+04  0.14411365240E+04  0.00000000000E+00 0. -1.
          1   -1    0    0  501    0 -0.00000000000E+00 -0.00000000000E+00 -0.30335974210E+02  0.30335974210E+02  0.00000000000E+00 0. -1.
         25    2    1    2    0    0  0.85310088579E+02  0.59777800156E+02  0.23793459311E+03  0.28825159049E+03  0.12499964888E+03 0.  0.
          2    1    1    2  501    0 -0.21289057038E+02 -0.17485222913E+02  0.45105186775E+02  0.52852954921E+02  0.00000000000E+00 0. -1.
          1    1    1    2  502    0 -0.64021031540E+02 -0.42292577243E+02  0.11277607699E+04  0.11303679528E+04  0.00000000000E+00 0. -1.
         22    1    3    3    0    0 -0.25712415080E+02  0.32435232687E+02  0.10526024077E+03  0.11310566253E+03  0.00000000000E+00 0. -1.
         22    1    3    3    0    0  0.11102250366E+03  0.27342567468E+02  0.13267435234E+03  0.17514592796E+03  0.00000000000E+00 0. -1.
</event>
<event>
 7    1  0.6507405E-006  0.8673952E+02  0.7818608E-02  0.1366303E+00
          2   -1    0    0  502    0  0.00000000000E+00  0.00000000000E+00  0.60176496638E+03  0.60176496638E+03  0.00000000000E+00 0. -1.
          1   -1    0    0  501    0 -0.00000000000E+00 -0.00000000000E+00 -0.82129520893E+03  0.82129520893E+03  0.00000000000E+00 0. -1.
         25    2    1    2    0    0 -0.67702161577E+02  0.11276497983E+03 -0.26838383085E+02  0.18342489945E+03  0.12499948630E+03 0.  0.
          2    1    1    2  501    0  0.64778257512E+01 -0.53239503970E+02 -0.71166544754E+03  0.71368348463E+03  0.00000000000E+00 0. -1.
          1    1    1    2  502    0  0.61224335826E+02 -0.59525475856E+02  0.51897358808E+03  0.52595179123E+03  0.00000000000E+00 0. -1.
         22    1    3    3    0    0  0.36587300598E+02  0.29381939239E+02  0.14026428894E+01  0.46945674195E+02  0.00000000000E+00 0.  1.
         22    1    3    3    0    0 -0.10428946217E+03  0.83383040588E+02 -0.28241025974E+02  0.13647922526E+03  0.00000000000E+00 0.  1.
</event>
<event>
 7    1  0.6507405E-006  0.3532539E+02  0.7818608E-02  0.1588831E+00
          2   -1    0    0  502    0  0.00000000000E+00  0.00000000000E+00  0.24570019415E+03  0.24570019415E+03  0.00000000000E+00 0. -1.
          1   -1    0    0  501    0 -0.00000000000E+00 -0.00000000000E+00 -0.11241658281E+04  0.11241658281E+04  0.00000000000E+00 0. -1.
         25    2    1    2    0    0  0.46242553910E+02  0.74275265481E+01  0.17094049400E+03  0.21689656599E+03  0.12501970206E+03 0.  0.
          2    1    1    2  501    0 -0.31817543410E+02  0.15336358425E+02 -0.10973778737E+04  0.10979461542E+04  0.00000000000E+00 0. -1.
          1    1    1    2  502    0 -0.14425010500E+02 -0.22763884973E+02  0.47971745683E+02  0.55023302072E+02  0.00000000000E+00 0. -1.
         22    1    3    3    0    0  0.67043568977E+02  0.35290118501E+02  0.49319222838E+02  0.90402535066E+02  0.00000000000E+00 0. -1.
         22    1    3    3    0    0 -0.20801015068E+02 -0.27862591952E+02  0.12162127117E+03  0.12649403092E+03  0.00000000000E+00 0. -1.
</event>
<event>
 7    1  0.6507405E-006  0.4220812E+02  0.7818608E-02  0.1514340E+00
          2   -1    0    0  502    0  0.00000000000E+00  0.00000000000E+00  0.15297953686E+04  0.15297953686E+04  0.00000000000E+00 0. -1.
          1   -1    0    0  501    0 -0.00000000000E+00 -0.00000000000E+00 -0.14370916001E+02  0.14370916001E+02  0.00000000000E+00 0. -1.
         25    2    1    2    0    0  0.14392391229E+02 -0.26498758616E+02  0.61065207955E+03  0.62404448710E+03  0.12500493787E+03 0.  0.
          2    1    1    2  501    0 -0.44450956810E+02  0.60269834584E+01  0.61792878370E+02  0.76358181672E+02  0.00000000000E+00 0. -1.
          1    1    1    2  502    0  0.30058565581E+02  0.20471775158E+02  0.84297949468E+03  0.84376361583E+03  0.00000000000E+00 0. -1.
         22    1    3    3    0    0 -0.38308852668E+02 -0.40296860617E+02  0.46889237828E+03  0.47217736877E+03  0.00000000000E+00 0.  1.
         22    1    3    3    0    0  0.52701243897E+02  0.13798102000E+02  0.14175970127E+03  0.15186711833E+03  0.00000000000E+00 0.  1.
</event>
<event>
 7    1  0.6507405E-006  0.5908487E+02  0.7818608E-02  0.1434919E+00
          2   -1    0    0  502    0  0.00000000000E+00  0.00000000000E+00  0.20589547267E+02  0.20589547267E+02  0.00000000000E+00 0. -1.
          1   -1    0    0  501    0 -0.00000000000E+00 -0.00000000000E+00 -0.19468029132E+04  0.19468029132E+04  0.00000000000E+00 0. -1.
         25    2    1    2    0    0  0.90064185137E+02  0.28830433484E+02 -0.67883231058E+03  0.69669403494E+03  0.12500608421E+03 0.  0.
          2    1    1    2  501    0 -0.56771969800E+02  0.25329118034E+01 -0.12107935858E+04  0.12121264701E+04  0.00000000000E+00 0. -1.
          1    1    1    2  502    0 -0.33292215337E+02 -0.31363345287E+02 -0.36587469542E+02  0.58571955381E+02  0.00000000000E+00 0. -1.
         22    1    3    3    0    0  0.12195734452E+03  0.22599345947E+02 -0.52251122277E+03  0.53703100678E+03  0.00000000000E+00 0. -1.
         22    1    3    3    0    0 -0.31893159379E+02  0.62310875374E+01 -0.15632108781E+03  0.15966302816E+03  0.00000000000E+00 0. -1.
</event>
<event>
 7    1  0.6507405E-006  0.1228953E+03  0.7818608E-02  0.1341212E+00
          2   -1    0    0  502    0  0.00000000000E+00  0.00000000000E+00  0.32266127186E+03  0.32266127186E+03  0.00000000000E+00 0. -1.
          1   -1    0    0  501    0 -0.00000000000E+00 -0.00000000000E+00 -0.12982785543E+04  0.12982785543E+04  0.00000000000E+00 0. -1.
         25    2    1    2    0    0 -0.14596378293E+02 -0.82829095147E+02 -0.40435023160E+03  0.43150555165E+03  0.12499687212E+03 0.  0.
          2    1    1    2  501    0 -0.35233193149E+02 -0.30853811599E+02 -0.86723164821E+03  0.86849528913E+03  0.00000000000E+00 0. -1.
          1    1    1    2  502    0  0.49829571442E+02  0.11368290675E+03  0.29596459734E+03  0.32093898541E+03  0.00000000000E+00 0. -1.
         22    1    3    3    0    0 -0.17375892461E+02 -0.11602792713E+03 -0.31186186599E+03  0.33319997744E+03  0.00000000000E+00 0. -1.
         22    1    3    3    0    0  0.27795141678E+01  0.33198831983E+02 -0.92488365620E+02  0.98305574201E+02  0.00000000000E+00 0. -1.
</event>
<event>
 7    1  0.6507405E-006  0.6288073E+02  0.7818608E-02  0.1462664E+00
          2   -1    0    0  502    0  0.00000000000E+00  0.00000000000E+00  0.12509989111E+02  0.12509989111E+02  0.00000000000E+00 0. -1.
          1   -1    0    0  501    0 -0.00000000000E+00 -0.00000000000E+00 -0.17357247623E+04  0.17357247623E+04  0.00000000000E+00 0. -1.
         25    2    1    2    0    0  0.46209960570E+02 -0.57827234261E+02 -0.97563647056E+03  0.98639289835E+03  0.12500031099E+03 0.  0.
          2    1    1    2  501    0 -0.56737347404E+02  0.24427493092E+02 -0.70023392173E+03  0.70295332288E+03  0.00000000000E+00 0. -1.
          1    1    1    2  502    0  0.10527386834E+02  0.33399741169E+02 -0.47344380885E+02  0.58888530166E+02  0.00000000000E+00 0. -1.
         22    1    3    3    0    0 -0.98436357789E+01  0.33945648956E+02 -0.17204066129E+03  0.17563369092E+03  0.00000000000E+00 0.  1.
         22    1    3    3    0    0  0.56053596349E+02 -0.91772883217E+02 -0.80359580927E+03  0.81075920743E+03  0.00000000000E+00 0.  1.
</event>
<event>
 7    1  0.6507405E-006  0.8922023E+02  0.7818608E-02  0.1393393E+00
          2   -1    0    0  502    0  0.00000000000E+00  0.00000000000E+00  0.67070479699E+03  0.67070479699E+03  0.00000000000E+00 0. -1.
          1   -1    0    0  501    0 -0.00000000000E+00 -0.00000000000E+00 -0.39006366366E+03  0.39006366366E+03  0.00000000000E+00 0. -1.
         25    2    1    2    0    0 -0.12621938832E+02  0.74401424796E+02  0.65983042672E+02  0.16022978429E+03  0.12499974601E+03 0.  0.
          2    1    1    2  501    0 -0.41773603953E+02 -0.15478130266E+01 -0.33793759710E+03  0.34051321449E+03  0.00000000000E+00 0. -1.
          1    1    1    2  502    0  0.54395542785E+02 -0.72853611770E+02  0.55259568775E+03  0.56002546187E+03  0.00000000000E+00 0. -1.
         22    1    3    3    0    0  0.24334762358E+02 -0.22084127920E+02 -0.71683443373E+01  0.33634424709E+02  0.00000000000E+00 0.  1.
         22    1    3    3    0    0 -0.36956701189E+02  0.96485552717E+02  0.73151387009E+02  0.12659535958E+03  0.00000000000E+00 0.  1.
</event>
<event>
 7    1  0.6507405E-006  0.9619135E+02  0.7818608E-02  0.1383118E+00
          2   -1    0    0  502    0  0.00000000000E+00  0.00000000000E+00  0.87571697467E+03  0.87571697467E+03  0.00000000000E+00 0. -1.
          1   -1    0    0  501    0 -0.00000000000E+00 -0.00000000000E+00 -0.12814225944E+04  0.12814225944E+04  0.00000000000E+00 0. -1.
         25    2    1    2    0    0  0.27612263665E+02  0.10416637301E+03  0.74943438110E+03  0.76739147293E+03  0.12499884314E+03 0.  0.
          2    1    1    2  501    0  0.19084555257E+02 -0.37547177794E+02 -0.12579431879E+04  0.12586481139E+04  0.00000000000E+00 0. -1.
          1    1    1    2  502    0 -0.46696818922E+02 -0.66619195217E+02  0.10280318703E+03  0.13109998220E+03  0.00000000000E+00 0. -1.
         22    1    3    3    0    0  0.71178235573E+02  0.97740627630E+02  0.53795157278E+03  0.55137234803E+03  0.00000000000E+00 0. -1.
         22    1    3    3    0    0 -0.43565971908E+02  0.64257453808E+01  0.21148280832E+03  0.21601912491E+03  0.00000000000E+00 0. -1.
</event>
<event>
 7    1  0.6507405E-006  0.3890183E+02  0.7818608E-02  0.1544649E+00
          2   -1    0    0  502    0  0.00000000000E+00  0.00000000000E+00  0.44645419401E+03  0.44645419401E+03  0.00000000000E+00 0. -1.
          1   -1    0    0  501    0 -0.00000000000E+00 -0.00000000000E+00 -0.13087430146E+04  0.13087430146E+04  0.00000000000E+00 0. -1.
         25    2    1    2    0    0  0.14018189807E+02 -0.18683684767E+02  0.23112097400E+03  0.26379473176E+03  0.12500066463E+03 0.  0.
          2    1    1    2  501    0 -0.38884333872E+02 -0.19352064410E+01 -0.12907997925E+04  0.12913867898E+04  0.00000000000E+00 0. -1.
          1    1    1    2  502    0  0.24866144064E+02  0.20618891208E+02  0.19738999793E+03  0.20001568708E+03  0.00000000000E+00 0. -1.
         22    1    3    3    0    0  0.63992983946E+02  0.97689434525E+00  0.74463001625E+02  0.98187549760E+02  0.00000000000E+00 0. -1.
         22    1    3    3    0    0 -0.49974794139E+02 -0.19660579112E+02  0.15665797238E+03  0.16560718200E+03  0.00000000000E+00 0. -1.
</event>
<event>
 7    1  0.6507405E-006  0.1065151E+03  0.7818608E-02  0.1387097E+00
          2   -1    0    0  502    0  0.00000000000E+00  0.00000000000E+00  0.71799125545E+03  0.71799125545E+03  0.00000000000E+00 0. -1.
          1   -1    0    0  501    0 -0.00000000000E+00 -0.00000000000E+00 -0.25244132853E+03  0.25244132853E+03  0.00000000000E+00 0. -1.
         25    2    1    2    0    0 -0.40770678444E+02  0.86518887057E+02 -0.63668436861E+02  0.16978418475E+03  0.12500093400E+03 0.  0.
          2    1    1    2  501    0  0.77346947451E+02 -0.82193453083E+02 -0.11162929038E+03  0.15874322814E+03  0.00000000000E+00 0. -1.
          1    1    1    2  502    0 -0.36576269007E+02 -0.43254339734E+01  0.64084765416E+03  0.64190517109E+03  0.00000000000E+00 0. -1.
         22    1    3    3    0    0  0.19744994105E+02 -0.23052696900E+02 -0.24718213732E+01  0.30453267927E+02  0.00000000000E+00 0. -1.
         22    1    3    3    0    0 -0.60515672549E+02  0.10957158396E+03 -0.61196615488E+02  0.13933091682E+03  0.00000000000E+00 0. -1.
</event>
<event>
 7    1  0.6507405E-006  0.2055850E+03  0.7818608E-02  0.1284675E+00
          2   -1    0    0  502    0  0.00000000000E+00  0.00000000000E+00  0.30187256455E+04  0.30187256455E+04  0.00000000000E+00 0. -1.
          1   -1    0    0  501    0 -0.00000000000E+00 -0.00000000000E+00 -0.23288648630E+03  0.23288648630E+03  0.00000000000E+00 0. -1.
         25    2    1    2    0    0  0.21999900410E+03  0.78688922800E+02  0.47852667323E+02  0.26927012157E+03  0.12500004888E+03 0.  0.
          2    1    1    2  501    0 -0.17356429894E+03 -0.83310327108E+02 -0.46017939275E+02  0.19794652613E+03  0.00000000000E+00 0. -1.
          1    1    1    2  502    0 -0.46434705163E+02  0.46214043080E+01  0.27840044311E+04  0.27843954841E+04  0.00000000000E+00 0. -1.
         22    1    3    3    0    0  0.13099337132E+03  0.83604783084E+02 -0.20760825181E+02  0.15678021223E+03  0.00000000000E+00 0. -1.
         22    1    3    3    0    0  0.89005632788E+02 -0.49158602835E+01  0.68613492504E+02  0.11248990934E+03  0.00000000000E+00 0. -1.
</event>
<event>
 7    1  0.6507405E-006  0.3526316E+02  0.7818608E-02  0.1564039E+00
          2   -1    0    0  502    0  0.00000000000E+00  0.00000000000E+00  0.17375159709E+04  0.17375159709E+04  0.00000000000E+00 0. -1.
          1   -1    0    0  501    0 -0.00000000000E+00 -0.00000000000E+00 -0.29236852787E+03  0.29236852787E+03  0.00000000000E+00 0. -1.
         25    2    1    2    0    0  0.19843096060E+02  0.63082349442E+02  0.41705507068E+03  0.44037851150E+03  0.12500068054E+03 0.  0.
          2    1    1    2  501    0 -0.88583311811E+01 -0.30213600671E+02 -0.27959362841E+03  0.28136085148E+03  0.00000000000E+00 0. -1.
          1    1    1    2  502    0 -0.10984764879E+02 -0.32868748771E+02  0.13076860008E+04  0.13081451358E+04  0.00000000000E+00 0. -1.
         22    1    3    3    0    0 -0.47859892041E+02  0.47264472351E+02  0.26114435911E+03  0.26966808470E+03  0.00000000000E+00 0. -1.
         22    1    3    3    0    0  0.67702988101E+02  0.15817877091E+02  0.15591071158E+03  0.17071042680E+03  0.00000000000E+00 0. -1.
</event>
<event>
 7    1  0.6507405E-006  0.9750489E+02  0.7818608E-02  0.1354642E+00
          2   -1    0    0  502    0  0.00000000000E+00  0.00000000000E+00  0.15061946833E+04  0.15061946833E+04  0.00000000000E+00 0. -1.
          1   -1    0    0  501    0 -0.00000000000E+00 -0.00000000000E+00 -0.35930264991E+03  0.35930264991E+03  0.00000000000E+00 0. -1.
         25    2    1    2    0    0  0.29633394621E+02 -0.11159940623E+03 -0.22143340872E+03  0.27926827071E+03  0.12500178792E+03 0.  0.
          2    1    1    2  501    0 -0.50034039124E+02  0.16288922900E+02 -0.10088833458E+03  0.11378572025E+03  0.00000000000E+00 0. -1.
          1    1    1    2  502    0  0.20400644503E+02  0.95310483333E+02  0.14692137767E+04  0.14724433422E+04  0.00000000000E+00 0. -1.
         22    1    3    3    0    0 -0.36057181253E+02  0.13217177560E+01 -0.73703370809E+02  0.82061282749E+02  0.00000000000E+00 0. -1.
         22    1    3    3    0    0  0.65690575874E+02 -0.11292112399E+03 -0.14773003791E+03  0.19720698796E+03  0.00000000000E+00 0. -1.
</event>
<event>
 7    1  0.6507405E-006  0.3291611E+02  0.7818608E-02  0.1643373E+00
          2   -1    0    0  502    0  0.00000000000E+00  0.00000000000E+00  0.49278875634E+03  0.49278875634E+03  0.00000000000E+00 0. -1.
          1   -1    0    0  501    0 -0.00000000000E+00 -0.00000000000E+00 -0.95319847254E+02  0.95319847254E+02  0.00000000000E+00 0. -1.
         25    2    1    2    0    0 -0.90982246759E+00  0.36030512930E+02  0.76821674342E+02  0.15108103169E+03  0.12499953139E+03 0.  0.
          2    1    1    2  501    0  0.19630506641E+02 -0.26583196195E+02 -0.53180912699E+02  0.62611760767E+02  0.00000000000E+00 0. -1.
          1    1    1    2  502    0 -0.18720684174E+02 -0.94473167353E+01  0.37382814744E+03  0.37441581114E+03  0.00000000000E+00 0. -1.
         22    1    3    3    0    0 -0.16753880289E+00 -0.19111317310E+02  0.91935151635E+02  0.93900706199E+02  0.00000000000E+00 0.  1.
         22    1    3    3    0    0 -0.74228366470E+00  0.55141830240E+02 -0.15113477292E+02  0.57180325490E+02  0.00000000000E+00 0.  1.
</event>
<event>
 7    1  0.6507405E-006  0.1427636E+03  0.7818608E-02  0.1295760E+00
          2   -1    0    0  502    0  0.00000000000E+00  0.00000000000E+00  0.20210587335E+04  0.20210587335E+04  0.00000000000E+00 0. -1.
          1   -1    0    0  501    0 -0.00000000000E+00 -0.00000000000E+00 -0.13192494079E+04  0.13192494079E+04  0.00000000000E+00 0. -1.
         25    2    1    2    0    0  0.11050403059E+03 -0.94898553130E+02  0.62707797473E+03  0.65579415737E+03  0.12498925666E+03 0.  0.
          2    1    1    2  501    0 -0.48767298723E+02 -0.35930389365E+02 -0.13003920738E+04  0.13018021308E+04  0.00000000000E+00 0. -1.
          1    1    1    2  502    0 -0.61736731869E+02  0.13082894250E+03  0.13751234246E+04  0.13827118532E+04  0.00000000000E+00 0. -1.
         22    1    3    3    0    0  0.10635343913E+03 -0.12018923604E+03  0.58417332266E+03  0.60581761066E+03  0.00000000000E+00 0. -1.
         22    1    3    3    0    0  0.41505914661E+01  0.25290682913E+02  0.42904652072E+02  0.49976546711E+02  0.00000000000E+00 0. -1.
</event>
<event>
 7    1  0.6507405E-006  0.5967830E+02  0.7818608E-02  0.1519664E+00
          2   -1    0    0  502    0  0.00000000000E+00  0.00000000000E+00  0.76317497792E+02  0.76317497792E+02  0.00000000000E+00 0. -1.
          1   -1    0    0  501    0 -0.00000000000E+00 -0.00000000000E+00 -0.23698738964E+03  0.23698738964E+03  0.00000000000E+00 0. -1.
         25    2    1    2    0    0  0.48303438401E+02 -0.33265447195E+02 -0.30229054679E+02  0.14134610213E+03  0.12500045081E+03 0.  0.
          2    1    1    2  501    0  0.12669882591E+02  0.21340501846E+02 -0.99506913593E+02  0.10255519878E+03  0.00000000000E+00 0. -1.
          1    1    1    2  502    0 -0.60973320991E+02  0.11924945349E+02 -0.30933923578E+02  0.69403586523E+02  0.00000000000E+00 0. -1.
         22    1    3    3    0    0  0.19948071944E+02  0.39311660719E+02 -0.43925759081E+02  0.62231861242E+02  0.00000000000E+00 0.  1.
         22    1    3    3    0    0  0.28355366457E+02 -0.72577107915E+02  0.13696704403E+02  0.79114240890E+02  0.00000000000E+00 0.  1.
</event>
<event>
 7    1  0.6507405E-006  0.5901677E+02  0.7818608E-02  0.1462343E+00
          2   -1    0    0  502    0  0.00000000000E+00  0.00000000000E+00  0.17176445606E+03  0.17176445606E+03  0.00000000000E+00 0. -1.
          1   -1    0    0  501    0 -0.00000000000E+00 -0.00000000000E+00 -0.16254623404E+03  0.16254623404E+03  0.00000000000E+00 0. -1.
         25    2    1    2    0    0  0.14361431820E+02 -0.19544571233E+02 -0.62684020222E+02  0.14192297897E+03  0.12499841831E+03 0.  0.
          2    1    1    2  501    0  0.24891738306E+02 -0.27912099051E+02 -0.46050872954E+02  0.59324251442E+02  0.00000000000E+00 0. -1.
          1    1    1    2  502    0 -0.39253170126E+02  0.47456670284E+02  0.11795311519E+03  0.13306345969E+03  0.00000000000E+00 0. -1.
         22    1    3    3    0    0  0.27816000824E+01 -0.63143641286E+02  0.17950929673E+01  0.63230365274E+02  0.00000000000E+00 0. -1.
         22    1    3    3    0    0  0.11579831737E+02  0.43599070053E+02 -0.64479113190E+02  0.78692613696E+02  0.00000000000E+00 0. -1.
</event>
<event>
 7    1  0.6507405E-006  0.9215856E+02  0.7818608E-02  0.1329343E+00
          2   -1    0    0  502    0  0.00000000000E+00  0.00000000000E+00  0.64258940203E+03  0.64258940203E+03  0.00000000000E+00 0. -1.
          1   -1    0    0  501    0 -0.00000000000E+00 -0.00000000000E+00 -0.12416524650E+03  0.12416524650E+03  0.00000000000E+00 0. -1.
         25    2    1    2    0    0 -0.84220541970E+02 -0.35732165887E+01  0.28734267049E+03  0.32449506703E+03  0.12500148269E+03 0.  0.
          2    1    1    2  501    0  0.63657874941E+02  0.69717928043E+02 -0.79885535698E+02  0.12367139260E+03  0.00000000000E+00 0. -1.
          1    1    1    2  502    0  0.20562667029E+02 -0.66144711455E+02  0.31096702073E+03  0.31858818890E+03  0.00000000000E+00 0. -1.
         22    1    3    3    0    0 -0.61323244342E+02 -0.59825418643E+02  0.20496487730E+03  0.22214909844E+03  0.00000000000E+00 0. -1.
         22    1    3    3    0    0 -0.22897297628E+02  0.56252202054E+02  0.82377793193E+02  0.10234596859E+03  0.00000000000E+00 0. -1.
</event>
<event>
 7    1  0.6507405E-006  0.5634421E+02  0.7818608E-02  0.1462682E+00
          2   -1    0    0  502    0  0.00000000000E+00  0.00000000000E+00  0.45229164522E+03  0.45229164522E+03  0.00000000000E+00 0. -1.
          1   -1    0    0  501    0 -0.00000000000E+00 -0.00000000000E+00 -0.54454197931E+03  0.54454197931E+03  0.00000000000E+00 0. -1.
         25    2    1    2    0    0 -0.69157649477E+01 -0.18411075783E+02 -0.23681338758E+02  0.12874012542E+03  0.12500567416E+03 0.  0.
          2    1    1    2  501    0 -0.28583853137E+02 -0.26645540040E+02 -0.46545060605E+03  0.46708809462E+03  0.00000000000E+00 0. -1.
          1    1    1    2  502    0  0.35499618085E+02  0.45056615823E+02  0.39688161071E+03  0.40100540449E+03  0.00000000000E+00 0. -1.
         22    1    3    3    0    0 -0.15638871301E+02  0.10589181159E+02  0.47644582621E+02  0.51251451748E+02  0.00000000000E+00 0. -1.
         22    1    3    3    0    0  0.87231063535E+01 -0.29000256942E+02 -0.71325921378E+02  0.77488673673E+02  0.00000000000E+00 0. -1.
</event>
<event>
 7    1  0.6507405E-006  0.1978055E+03  0.7818608E-02  0.1313496E+00
          2   -1    0    0  502    0  0.00000000000E+00  0.00000000000E+00  0.21249576055E+04  0.21249576055E+04  0.00000000000E+00 0. -1.
          1   -1    0    0  501    0 -0.00000000000E+00 -0.00000000000E+00 -0.17711550372E+03  0.17711550372E+03  0.00000000000E+00 0. -1.
         25    2    1    2    0    0  0.17023988364E+03 -0.79622163440E+01  0.49711410737E+03  0.54017576189E+03  0.12498961203E+03 0.  0.
          2    1    1    2  501    0 -0.20095153631E+03 -0.12973452230E+02 -0.90109394835E+02  0.22061172554E+03  0.00000000000E+00 0. -1.
          1    1    1    2  502    0  0.30711652679E+02  0.20935668574E+02  0.15408373892E+04  0.15412856218E+04  0.00000000000E+00 0. -1.
         22    1    3    3    0    0 -0.34544550238E+00 -0.28771400372E+02  0.26312051738E+02  0.38990215166E+02  0.00000000000E+00 0.  1.
         22    1    3    3    0    0  0.17058532914E+03  0.20809184028E+02  0.47080205563E+03  0.50118554672E+03  0.00000000000E+00 0.  1.
</event>
<event>
 7    1  0.6507405E-006  0.5409123E+02  0.7818608E-02  0.1446213E+00
          2   -1    0    0  502    0  0.00000000000E+00  0.00000000000E+00  0.39009462297E+03  0.39009462297E+03  0.00000000000E+00 0. -1.
          1   -1    0    0  501    0 -0.00000000000E+00 -0.00000000000E+00 -0.55483685326E+03  0.55483685326E+03  0.00000000000E+00 0. -1.
         25    2    1    2    0    0 -0.19393938516E+02 -0.16246206933E+01  0.18670963381E+03  0.22551295926E+03  0.12496736851E+03 0.  0.
          2    1    1    2  501    0  0.35116570071E+02 -0.41520478182E+02 -0.53115986876E+03  0.53393626004E+03  0.00000000000E+00 0. -1.
          1    1    1    2  502    0 -0.15722631554E+02  0.43145098875E+02  0.17970800466E+03  0.18548225694E+03  0.00000000000E+00 0. -1.
         22    1    3    3    0    0  0.36620814976E+01  0.56340195944E+02  0.50710778159E+02  0.75889469240E+02  0.00000000000E+00 0. -1.
         22    1    3    3    0    0 -0.23056020014E+02 -0.57964816638E+02  0.13599885565E+03  0.14962349002E+03  0.00000000000E+00 0. -1.
</event>
<event>
 7    1  0.6507405E-006  0.1481882E+03  0.7818608E-02  0.1265171E+00
          2   -1    0    0  502    0  0.00000000000E+00  0.00000000000E+00  0.22224663019E+04  0.22224663019E+04  0.00000000000E+00 0. -1.
          1   -1    0    0  501    0 -0.00000000000E+00 -0.00000000000E+00 -0.97608412078E+02  0.97608412078E+02  0.00000000000E+00 0. -1.
         25    2    1    2    0    0 -0.39479988806E+02  0.10218646742E+03  0.31931772606E+03  0.35998554490E+03  0.12500015486E+03 0.  0.
          2    1    1    2  501    0 -0.78055805847E+02  0.74945538956E+00 -0.53411370244E+02  0.94583534408E+02  0.00000000000E+00 0. -1.
          1    1    1    2  502    0  0.11753579465E+03 -0.10293592281E+03  0.18589515340E+04  0.18655056347E+04  0.00000000000E+00 0. -1.
         22    1    3    3    0    0  0.30045675306E+01 -0.27538869253E+02  0.77463812848E+02  0.82268214073E+02  0.00000000000E+00 0. -1.
         22    1    3    3    0    0 -0.42484556336E+02  0.12972533667E+03  0.24185391322E+03  0.27771733082E+03  0.00000000000E+00 0. -1.
</event>
<event>
 7    1  0.6507405E-006  0.9035346E+02  0.7818608E-02  0.1410773E+00
          2   -1    0    0  502    0  0.00000000000E+00  0.00000000000E+00  0.31874442344E+04  0.31874442344E+04  0.00000000000E+00 0. -1.
          1   -1    0    0  501    0 -0.00000000000E+00 -0.00000000000E+00 -0.36642677287E+03  0.36642677287E+03  0.00000000000E+00 0. -1.
         25    2    1    2    0    0 -0.11117988930E+03  0.44480745395E+02 -0.72742583209E+02  0.18776634411E+03  0.12500084830E+03 0.  0.
          2    1    1    2  501    0  0.22457722120E+02 -0.28118553773E+02 -0.23414729288E+03  0.23689651140E+03  0.00000000000E+00 0. -1.
          1    1    1    2  502    0  0.88722167180E+02 -0.16362191622E+02  0.31279073376E+04  0.31292081517E+04  0.00000000000E+00 0. -1.
         22    1    3    3    0    0 -0.83072283977E+02 -0.30097137747E+02 -0.15658191350E+02  0.89733054233E+02  0.00000000000E+00 0. -1.
         22    1    3    3    0    0 -0.28107605323E+02  0.74577883142E+02 -0.57084391860E+02  0.98033289881E+02  0.00000000000E+00 0. -1.
</event>
<event>
 7    1  0.6507405E-006  0.6138943E+02  0.7818608E-02  0.1425338E+00
          2   -1    0    0  502    0  0.00000000000E+00  0.00000000000E+00  0.31577264527E+03  0.31577264527E+03  0.00000000000E+00 0. -1.
          1   -1    0    0  501    0 -0.00000000000E+00 -0.00000000000E+00 -0.19970499922E+04  0.19970499922E+04  0.00000000000E+00 0. -1.
         25    2    1    2    0    0 -0.27612571471E+01  0.20261367482E+02 -0.41117883650E+03  0.43024575447E+03  0.12500090441E+03 0.  0.
          2    1    1    2  501    0 -0.22405966152E+02 -0.60354051387E+02 -0.15738463717E+04  0.15751625442E+04  0.00000000000E+00 0. -1.
          1    1    1    2  502    0  0.25167223299E+02  0.40092683905E+02  0.30374786132E+03  0.30741433878E+03  0.00000000000E+00 0. -1.
         22    1    3    3    0    0  0.48798915589E+02 -0.20000140372E+02 -0.10927455796E+03  0.12133535674E+03  0.00000000000E+00 0. -1.
         22    1    3    3    0    0 -0.51560172736E+02  0.40261507854E+02 -0.30190427854E+03  0.30891039773E+03  0.00000000000E+00 0. -1.
</event>
<event>
 7    1  0.6507405E-006  0.5784094E+02  0.7818608E-02  0.1427765E+00
          2   -1    0    0  502    0  0.00000000000E+00  0.00000000000E+00  0.15562887717E+03  0.15562887717E+03  0.00000000000E+00 0. -1.
          1   -1    0    0  501    0 -0.00000000000E+00 -0.00000000000E+00 -0.74951435020E+03  0.74951435020E+03  0.00000000000E+00 0. -1.
         25    2    1    2    0    0 -0.34148955614E+02 -0.89540132251E+02 -0.48632553860E+03  0.51119202726E+03  0.12498469018E+03 0.  0.
          2    1    1    2  501    0  0.30338076204E+02  0.40366837794E+02 -0.24384374735E+03  0.24901737607E+03  0.00000000000E+00 0. -1.
          1    1    1    2  502    0  0.38108794108E+01  0.49173294457E+02  0.13628381292E+03  0.14493382405E+03  0.00000000000E+00 0. -1.
         22    1    3    3    0    0 -0.25114840172E+02  0.13713539100E+01 -0.11498659971E+02  0.27656011816E+02  0.00000000000E+00 0. -1.
         22    1    3    3    0    0 -0.90341154425E+01 -0.90911486161E+02 -0.47482687863E+03  0.48353601544E+03  0.00000000000E+00 0. -1.
</event>
<event>
 7    1  0.6507405E-006  0.9665143E+02  0.7818608E-02  0.1332265E+00
          2   -1    0    0  502    0  0.00000000000E+00  0.00000000000E+00  0.10290391999E+04  0.10290391999E+04  0.00000000000E+00 0. -1.
          1   -1    0    0  501    0 -0.00000000000E+00 -0.00000000000E+00 -0.27248503991E+03  0.27248503991E+03  0.00000000000E+00 0. -1.
         25    2    1    2    0    0 -0.74806902557E+01 -0.10452752751E+03  0.11755325104E+03  0.20106310428E+03  0.12500256133E+03 0.  0.
          2    1    1    2  501    0  0.63893783496E+02  0.73519403258E+02 -0.21919075634E+03  0.23985851223E+03  0.00000000000E+00 0. -1.
          1    1    1    2  502    0 -0.56413093240E+02  0.31008124249E+02  0.85819166533E+03  0.86060262334E+03  0.00000000000E+00 0. -1.
         22    1    3    3    0    0 -0.27197314807E+02 -0.26543135924E+02  0.11441761502E+03  0.12056376995E+03  0.00000000000E+00 0. -1.
         22    1    3    3    0    0  0.19716624551E+02 -0.77984391583E+02  0.31356360219E+01  0.80499334330E+02  0.00000000000E+00 0. -1.
</event>
<event>
 7    1  0.6507405E-006  0.2669283E+03  0.7818608E-02  0.1148148E+00
          2   -1    0    0  502    0  0.00000000000E+00  0.00000000000E+00  0.21751600774E+04  0.21751600774E+04  0.00000000000E+00 0. -1.
          1   -1    0    0  501    0 -0.00000000000E+00 -0.00000000000E+00 -0.23799780246E+04  0.23799780246E+04  0.00000000000E+00 0. -1.
         25    2    1    2    0    0  0.31049907674E+02 -0.38909698303E+03 -0.77228440088E+03  0.87430521158E+03  0.12500339271E+03 0.  0.
          2    1    1    2  501    0 -0.54331147983E+02  0.23817293151E+03 -0.15443249190E+04  0.15635273180E+04  0.00000000000E+00 0. -1.
          1    1    1    2  502    0  0.23281240309E+02  0.15092405153E+03  0.21117913726E+04  0.21173055724E+04  0.00000000000E+00 0. -1.
         22    1    3    3    0    0  0.52660612395E+02 -0.59175425254E+02 -0.14598270104E+03  0.16608979515E+03  0.00000000000E+00 0. -1.
         22    1    3    3    0    0 -0.21610704721E+02 -0.32992155778E+03 -0.62630169984E+03  0.70821541643E+03  0.00000000000E+00 0. -1.
</event>
<event>
 7    1  0.6507405E-006  0.1273529E+03  0.7818608E-02  0.1441597E+00
          2   -1    0    0  502    0  0.00000000000E+00  0.00000000000E+00  0.24181200671E+04  0.24181200671E+04  0.00000000000E+00 0. -1.
          1   -1    0    0  501    0 -0.00000000000E+00 -0.00000000000E+00 -0.12164052697E+03  0.12164052697E+03  0.00000000000E+00 0. -1.
         25    2    1    2    0    0  0.32924531415E+02 -0.12664365064E+03  0.10815096813E+04  0.10965445066E+04  0.12499610122E+03 0.  0.
          2    1    1    2  501    0 -0.20164525524E+02  0.90249130061E+00 -0.11019976748E+03  0.11203308142E+03  0.00000000000E+00 0. -1.
          1    1    1    2  502    0 -0.12760005892E+02  0.12574115934E+03  0.13251696264E+04  0.13311830060E+04  0.00000000000E+00 0. -1.
         22    1    3    3    0    0  0.38045442725E+02 -0.11284145609E+03  0.10729037254E+04  0.10794920352E+04  0.00000000000E+00 0. -1.
         22    1    3    3    0    0 -0.51209113100E+01 -0.13802194560E+02  0.86059558326E+01  0.17052471466E+02  0.00000000000E+00 0. -1.
</event>
<event>
 7    1  0.6507405E-006  0.3704382E+02  0.7818608E-02  0.1579622E+00
          2   -1    0    0  502    0  0.00000000000E+00  0.00000000000E+00  0.75882294903E+03  0.75882294903E+03  0.00000000000E+00 0. -1.
          1   -1    0    0  501    0 -0.00000000000E+00 -0.00000000000E+00 -0.52968516160E+03  0.52968516160E+03  0.00000000000E+00 0. -1.
         25    2    1    2    0    0 -0.56086300999E+02  0.30684937641E+02  0.88445919245E+02  0.16590997985E+03  0.12496480394E+03 0.  0.
          2    1    1    2  501    0  0.31234388345E+02 -0.19643331908E+02 -0.48996642608E+03  0.49135378923E+03  0.00000000000E+00 0. -1.
          1    1    1    2  502    0  0.24851912654E+02 -0.11041605733E+02  0.63065829426E+03  0.63124434155E+03  0.00000000000E+00 0. -1.
         22    1    3    3    0    0 -0.26163912146E+01  0.18483443207E+02  0.10653599474E+03  0.10815914825E+03  0.00000000000E+00 0. -1.
         22    1    3    3    0    0 -0.53469909785E+02  0.12201494434E+02 -0.18090075492E+02  0.57750831597E+02  0.00000000000E+00 0. -1.
</event>
<event>
 7    1  0.6507405E-006  0.6135156E+02  0.7818608E-02  0.1479590E+00
          2   -1    0    0  502    0  0.00000000000E+00  0.00000000000E+00  0.63893731690E+03  0.63893731690E+03  0.00000000000E+00 0. -1.
          1   -1    0    0  501    0 -0.00000000000E+00 -0.00000000000E+00 -0.10023621144E+04  0.10023621144E+04  0.00000000000E+00 0. -1.
         25    2    1    2    0    0 -0.77001764682E+02 -0.46338414940E+02  0.13697759904E+03  0.20607000231E+03  0.12500185099E+03 0.  0.
          2    1    1    2  501    0  0.30627856324E+02  0.85555100192E+01 -0.96563933010E+03  0.96616281142E+03  0.00000000000E+00 0. -1.
          1    1    1    2  502    0  0.46373908359E+02  0.37782904921E+02  0.46523693360E+03  0.46906661752E+03  0.00000000000E+00 0. -1.
         22    1    3    3    0    0 -0.85095332653E+02  0.16650808611E+02  0.56249829413E+02  0.10335622079E+03  0.00000000000E+00 0. -1.
         22    1    3    3    0    0  0.80935679705E+01 -0.62989223551E+02  0.80727769629E+02  0.10271378153E+03  0.00000000000E+00 0. -1.
</event>
<event>
 7    1  0.6507405E-006  0.6348344E+02  0.7818608E-02  0.1425646E+00
          2   -1    0    0  502    0  0.00000000000E+00  0.00000000000E+00  0.27607270575E+04  0.27607270575E+04  0.00000000000E+00 0. -1.
          1   -1    0    0  501    0 -0.00000000000E+00 -0.00000000000E+00 -0.84152667585E+02  0.84152667585E+02  0.00000000000E+00 0. -1.
         25    2    1    2    0    0 -0.50861021253E+02 -0.44288217053E+02  0.68134864339E+03  0.69599495126E+03  0.12499883472E+03 0.  0.
          2    1    1    2  501    0  0.63712929968E+02  0.46562086659E+00 -0.63322955278E+02  0.89829565919E+02  0.00000000000E+00 0. -1.
          1    1    1    2  502    0 -0.12851908715E+02  0.43822596186E+02  0.20585487018E+04  0.20590552079E+04  0.00000000000E+00 0. -1.
         22    1    3    3    0    0  0.15707711029E+02 -0.67849486236E+02  0.28357082140E+03  0.29199776663E+03  0.00000000000E+00 0. -1.
         22    1    3    3    0    0 -0.66568732282E+02  0.23561269183E+02  0.39777782200E+03  0.40399718464E+03  0.00000000000E+00 0. -1.
</event>
<event>
 7    1  0.6507405E-006  0.8195580E+02  0.7818608E-02  0.1326905E+00
          2   -1    0    0  502    0  0.00000000000E+00  0.00000000000E+00  0.78085018185E+03  0.78085018185E+03  0.00000000000E+00 0. -1.
          1   -1    0    0  501    0 -0.00000000000E+00 -0.00000000000E+00 -0.33098108873E+03  0.33098108873E+03  0.00000000000E+00 0. -1.
         25    2    1    2    0    0  0.45893933457E+02 -0.98125242997E+02  0.29623804278E+02  0.16802673514E+03  0.12498238876E+03 0.  0.
          2    1    1    2  501    0 -0.78298700162E+02  0.25437370451E+02 -0.25290431896E+03  0.26596680397E+03  0.00000000000E+00 0. -1.
          1    1    1    2  502    0  0.32404766705E+02  0.72687872546E+02  0.67314960780E+03  0.67783773147E+03  0.00000000000E+00 0. -1.
         22    1    3    3    0    0 -0.32704279683E+02 -0.70302324737E+02  0.33712964718E+02  0.84549102675E+02  0.00000000000E+00 0.  1.
         22    1    3    3    0    0  0.78598213140E+02 -0.27822918260E+02 -0.40891604401E+01  0.83477632468E+02  0.00000000000E+00 0.  1.
</event>
<event>
 7    1  0.6507405E-006  0.1088432E+03  0.7818608E-02  0.1294075E+00
          2   -1    0    0  502    0  0.00000000000E+00  0.00000000000E+00  0.23456707007E+04  0.23456707007E+04  0.00000000000E+00 0. -1.
          1   -1    0    0  501    0 -0.00000000000E+00 -0.00000000000E+00 -0.37038279229E+03  0.37038279229E+03  0.00000000000E+00 0. -1.
         25    2    1    2    0    0 -0.93815091522E+02  0.15281801240E+03  0.83278315716E+03  0.86099202905E+03  0.12499948372E+03 0.  0.
          2    1    1    2  501    0  0.52841210566E+02 -0.61002140181E+02 -0.34999468757E+03  0.35917925326E+03  0.00000000000E+00 0. -1.
          1    1    1    2  502    0  0.40973880956E+02 -0.91815872223E+02  0.14924994389E+04  0.14958822107E+04  0.00000000000E+00 0. -1.
         22    1    3    3    0    0  0.28557945664E+02  0.37289093760E+02  0.25101648449E+03  0.25537288083E+03  0.00000000000E+00 0.  1.
         22    1    3    3    0    0 -0.12237303719E+03  0.11552891864E+03  0.58176667267E+03  0.60561914823E+03  0.00000000000E+00 0.  1.
</event>
<event>
 7    1  0.6507405E-006  0.1406356E+03  0.7818608E-02  0.1344934E+00
          2   -1    0    0  502    0  0.00000000000E+00  0.00000000000E+00  0.11835696548E+04  0.11835696548E+04  0.00000000000E+00 0. -1.
          1   -1    0    0  501    0 -0.00000000000E+00 -0.00000000000E+00 -0.74270181707E+02  0.74270181707E+02  0.00000000000E+00 0. -1.
         25    2    1    2    0    0 -0.36639163220E+02 -0.98300945665E+02  0.95463371966E+02  0.18905867020E+03  0.12499768474E+03 0.  0.
          2    1    1    2  501    0 -0.14790913535E+02 -0.36769302834E+02 -0.48183642961E+01  0.39924546192E+02  0.00000000000E+00 0. -1.
          1    1    1    2  502    0  0.51430076756E+02  0.13507024850E+03  0.10186544655E+04  0.10288566202E+04  0.00000000000E+00 0. -1.
         22    1    3    3    0    0 -0.47262883832E+02 -0.10924661610E+03  0.31260071847E+02  0.12306825509E+03  0.00000000000E+00 0. -1.
         22    1    3    3    0    0  0.10623720611E+02  0.10945670438E+02  0.64203300118E+02  0.65990415115E+02  0.00000000000E+00 0. -1.
</event>
