<event>
 7    1  0.6255318E-006  0.1256985E+03  0.7818608E-02  0.1395369E+00
          2   -1    0    0  502    0  0.00000000000E+00  0.00000000000E+00  0.25872317894E+04  0.25872317894E+04  0.00000000000E+00 0. -1.
          1   -1    0    0  501    0 -0.00000000000E+00 -0.00000000000E+00 -0.20230439421E+04  0.20230439421E+04  0.00000000000E+00 0. -1.
         25    2    1    2    0    0  0.10292172251E+03 -0.10315967159E+03 -0.73296071774E+02  0.20550741989E+03  0.12500474664E+03 0.  0.
          2    1    1    2  501    0 -0.15637511146E+01  0.29164801097E+02 -0.18819671454E+04  0.18821937646E+04  0.00000000000E+00 0. -1.
          1    1    1    2  502    0 -0.10135797140E+03  0.73994870496E+02  0.25194510644E+04  0.25225745470E+04  0.00000000000E+00 0. -1.
         22    1    3    3    0    0  0.77729778931E+02 -0.10443359173E+03 -0.23458451960E+01  0.13020674562E+03  0.00000000000E+00 0.  1.
         22    1    3    3    0    0  0.25191943582E+02  0.12739201410E+01 -0.70950226578E+02  0.75300674269E+02  0.00000000000E+00 0.  1.
</event>
<event>
 7    1  0.1361659E-005  0.5316453E+02  0.7818608E-02  0.1474595E+00
          2   -1    0    0  502    0  0.00000000000E+00  0.00000000000E+00  0.86401114606E+03  0.86401114606E+03  0.00000000000E+00 0. -1.
          1   -1    0    0  501    0 -0.00000000000E+00 -0.00000000000E+00 -0.22610287926E+04  0.22610287926E+04  0.00000000000E+00 0. -1.
         25    2    1    2    0    0  0.66460733171E+02 -0.32869960943E+02 -0.11371835429E+04  0.11464332121E+04  0.12500094556E+03 0.  0.
          2    1    1    2  501    0 -0.13374185808E+02  0.35590668840E+02 -0.11180749960E+04  0.11187212616E+04  0.00000000000E+00 0. -1.
          1    1    1    2  502    0 -0.53086547364E+02 -0.27207078970E+01  0.85824089223E+03  0.85988546496E+03  0.00000000000E+00 0. -1.
         22    1    3    3    0    0  0.40636121059E+02 -0.45430137228E+02 -0.20652606037E+03  0.21533277808E+03  0.00000000000E+00 0. -1.
         22    1    3    3    0    0  0.25824612112E+02  0.12560176284E+02 -0.93065748248E+03  0.93110043407E+03  0.00000000000E+00 0. -1.
</event>
<event>
 7    1  0.6255318E-006  0.1117845E+03  0.7818608E-02  0.1273801E+00
          2   -1    0    0  502    0  0.00000000000E+00  0.00000000000E+00  0.32726303762E+04  0.32726303762E+04  0.00000000000E+00 0. -1.
          1   -1    0    0  501    0 -0.00000000000E+00 -0.00000000000E+00 -0.47128803019E+02  0.47128803019E+02  0.00000000000E+00 0. -1.
         25    2    1    2    0    0 -0.10708746385E+03 -0.83543580121E+02  0.57925276288E+03  0.60795245256E+03  0.12500066633E+03 0.  0.
          2    1    1    2  501    0  0.90980068057E+02 -0.27991314961E+02  0.40210982765E+02  0.10333348747E+03  0.00000000000E+00 0. -1.
          1    1    1    2  502    0  0.16107395790E+02  0.11153489508E+03  0.26060378275E+04  0.26084732392E+04  0.00000000000E+00 0. -1.
         22    1    3    3    0    0 -0.13482236065E+03 -0.74597296664E+02  0.45709602125E+03  0.48236770024E+03  0.00000000000E+00 0.  1.
         22    1    3    3    0    0  0.27734896804E+02 -0.89462834570E+01  0.12215674163E+03  0.12558475232E+03  0.00000000000E+00 0.  1.
</event>
<event>
 7    1  0.6255318E-006  0.7978775E+02  0.7818608E-02  0.1345169E+00
          2   -1    0    0  502    0  0.00000000000E+00  0.00000000000E+00  0.30145988689E+03  0.30145988689E+03  0.00000000000E+00 0. -1.
          1   -1    0    0  501    0 -0.00000000000E+00 -0.00000000000E+00 -0.31833571765E+03  0.31833571765E+03  0.00000000000E+00 0. -1.
         25    2    1    2    0    0  0.13408437261E+03  0.21302443031E+02  0.43814391547E+02  0.18967629541E+03  0.12499993230E+03 0.  0.
          2    1    1    2  501    0 -0.75474186308E+02  0.16449834071E+02 -0.23234391866E+03  0.24484821090E+03  0.00000000000E+00 0. -1.
          1    1    1    2  502    0 -0.58610186307E+02 -0.37752277102E+02  0.17165369636E+03  0.18527109823E+03  0.00000000000E+00 0. -1.
         22    1    3    3    0    0  0.14742314201E+03  0.66893716730E+01  0.64497559376E+02  0.16105361114E+03  0.00000000000E+00 0.  1.
         22    1    3    3    0    0 -0.13338769399E+02  0.14613071358E+02 -0.20683167829E+02  0.28622684274E+02  0.00000000000E+00 0.  1.
</event>
<event>
 7    1  0.6255318E-006  0.2332631E+03  0.7818608E-02  0.1313812E+00
          2   -1    0    0  502    0  0.00000000000E+00  0.00000000000E+00  0.25171772202E+04  0.25171772202E+04  0.00000000000E+00 0. -1.
          1   -1    0    0  501    0 -0.00000000000E+00 -0.00000000000E+00 -0.43858900462E+03  0.43858900462E+03  0.00000000000E+00 0. -1.
         25    2    1    2    0    0 -0.17254706728E+03  0.17711743685E+03  0.42218760692E+03  0.50498544190E+03  0.12499937693E+03 0.  0.
          2    1    1    2  501    0  0.18022754287E+03 -0.14664126883E+03 -0.36307763006E+03  0.43105799422E+03  0.00000000000E+00 0. -1.
          1    1    1    2  502    0 -0.76804755868E+01 -0.30476168018E+02  0.20194782388E+04  0.20197227887E+04  0.00000000000E+00 0. -1.
         22    1    3    3    0    0 -0.66339796743E+02  0.67628675161E+01  0.17027260028E+03  0.18286460405E+03  0.00000000000E+00 0. -1.
         22    1    3    3    0    0 -0.10620727054E+03  0.17035456933E+03  0.25191500664E+03  0.32212083786E+03  0.00000000000E+00 0. -1.
</event>
<event>
 7    1  0.6255318E-006  0.2599805E+03  0.7818608E-02  0.1269245E+00
          2   -1    0    0  502    0  0.00000000000E+00  0.00000000000E+00  0.28389925785E+04  0.28389925785E+04  0.00000000000E+00 0. -1.
          1   -1    0    0  501    0 -0.00000000000E+00 -0.00000000000E+00 -0.71715256408E+03  0.71715256408E+03  0.00000000000E+00 0. -1.
         25    2    1    2    0    0  0.71371683276E+02 -0.22234238589E+03  0.97392042191E+03  0.10092957375E+04  0.12500737461E+03 0.  0.
          2    1    1    2  501    0  0.21718219334E+02 -0.36842300818E+02 -0.68853426566E+03  0.68986119703E+03  0.00000000000E+00 0. -1.
          1    1    1    2  502    0 -0.93089902610E+02  0.25918468671E+03  0.18364538582E+04  0.18569882081E+04  0.00000000000E+00 0. -1.
         22    1    3    3    0    0 -0.20188522058E+02 -0.44311277200E+02  0.83619726382E+02  0.96764272075E+02  0.00000000000E+00 0. -1.
         22    1    3    3    0    0  0.91560205333E+02 -0.17803110869E+03  0.89030069553E+03  0.91253146539E+03  0.00000000000E+00 0. -1.
</event>
<event>
 7    1  0.6255318E-006  0.3808470E+02  0.7818608E-02  0.1625088E+00
          2   -1    0    0  502    0  0.00000000000E+00  0.00000000000E+00  0.71838779405E+03  0.71838779405E+03  0.00000000000E+00 0. -1.
          1   -1    0    0  501    0 -0.00000000000E+00 -0.00000000000E+00 -0.25470970342E+02  0.25470970342E+02  0.00000000000E+00 0. -1.
         25    2    1    2    0    0 -0.52611491975E+02  0.16110126229E+02  0.35953658780E+03  0.38460202394E+03  0.12499861437E+03 0.  0.
          2    1    1    2  501    0  0.32522055033E+02 -0.17485055425E+02  0.14386455185E+02  0.39628037039E+02  0.00000000000E+00 0. -1.
          1    1    1    2  502    0  0.20089436943E+02  0.13749291963E+01  0.31899378072E+03  0.31962870341E+03  0.00000000000E+00 0. -1.
         22    1    3    3    0    0  0.27016434232E+02  0.42002104079E+02  0.17443059547E+03  0.18143896247E+03  0.00000000000E+00 0.  1.
         22    1    3    3    0    0 -0.79627926207E+02 -0.25891977850E+02  0.18510599233E+03  0.20316306147E+03  0.00000000000E+00 0.  1.
</event>
<event>
 7    1  0.6255318E-006  0.4079826E+02  0.7818608E-02  0.1502601E+00
          2   -1    0    0  502    0  0.00000000000E+00  0.00000000000E+00  0.12685430080E+04  0.12685430080E+04  0.00000000000E+00 0. -1.
          1   -1    0    0  501    0 -0.00000000000E+00 -0.00000000000E+00 -0.24833549019E+03  0.24833549019E+03  0.00000000000E+00 0. -1.
         25    2    1    2    0    0  0.42990465714E+02  0.28976905593E+02  0.22600866721E+03  0.26342623245E+03  0.12500248433E+03 0.  0.
          2    1    1    2  501    0 -0.39109581878E+02  0.11636353103E+02 -0.22740363910E+03  0.23103545006E+03  0.00000000000E+00 0. -1.
          1    1    1    2  502    0 -0.38808838352E+01 -0.40613258696E+02  0.10216024897E+04  0.10224168157E+04  0.00000000000E+00 0. -1.
         22    1    3    3    0    0 -0.76198202047E+01  0.25704296946E+02 -0.46914454255E+01  0.27217314372E+02  0.00000000000E+00 0.  1.
         22    1    3    3    0    0  0.50610285918E+02  0.32726086470E+01  0.23070011264E+03  0.23620891808E+03  0.00000000000E+00 0.  1.
</event>
<event>
 7    1  0.6255318E-006  0.6502237E+02  0.7818608E-02  0.1410740E+00
          2   -1    0    0  502    0  0.00000000000E+00  0.00000000000E+00  0.36646768497E+03  0.36646768497E+03  0.00000000000E+00 0. -1.
          1   -1    0    0  501    0 -0.00000000000E+00 -0.00000000000E+00 -0.82360878640E+03  0.82360878640E+03  0.00000000000E+00 0. -1.
         25    2    1    2    0    0 -0.91009689416E+02 -0.62470523505E+02  0.98127296262E+02  0.19349322899E+03  0.12500133407E+03 0.  0.
          2    1    1    2  501    0  0.37520696288E+02  0.33075946502E+02 -0.77087928814E+03  0.77250028982E+03  0.00000000000E+00 0. -1.
          1    1    1    2  502    0  0.53488993129E+02  0.29394577003E+02  0.21561089045E+03  0.22408295255E+03  0.00000000000E+00 0. -1.
         22    1    3    3    0    0  0.89648209641E+01 -0.62224275946E+02  0.18063053655E+02  0.65410262492E+02  0.00000000000E+00 0.  1.
         22    1    3    3    0    0 -0.99974510380E+02 -0.24624755921E+00  0.80064242606E+02  0.12808296650E+03  0.00000000000E+00 0.  1.
</event>
<event>
 7    1  0.6255318E-006  0.2693504E+03  0.7818608E-02  0.1148790E+00
          2   -1    0    0  502    0  0.00000000000E+00  0.00000000000E+00  0.28672964915E+04  0.28672964915E+04  0.00000000000E+00 0. -1.
          1   -1    0    0  501    0 -0.00000000000E+00 -0.00000000000E+00 -0.15052320638E+04  0.15052320638E+04  0.00000000000E+00 0. -1.
         25    2    1    2    0    0 -0.36499568089E+03 -0.84838774737E+02 -0.17426624261E+03  0.43175350271E+03  0.12499159582E+03 0.  0.
          2    1    1    2  501    0  0.22279432321E+03  0.13315922712E+03 -0.11861190991E+04  0.12141858208E+04  0.00000000000E+00 0. -1.
          1    1    1    2  502    0  0.14220135768E+03 -0.48320452383E+02  0.27224497694E+04  0.27265892318E+04  0.00000000000E+00 0. -1.
         22    1    3    3    0    0 -0.34031809134E+03 -0.11084863916E+03 -0.14800258375E+03  0.38730942268E+03  0.00000000000E+00 0.  1.
         22    1    3    3    0    0 -0.24677589547E+02  0.26009864428E+02 -0.26263658855E+02  0.44444080032E+02  0.00000000000E+00 0.  1.
</event>
<event>
 7    1  0.6255318E-006  0.7436769E+02  0.7818608E-02  0.1431250E+00
          2   -1    0    0  502    0  0.00000000000E+00  0.00000000000E+00  0.15013644884E+03  0.15013644884E+03  0.00000000000E+00 0. -1.
          1   -1    0    0  501    0 -0.00000000000E+00 -0.00000000000E+00 -0.11988242550E+04  0.11988242550E+04  0.00000000000E+00 0. -1.
         25    2    1    2    0    0 -0.26822976755E+01  0.43179233010E+02 -0.13063871585E+03  0.18591023191E+03  0.12499799744E+03 0.  0.
          2    1    1    2  501    0 -0.18946831595E+02 -0.73640888328E+02 -0.10362755841E+04  0.10390616195E+04  0.00000000000E+00 0. -1.
          1    1    1    2  502    0  0.21629129270E+02  0.30461655318E+02  0.11822649384E+03  0.12398885241E+03  0.00000000000E+00 0. -1.
         22    1    3    3    0    0  0.59745439893E+01 -0.36931350107E+02 -0.86022629880E+02  0.93805717566E+02  0.00000000000E+00 0. -1.
         22    1    3    3    0    0 -0.86568416649E+01  0.80110583117E+02 -0.44616085974E+02  0.92104514344E+02  0.00000000000E+00 0. -1.
</event>
<event>
 7    1  0.6255318E-006  0.4292977E+02  0.7818608E-02  0.1510163E+00
          2   -1    0    0  502    0  0.00000000000E+00  0.00000000000E+00  0.47478038829E+03  0.47478038829E+03  0.00000000000E+00 0. -1.
          1   -1    0    0  501    0 -0.00000000000E+00 -0.00000000000E+00 -0.24567022738E+02  0.24567022738E+02  0.00000000000E+00 0. -1.
         25    2    1    2    0    0  0.50829806754E+02  0.17607211490E+02  0.28475190463E+03  0.31559446628E+03  0.12499014684E+03 0.  0.
          2    1    1    2  501    0 -0.39125556094E+02  0.17260683548E+02  0.97808716249E+02  0.10674870168E+03  0.00000000000E+00 0. -1.
          1    1    1    2  502    0 -0.11704250659E+02 -0.34867895038E+02  0.67652744674E+02  0.77004243064E+02  0.00000000000E+00 0. -1.
         22    1    3    3    0    0  0.31670561025E+01  0.63451534861E+02  0.91923682644E+02  0.11174117840E+03  0.00000000000E+00 0.  1.
         22    1    3    3    0    0  0.47662750651E+02 -0.45844323371E+02  0.19282822198E+03  0.20385328788E+03  0.00000000000E+00 0.  1.
</event>
<event>
 7    1  0.6255318E-006  0.4560804E+02  0.7818608E-02  0.1481965E+00
          2   -1    0    0  502    0  0.00000000000E+00  0.00000000000E+00  0.23117758851E+04  0.23117758851E+04  0.00000000000E+00 0. -1.
          1   -1    0    0  501    0 -0.00000000000E+00 -0.00000000000E+00 -0.65445643140E+02  0.65445643140E+02  0.00000000000E+00 0. -1.
         25    2    1    2    0    0  0.10895919153E+02  0.60939181522E+01  0.17721090754E+03  0.21722163780E+03  0.12500270912E+03 0.  0.
          2    1    1    2  501    0 -0.53370715702E+01 -0.47791570531E+02 -0.32447735726E+02  0.58011844485E+02  0.00000000000E+00 0. -1.
          1    1    1    2  502    0 -0.55588475825E+01  0.41697652379E+02  0.21015670701E+04  0.21019880459E+04  0.00000000000E+00 0. -1.
         22    1    3    3    0    0  0.46000359881E+02  0.67000275735E+00  0.17574901847E+03  0.18167057964E+03  0.00000000000E+00 0.  1.
         22    1    3    3    0    0 -0.35104440728E+02  0.54239153948E+01  0.14618890703E+01  0.35551058166E+02  0.00000000000E+00 0.  1.
</event>
<event>
 7    1  0.6255318E-006  0.7377047E+02  0.7818608E-02  0.1395707E+00
          2   -1    0    0  502    0  0.00000000000E+00  0.00000000000E+00  0.35131573995E+03  0.35131573995E+03  0.00000000000E+00 0. -1.
          1   -1    0    0  501    0 -0.00000000000E+00 -0.00000000000E+00 -0.76904437627E+02  0.76904437627E+02  0.00000000000E+00 0. -1.
         25    2    1    2    0    0  0.37904311628E+02 -0.96511255139E+01  0.10501971682E+03  0.16788036406E+03  0.12499917861E+03 0.  0.
          2    1    1    2  501    0  0.31240673849E+02 -0.38566187552E+02 -0.19630379883E+02  0.53373048809E+02  0.00000000000E+00 0. -1.
          1    1    1    2  502    0 -0.69144985477E+02  0.48217313066E+02  0.18902196539E+03  0.20696676471E+03  0.00000000000E+00 0. -1.
         22    1    3    3    0    0 -0.96501422659E+01 -0.77495248927E+01  0.11792223046E+03  0.11856994905E+03  0.00000000000E+00 0. -1.
         22    1    3    3    0    0  0.47554453893E+02 -0.19016006212E+01 -0.12902513638E+02  0.49310415008E+02  0.00000000000E+00 0. -1.
</event>
<event>
 7    1  0.6255318E-006  0.8112055E+02  0.7818608E-02  0.1435569E+00
          2   -1    0    0  502    0  0.00000000000E+00  0.00000000000E+00  0.11793903850E+04  0.11793903850E+04  0.00000000000E+00 0. -1.
          1   -1    0    0  501    0 -0.00000000000E+00 -0.00000000000E+00 -0.20988871479E+03  0.20988871479E+03  0.00000000000E+00 0. -1.
         25    2    1    2    0    0 -0.85980212746E+02 -0.70489076904E+02  0.12041687677E+03  0.20612140047E+03  0.12499800228E+03 0.  0.
          2    1    1    2  501    0  0.30637803857E+02  0.12663205933E+02 -0.16379703633E+03  0.16711822438E+03  0.00000000000E+00 0. -1.
          1    1    1    2  502    0  0.55342408889E+02  0.57825870971E+02  0.10128818298E+04  0.10160394750E+04  0.00000000000E+00 0. -1.
         22    1    3    3    0    0 -0.28342234122E+01  0.24643849284E+02  0.62284560142E+02  0.67042662253E+02  0.00000000000E+00 0. -1.
         22    1    3    3    0    0 -0.83145989334E+02 -0.95132926188E+02  0.58132316626E+02  0.13907873822E+03  0.00000000000E+00 0. -1.
</event>
<event>
 7    1  0.6255318E-006  0.7442672E+02  0.7818608E-02  0.1437735E+00
          2   -1    0    0  502    0  0.00000000000E+00  0.00000000000E+00  0.71856612625E+03  0.71856612625E+03  0.00000000000E+00 0. -1.
          1   -1    0    0  501    0 -0.00000000000E+00 -0.00000000000E+00 -0.22702515230E+04  0.22702515230E+04  0.00000000000E+00 0. -1.
         25    2    1    2    0    0 -0.80312865329E+02 -0.34441030637E+02  0.37737502904E+02  0.15711494726E+03  0.12499858638E+03 0.  0.
          2    1    1    2  501    0  0.50834555373E+02  0.54311868733E+02 -0.22094276225E+04  0.22106796127E+04  0.00000000000E+00 0. -1.
          1    1    1    2  502    0  0.29478309956E+02 -0.19870838095E+02  0.62000472288E+03  0.62102308923E+03  0.00000000000E+00 0. -1.
         22    1    3    3    0    0 -0.54752717308E+02  0.95208322880E+00 -0.40097748299E+02  0.67871908281E+02  0.00000000000E+00 0.  1.
         22    1    3    3    0    0 -0.25560148021E+02 -0.35393113866E+02  0.77835251202E+02  0.89243038976E+02  0.00000000000E+00 0.  1.
</event>
<event>
 7    1  0.6255318E-006  0.7778419E+02  0.7818608E-02  0.1510243E+00
          2   -1    0    0  502    0  0.00000000000E+00  0.00000000000E+00  0.23049531527E+04  0.23049531527E+04  0.00000000000E+00 0. -1.
          1   -1    0    0  501    0 -0.00000000000E+00 -0.00000000000E+00 -0.26754255340E+03  0.26754255340E+03  0.00000000000E+00 0. -1.
         25    2    1    2    0    0  0.68383659933E+02  0.65242991025E+02  0.11172354987E+04  0.11281734175E+04  0.12500851002E+03 0.  0.
          2    1    1    2  501    0 -0.62818629332E+02 -0.45733021055E+02 -0.25622466938E+03  0.26774758749E+03  0.00000000000E+00 0. -1.
          1    1    1    2  502    0 -0.55650306009E+01 -0.19509969970E+02  0.11763997699E+04  0.11765747011E+04  0.00000000000E+00 0. -1.
         22    1    3    3    0    0  0.66090768493E+02  0.91301208666E+02  0.10499401594E+04  0.10559726505E+04  0.00000000000E+00 0. -1.
         22    1    3    3    0    0  0.22928914398E+01 -0.26058217641E+02  0.67295339367E+02  0.72200767021E+02  0.00000000000E+00 0. -1.
</event>
<event>
 7    1  0.1083758E-005  0.3868323E+02  0.7818608E-02  0.1603530E+00
          2   -1    0    0  502    0  0.00000000000E+00  0.00000000000E+00  0.19965117959E+04  0.19965117959E+04  0.00000000000E+00 0. -1.
          1   -1    0    0  501    0 -0.00000000000E+00 -0.00000000000E+00 -0.89511898452E+03  0.89511898452E+03  0.00000000000E+00 0. -1.
         25    2    1    2    0    0  0.15702245750E+01  0.60015819201E+02 -0.53271220024E+03  0.55046505065E+03  0.12500047816E+03 0.  0.
          2    1    1    2  501    0 -0.62708594281E+01 -0.21626502117E+02 -0.35298344436E+03  0.35370092064E+03  0.00000000000E+00 0. -1.
          1    1    1    2  502    0  0.47006348531E+01 -0.38389317084E+02  0.19870884560E+04  0.19874648091E+04  0.00000000000E+00 0. -1.
         22    1    3    3    0    0  0.70436487349E+01  0.28732450284E+02 -0.17698819949E+02  0.34473394298E+02  0.00000000000E+00 0. -1.
         22    1    3    3    0    0 -0.54734241599E+01  0.31283368916E+02 -0.51501338030E+03  0.51599165635E+03  0.00000000000E+00 0. -1.
</event>
<event>
 7    1  0.6255318E-006  0.3196518E+02  0.7818608E-02  0.1620615E+00
          2   -1    0    0  502    0  0.00000000000E+00  0.00000000000E+00  0.31707420500E+03  0.31707420500E+03  0.00000000000E+00 0. -1.
          1   -1    0    0  501    0 -0.00000000000E+00 -0.00000000000E+00 -0.63209129486E+03  0.63209129486E+03  0.00000000000E+00 0. -1.
         25    2    1    2    0    0 -0.82643516518E+01  0.60539196053E+01 -0.36803294547E+03  0.38881534867E+03  0.12499670779E+03 0.  0.
          2    1    1    2  501    0  0.31867773098E+02 -0.13079009328E+02 -0.25199911680E+03  0.25434262386E+03  0.00000000000E+00 0. -1.
          1    1    1    2  502    0 -0.23603421446E+02  0.70250897226E+01  0.30501497241E+03  0.30600752733E+03  0.00000000000E+00 0. -1.
         22    1    3    3    0    0  0.33517668457E+00 -0.52756738763E+02 -0.26201177119E+03  0.26727056342E+03  0.00000000000E+00 0. -1.
         22    1    3    3    0    0 -0.85995283363E+01  0.58810658368E+02 -0.10602117428E+03  0.12154478525E+03  0.00000000000E+00 0. -1.
</event>
<event>
 7    1  0.1892188E-005  0.8750594E+02  0.7818608E-02  0.1336069E+00
          2   -1    0    0  502    0  0.00000000000E+00  0.00000000000E+00  0.23741537105E+04  0.23741537105E+04  0.00000000000E+00 0. -1.
          1   -1    0    0  501    0 -0.00000000000E+00 -0.00000000000E+00 -0.14921904827E+04  0.14921904827E+04  0.00000000000E+00 0. -1.
         25    2    1    2    0    0 -0.18215320091E+02 -0.55852895734E+02 -0.28223179462E+03  0.31421735354E+03  0.12500566196E+03 0.  0.
          2    1    1    2  501    0  0.66580313635E+02 -0.17239468547E+02 -0.11921600939E+04  0.11941422976E+04  0.00000000000E+00 0. -1.
          1    1    1    2  502    0 -0.48364993544E+02  0.73092364281E+02  0.23563551163E+04  0.23579845420E+04  0.00000000000E+00 0. -1.
         22    1    3    3    0    0 -0.51821761359E+02  0.10713089847E+02 -0.60988380635E+02  0.80745574597E+02  0.00000000000E+00 0.  1.
         22    1    3    3    0    0  0.33606441268E+02 -0.66565985581E+02 -0.22124341399E+03  0.23347177895E+03  0.00000000000E+00 0.  1.
</event>
<event>
 7    1  0.6255318E-006  0.1490091E+03  0.7818608E-02  0.1285120E+00
          2   -1    0    0  502    0  0.00000000000E+00  0.00000000000E+00  0.17096751024E+03  0.17096751024E+03  0.00000000000E+00 0. -1.
          1   -1    0    0  501    0 -0.00000000000E+00 -0.00000000000E+00 -0.20467272833E+04  0.20467272833E+04  0.00000000000E+00 0. -1.
         25    2    1    2    0    0  0.18013073105E+03  0.25793057654E+02 -0.82366712577E+03  0.85273868037E+03  0.12499344316E+03 0.  0.
          2    1    1    2  501    0 -0.48504410111E+02  0.41924357710E+02 -0.11724343416E+04  0.11741859371E+04  0.00000000000E+00 0. -1.
          1    1    1    2  502    0 -0.13162632094E+03 -0.67717415364E+02  0.12034169426E+03  0.19077017609E+03  0.00000000000E+00 0. -1.
         22    1    3    3    0    0  0.16641227557E+03  0.23121833708E+02 -0.82160958704E+03  0.83861193539E+03  0.00000000000E+00 0.  1.
         22    1    3    3    0    0  0.13718455482E+02  0.26712239456E+01 -0.20575387271E+01  0.14126744983E+02  0.00000000000E+00 0.  1.
</event>
<event>
 7    1  0.6255318E-006  0.7502528E+02  0.7818608E-02  0.1388813E+00
          2   -1    0    0  502    0  0.00000000000E+00  0.00000000000E+00  0.14644455867E+04  0.14644455867E+04  0.00000000000E+00 0. -1.
          1   -1    0    0  501    0 -0.00000000000E+00 -0.00000000000E+00 -0.15845694767E+03  0.15845694767E+03  0.00000000000E+00 0. -1.
         25    2    1    2    0    0  0.45671965994E+01  0.11168511423E+03 -0.59361049211E+02  0.17786716961E+03  0.12497428470E+03 0.  0.
          2    1    1    2  501    0 -0.30542076898E+02 -0.41555306713E+02 -0.21714205389E+02  0.55956846702E+02  0.00000000000E+00 0. -1.
          1    1    1    2  502    0  0.25974880298E+02 -0.70129807522E+02  0.13870638936E+04  0.13890785180E+04  0.00000000000E+00 0. -1.
         22    1    3    3    0    0 -0.36092925774E+02  0.10494705043E+03 -0.69574732901E+01  0.11119797265E+03  0.00000000000E+00 0. -1.
         22    1    3    3    0    0  0.40660122373E+02  0.67380638000E+01 -0.52403575921E+02  0.66669196969E+02  0.00000000000E+00 0. -1.
</event>
<event>
 7    1  0.6255318E-006  0.3138223E+02  0.7818608E-02  0.1650620E+00
          2   -1    0    0  502    0  0.00000000000E+00  0.00000000000E+00  0.27067099768E+03  0.27067099768E+03  0.00000000000E+00 0. -1.
          1   -1    0    0  501    0 -0.00000000000E+00 -0.00000000000E+00 -0.33004616470E+03  0.33004616470E+03  0.00000000000E+00 0. -1.
         25    2    1    2    0    0  0.59442548552E+00 -0.25891507401E+02  0.13984690049E+03  0.18934887717E+03  0.12500047284E+03 0.  0.
          2    1    1    2  501    0 -0.21496948858E+02  0.22944811537E+02 -0.30342450917E+03  0.30504920251E+03  0.00000000000E+00 0. -1.
          1    1    1    2  502    0  0.20902523372E+02  0.29466958639E+01  0.10420244166E+03  0.10631908271E+03  0.00000000000E+00 0. -1.
         22    1    3    3    0    0  0.12701618240E+02  0.46298379264E+02  0.27698263832E+02  0.55426210837E+02  0.00000000000E+00 0.  1.
         22    1    3    3    0    0 -0.12107192755E+02 -0.72189886665E+02  0.11214863666E+03  0.13392266633E+03  0.00000000000E+00 0.  1.
</event>
<event>
 7    1  0.6255318E-006  0.5910668E+02  0.7818608E-02  0.1449342E+00
          2   -1    0    0  502    0  0.00000000000E+00  0.00000000000E+00  0.46772656775E+02  0.46772656775E+02  0.00000000000E+00 0. -1.
          1   -1    0    0  501    0 -0.00000000000E+00 -0.00000000000E+00 -0.25908526348E+04  0.25908526348E+04  0.00000000000E+00 0. -1.
         25    2    1    2    0    0 -0.18577023508E+02  0.63843730436E+02 -0.69042247353E+03  0.70479138804E+03  0.12500632375E+03 0.  0.
          2    1    1    2  501    0  0.40150692076E+02 -0.86097870309E+01 -0.18706883584E+04  0.18711389956E+04  0.00000000000E+00 0. -1.
          1    1    1    2  502    0 -0.21573668568E+02 -0.55233943405E+02  0.17030853931E+02  0.61694907936E+02  0.00000000000E+00 0. -1.
         22    1    3    3    0    0 -0.50583344587E+02 -0.15219073944E+02 -0.19249731683E+03  0.19961340623E+03  0.00000000000E+00 0.  1.
         22    1    3    3    0    0  0.32006321079E+02  0.79062804380E+02 -0.49792515670E+03  0.50517798180E+03  0.00000000000E+00 0.  1.
</event>
<event>
 7    1  0.6255318E-006  0.1093021E+03  0.7818608E-02  0.1321216E+00
          2   -1    0    0  502    0  0.00000000000E+00  0.00000000000E+00  0.29550571391E+03  0.29550571391E+03  0.00000000000E+00 0. -1.
          1   -1    0    0  501    0 -0.00000000000E+00 -0.00000000000E+00 -0.41496454100E+03  0.41496454100E+03  0.00000000000E+00 0. -1.
         25    2    1    2    0    0  0.12720799899E+02  0.88204709688E+02 -0.63073856223E+02  0.16596648320E+03  0.12499869057E+03 0.  0.
          2    1    1    2  501    0 -0.61146128761E+02  0.14159340606E+02 -0.28369156470E+03  0.29055161309E+03  0.00000000000E+00 0. -1.
          1    1    1    2  502    0  0.48425328861E+02 -0.10236405029E+03  0.22730659384E+03  0.25395215862E+03  0.00000000000E+00 0. -1.
         22    1    3    3    0    0 -0.34861944667E+02  0.24571690865E+02  0.23303649779E+02  0.48602296972E+02  0.00000000000E+00 0.  1.
         22    1    3    3    0    0  0.47582744567E+02  0.63633018823E+02 -0.86377506002E+02  0.11736418622E+03  0.00000000000E+00 0.  1.
</event>
<event>
 7    1  0.6255318E-006  0.2618074E+03  0.7818608E-02  0.1159236E+00
          2   -1    0    0  502    0  0.00000000000E+00  0.00000000000E+00  0.71200151303E+03  0.71200151303E+03  0.00000000000E+00 0. -1.
          1   -1    0    0  501    0 -0.00000000000E+00 -0.00000000000E+00 -0.13972357918E+04  0.13972357918E+04  0.00000000000E+00 0. -1.
         25    2    1    2    0    0  0.19480875566E+03  0.10306879432E+03  0.12446565466E+03  0.28229396498E+03  0.12499822331E+03 0.  0.
          2    1    1    2  501    0 -0.26620020265E+03  0.13446153375E+02 -0.12953227256E+04  0.13224614590E+04  0.00000000000E+00 0. -1.
          1    1    1    2  502    0  0.71391446997E+02 -0.11651494769E+03  0.48562279225E+03  0.50448188084E+03  0.00000000000E+00 0. -1.
         22    1    3    3    0    0  0.58006300552E+01  0.51914465795E+02  0.39863224717E+01  0.52389405748E+02  0.00000000000E+00 0. -1.
         22    1    3    3    0    0  0.18900812560E+03  0.51154328524E+02  0.12047933219E+03  0.22990455923E+03  0.00000000000E+00 0. -1.
</event>
<event>
 7    1  0.6255318E-006  0.3081921E+02  0.7818608E-02  0.1625110E+00
          2   -1    0    0  502    0  0.00000000000E+00  0.00000000000E+00  0.20891937314E+04  0.20891937314E+04  0.00000000000E+00 0. -1.
          1   -1    0    0  501    0 -0.00000000000E+00 -0.00000000000E+00 -0.11751231853E+03  0.11751231853E+03  0.00000000000E+00 0. -1.
         25    2    1    2    0    0  0.22537130778E+02  0.51362729042E+01  0.18852577302E+02  0.12850917279E+03  0.12499953703E+03 0.  0.
          2    1    1    2  501    0 -0.96882997237E+01  0.22916526058E+02 -0.60092267402E+02  0.65039302884E+02  0.00000000000E+00 0. -1.
          1    1    1    2  502    0 -0.12848831054E+02 -0.28052798962E+02  0.20129211030E+04  0.20131575743E+04  0.00000000000E+00 0. -1.
         22    1    3    3    0    0 -0.22536197376E+01  0.15413279162E+02 -0.51186734622E+02  0.53504483716E+02  0.00000000000E+00 0.  1.
         22    1    3    3    0    0  0.24790750516E+02 -0.10277006258E+02  0.70039311924E+02  0.75004689077E+02  0.00000000000E+00 0.  1.
</event>
<event>
 7    1  0.6255318E-006  0.8253013E+02  0.7818608E-02  0.1409512E+00
          2   -1    0    0  502    0  0.00000000000E+00  0.00000000000E+00  0.34752294511E+04  0.34752294511E+04  0.00000000000E+00 0. -1.
          1   -1    0    0  501    0 -0.00000000000E+00 -0.00000000000E+00 -0.11488963354E+03  0.11488963354E+03  0.00000000000E+00 0. -1.
         25    2    1    2    0    0 -0.38405565263E+02 -0.98469040891E+02  0.20741321429E+04  0.20805817123E+04  0.12499990485E+03 0.  0.
          2    1    1    2  501    0  0.20161047980E+01  0.82381410474E+02 -0.96136102095E+02  0.12662113408E+03  0.00000000000E+00 0. -1.
          1    1    1    2  502    0  0.36389460465E+02  0.16087630417E+02  0.13823437768E+04  0.13829162382E+04  0.00000000000E+00 0. -1.
         22    1    3    3    0    0  0.16542481326E+02 -0.10617472767E+03  0.12702391996E+04  0.12747761963E+04  0.00000000000E+00 0.  1.
         22    1    3    3    0    0 -0.54948046589E+02  0.77056867836E+01  0.80389294324E+03  0.80580551600E+03  0.00000000000E+00 0.  1.
</event>
<event>
 7    1  0.6255318E-006  0.1570463E+03  0.7818608E-02  0.1215237E+00
          2   -1    0    0  502    0  0.00000000000E+00  0.00000000000E+00  0.14489893753E+04  0.14489893753E+04  0.00000000000E+00 0. -1.
          1   -1    0    0  501    0 -0.00000000000E+00 -0.00000000000E+00 -0.13944937870E+04  0.13944937870E+04  0.00000000000E+00 0. -1.
         25    2    1    2    0    0 -0.57340418038E+02  0.27001283500E+02 -0.11504194506E+03  0.18131924867E+03  0.12500011186E+03 0.  0.
          2    1    1    2  501    0 -0.95186957173E+02 -0.76799060383E+02 -0.12387461613E+04  0.12447693379E+04  0.00000000000E+00 0. -1.
          1    1    1    2  502    0  0.15252737521E+03  0.49797776883E+02  0.14082836946E+04  0.14173945757E+04  0.00000000000E+00 0. -1.
         22    1    3    3    0    0  0.14170545715E+02  0.57551622933E+02 -0.31254750914E+02  0.67006366286E+02  0.00000000000E+00 0.  1.
         22    1    3    3    0    0 -0.71510963754E+02 -0.30550339433E+02 -0.83787194149E+02  0.11431288239E+03  0.00000000000E+00 0.  1.
</event>
<event>
 7    1  0.6255318E-006  0.9203503E+02  0.7818608E-02  0.1445175E+00
          2   -1    0    0  502    0  0.00000000000E+00  0.00000000000E+00  0.66311991908E+03  0.66311991908E+03  0.00000000000E+00 0. -1.
          1   -1    0    0  501    0 -0.00000000000E+00 -0.00000000000E+00 -0.94274278328E+02  0.94274278328E+02  0.00000000000E+00 0. -1.
         25    2    1    2    0    0 -0.59433301452E+02 -0.36759455853E+02  0.17091556115E+03  0.22298191948E+03  0.12500092982E+03 0.  0.
          2    1    1    2  501    0 -0.26159379430E+02 -0.74410363674E+01 -0.60308655013E+02  0.66157509202E+02  0.00000000000E+00 0. -1.
          1    1    1    2  502    0  0.85592680881E+02  0.44200492221E+02  0.45823873461E+03  0.46825476872E+03  0.00000000000E+00 0. -1.
         22    1    3    3    0    0 -0.34338710927E+02 -0.50457468103E+02  0.12875792115E+02  0.62376992377E+02  0.00000000000E+00 0. -1.
         22    1    3    3    0    0 -0.25094590525E+02  0.13698012250E+02  0.15803976904E+03  0.16060492711E+03  0.00000000000E+00 0. -1.
</event>
<event>
 7    1  0.6255318E-006  0.9861409E+02  0.7818608E-02  0.1286304E+00
          2   -1    0    0  502    0  0.00000000000E+00  0.00000000000E+00  0.20218886925E+04  0.20218886925E+04  0.00000000000E+00 0. -1.
          1   -1    0    0  501    0 -0.00000000000E+00 -0.00000000000E+00 -0.30306735618E+03  0.30306735618E+03  0.00000000000E+00 0. -1.
         25    2    1    2    0    0 -0.11395476866E+03  0.15281323338E+03  0.34666129998E+03  0.41489370781E+03  0.12500063311E+03 0.  0.
          2    1    1    2  501    0  0.67494669491E+02 -0.69034024969E+02 -0.25883568999E+03  0.27625557266E+03  0.00000000000E+00 0. -1.
          1    1    1    2  502    0  0.46460099171E+02 -0.83779208406E+02  0.16309957263E+04  0.16338067682E+04  0.00000000000E+00 0. -1.
         22    1    3    3    0    0 -0.10747271717E+03  0.13647746109E+03  0.19075480321E+03  0.25799976215E+03  0.00000000000E+00 0.  1.
         22    1    3    3    0    0 -0.64820514897E+01  0.16335772286E+02  0.15590649678E+03  0.15689394566E+03  0.00000000000E+00 0.  1.
</event>
<event>
 7    1  0.6255318E-006  0.1484131E+03  0.7818608E-02  0.1273097E+00
          2   -1    0    0  502    0  0.00000000000E+00  0.00000000000E+00  0.46850934029E+03  0.46850934029E+03  0.00000000000E+00 0. -1.
          1   -1    0    0  501    0 -0.00000000000E+00 -0.00000000000E+00 -0.69099283336E+03  0.69099283336E+03  0.00000000000E+00 0. -1.
         25    2    1    2    0    0  0.15746772847E+03  0.52905577848E+02 -0.14461874059E+03  0.25324537265E+03  0.12499421171E+03 0.  0.
          2    1    1    2  501    0 -0.51399968439E+02  0.50680253203E+02 -0.47598503058E+03  0.48142724701E+03  0.00000000000E+00 0. -1.
          1    1    1    2  502    0 -0.10606776003E+03 -0.10358583105E+03  0.39812027810E+03  0.42482955400E+03  0.00000000000E+00 0. -1.
         22    1    3    3    0    0  0.11200789762E+03  0.88304947065E+02 -0.69747750757E+02  0.15877116093E+03  0.00000000000E+00 0. -1.
         22    1    3    3    0    0  0.45459830847E+02 -0.35399369216E+02 -0.74870989838E+02  0.94474211724E+02  0.00000000000E+00 0. -1.
</event>
<event>
 7    1  0.6255318E-006  0.1111469E+03  0.7818608E-02  0.1362282E+00
          2   -1    0    0  502    0  0.00000000000E+00  0.00000000000E+00  0.10882497995E+04  0.10882497995E+04  0.00000000000E+00 0. -1.
          1   -1    0    0  501    0 -0.00000000000E+00 -0.00000000000E+00 -0.12032819470E+04  0.12032819470E+04  0.00000000000E+00 0. -1.
         25    2    1    2    0    0 -0.89726413516E+02  0.10530264897E+02  0.29814853244E+03  0.33567808451E+03  0.12500205304E+03 0.  0.
          2    1    1    2  501    0 -0.24628562008E+02 -0.35593548539E+02 -0.11796759482E+04  0.11804697410E+04  0.00000000000E+00 0. -1.
          1    1    1    2  502    0  0.11435497552E+03  0.25063283642E+02  0.76649526821E+03  0.77538392091E+03  0.00000000000E+00 0. -1.
         22    1    3    3    0    0 -0.65745232342E+02 -0.37298955715E+02  0.76048195821E+02  0.10722395143E+03  0.00000000000E+00 0.  1.
         22    1    3    3    0    0 -0.23981181173E+02  0.47829220612E+02  0.22210033662E+03  0.22845413308E+03  0.00000000000E+00 0.  1.
</event>
<event>
 7    1  0.6255318E-006  0.6619557E+02  0.7818608E-02  0.1376236E+00
          2   -1    0    0  502    0  0.00000000000E+00  0.00000000000E+00  0.59484754926E+03  0.59484754926E+03  0.00000000000E+00 0. -1.
          1   -1    0    0  501    0 -0.00000000000E+00 -0.00000000000E+00 -0.71922411737E+03  0.71922411737E+03  0.00000000000E+00 0. -1.
         25    2    1    2    0    0 -0.33563665846E+01  0.60243196780E+01 -0.37542974608E+02  0.13070372727E+03  0.12500572689E+03 0.  0.
          2    1    1    2  501    0 -0.56472309072E+02 -0.34535948994E+02 -0.63136123781E+03  0.63482191682E+03  0.00000000000E+00 0. -1.
          1    1    1    2  502    0  0.59828675657E+02  0.28511629316E+02  0.54452764431E+03  0.54854602255E+03  0.00000000000E+00 0. -1.
         22    1    3    3    0    0 -0.15816873082E+02  0.50089147746E+02 -0.59963877715E+02  0.79716766283E+02  0.00000000000E+00 0.  1.
         22    1    3    3    0    0  0.12460506497E+02 -0.44064828068E+02  0.22420903106E+02  0.50986960990E+02  0.00000000000E+00 0.  1.
</event>
<event>
 7    1  0.6255318E-006  0.8412829E+02  0.7818608E-02  0.1444915E+00
          2   -1    0    0  502    0  0.00000000000E+00  0.00000000000E+00  0.23585184975E+03  0.23585184975E+03  0.00000000000E+00 0. -1.
          1   -1    0    0  501    0 -0.00000000000E+00 -0.00000000000E+00 -0.10100962874E+04  0.10100962874E+04  0.00000000000E+00 0. -1.
         25    2    1    2    0    0  0.52529001065E+02 -0.55945599944E+02 -0.13597185038E+03  0.20000649107E+03  0.12500018507E+03 0.  0.
          2    1    1    2  501    0 -0.19833845346E+02 -0.22255134513E+02 -0.83301748777E+03  0.83355072273E+03  0.00000000000E+00 0. -1.
          1    1    1    2  502    0 -0.32695155719E+02  0.78200734457E+02  0.19474490047E+03  0.21239092338E+03  0.00000000000E+00 0. -1.
         22    1    3    3    0    0  0.22505560948E+02 -0.90519766933E+02 -0.11893666037E+03  0.15114978551E+03  0.00000000000E+00 0.  1.
         22    1    3    3    0    0  0.30023440117E+02  0.34574166990E+02 -0.17035190006E+02  0.48856705559E+02  0.00000000000E+00 0.  1.
</event>
<event>
 7    1  0.6255318E-006  0.3591872E+02  0.7818608E-02  0.1541033E+00
          2   -1    0    0  502    0  0.00000000000E+00  0.00000000000E+00  0.56277452616E+03  0.56277452616E+03  0.00000000000E+00 0. -1.
          1   -1    0    0  501    0 -0.00000000000E+00 -0.00000000000E+00 -0.35603499303E+03  0.35603499303E+03  0.00000000000E+00 0. -1.
         25    2    1    2    0    0 -0.18961138275E+02  0.35470672292E+02  0.27710443944E+03  0.30665143720E+03  0.12502215892E+03 0.  0.
          2    1    1    2  501    0  0.35756499659E+02 -0.38373210226E+01 -0.33912280644E+03  0.34102423689E+03  0.00000000000E+00 0. -1.
          1    1    1    2  502    0 -0.16795361384E+02 -0.31633351269E+02  0.26875790012E+03  0.27113384509E+03  0.00000000000E+00 0. -1.
         22    1    3    3    0    0 -0.61436922914E+02  0.39730198071E+02  0.96668368397E+02  0.12123430861E+03  0.00000000000E+00 0. -1.
         22    1    3    3    0    0  0.42475784639E+02 -0.42595257787E+01  0.18043607105E+03  0.18541712859E+03  0.00000000000E+00 0. -1.
</event>
<event>
 7    1  0.6255318E-006  0.1460642E+03  0.7818608E-02  0.1271125E+00
          2   -1    0    0  502    0  0.00000000000E+00  0.00000000000E+00  0.22925229912E+03  0.22925229912E+03  0.00000000000E+00 0. -1.
          1   -1    0    0  501    0 -0.00000000000E+00 -0.00000000000E+00 -0.85811681662E+03  0.85811681662E+03  0.00000000000E+00 0. -1.
         25    2    1    2    0    0  0.17862465780E+03 -0.40805955157E+02 -0.18347081244E+03  0.28785198321E+03  0.12500132348E+03 0.  0.
          2    1    1    2  501    0 -0.37668415703E+02  0.64566014495E+02 -0.59086133146E+03  0.59557098048E+03  0.00000000000E+00 0. -1.
          1    1    1    2  502    0 -0.14095624210E+03 -0.23760059338E+02  0.14546762639E+03  0.20394615205E+03  0.00000000000E+00 0. -1.
         22    1    3    3    0    0  0.10872774201E+03 -0.48226073433E+01 -0.17852131194E+03  0.20908093706E+03  0.00000000000E+00 0. -1.
         22    1    3    3    0    0  0.69896915791E+02 -0.35983347814E+02 -0.49495004983E+01  0.78771046154E+02  0.00000000000E+00 0. -1.
</event>
<event>
 7    1  0.6255318E-006  0.6053190E+02  0.7818608E-02  0.1428674E+00
          2   -1    0    0  502    0  0.00000000000E+00  0.00000000000E+00  0.26336625442E+04  0.26336625442E+04  0.00000000000E+00 0. -1.
          1   -1    0    0  501    0 -0.00000000000E+00 -0.00000000000E+00 -0.20907922908E+03  0.20907922908E+03  0.00000000000E+00 0. -1.
         25    2    1    2    0    0 -0.20102179418E+02 -0.38778620551E+01  0.81080622804E+03  0.82064070301E+03  0.12500115430E+03 0.  0.
          2    1    1    2  501    0 -0.35991878007E+02 -0.29919763686E+02 -0.20088110450E+03  0.20626154679E+03  0.00000000000E+00 0. -1.
          1    1    1    2  502    0  0.56094057425E+02  0.33797625741E+02  0.18146581916E+04  0.18158395235E+04  0.00000000000E+00 0. -1.
         22    1    3    3    0    0 -0.60142034187E+02 -0.71653887260E+00  0.70345983371E+03  0.70602642681E+03  0.00000000000E+00 0.  1.
         22    1    3    3    0    0  0.40039854769E+02 -0.31613231825E+01  0.10734639433E+03  0.11461427620E+03  0.00000000000E+00 0.  1.
</event>
<event>
 7    1  0.6255318E-006  0.2877372E+03  0.7818608E-02  0.1205161E+00
          2   -1    0    0  502    0  0.00000000000E+00  0.00000000000E+00  0.11805358357E+04  0.11805358357E+04  0.00000000000E+00 0. -1.
          1   -1    0    0  501    0 -0.00000000000E+00 -0.00000000000E+00 -0.24517382144E+03  0.24517382144E+03  0.00000000000E+00 0. -1.
         25    2    1    2    0    0  0.24066754915E+03 -0.23476821538E+02  0.15592952939E+03  0.31370545811E+03  0.12500026379E+03 0.  0.
          2    1    1    2  501    0  0.61515994252E+02  0.41727519603E+02 -0.13206554689E+03  0.15154772225E+03  0.00000000000E+00 0. -1.
          1    1    1    2  502    0 -0.30218354340E+03 -0.18250698065E+02  0.91149803173E+03  0.96045647675E+03  0.00000000000E+00 0. -1.
         22    1    3    3    0    0  0.24564015800E+03 -0.16876917809E+02  0.11464409753E+03  0.27160115367E+03  0.00000000000E+00 0.  1.
         22    1    3    3    0    0 -0.49726088543E+01 -0.65999037290E+01  0.41285431861E+02  0.42104304436E+02  0.00000000000E+00 0.  1.
</event>
<event>
 7    1  0.6255318E-006  0.1964181E+03  0.7818608E-02  0.1281592E+00
          2   -1    0    0  502    0  0.00000000000E+00  0.00000000000E+00  0.33701386123E+04  0.33701386123E+04  0.00000000000E+00 0. -1.
          1   -1    0    0  501    0 -0.00000000000E+00 -0.00000000000E+00 -0.43578401773E+03  0.43578401773E+03  0.00000000000E+00 0. -1.
         25    2    1    2    0    0 -0.11678433119E+03 -0.20112935244E+03  0.11135220571E+04  0.11443986274E+04  0.12500100094E+03 0.  0.
          2    1    1    2  501    0  0.59150292846E+01  0.49939639380E+02 -0.41490384478E+03  0.41794037322E+03  0.00000000000E+00 0. -1.
          1    1    1    2  502    0  0.11086930190E+03  0.15118971306E+03  0.22357363822E+04  0.22435836294E+04  0.00000000000E+00 0. -1.
         22    1    3    3    0    0 -0.10177539203E+03 -0.15120510047E+03  0.10295571674E+04  0.10455664368E+04  0.00000000000E+00 0.  1.
         22    1    3    3    0    0 -0.15008939151E+02 -0.49924251972E+02  0.83964889772E+02  0.98832190625E+02  0.00000000000E+00 0.  1.
</event>
<event>
 7    1  0.6255318E-006  0.9851649E+02  0.7818608E-02  0.1341882E+00
          2   -1    0    0  502    0  0.00000000000E+00  0.00000000000E+00  0.14132860111E+04  0.14132860111E+04  0.00000000000E+00 0. -1.
          1   -1    0    0  501    0 -0.00000000000E+00 -0.00000000000E+00 -0.14300441509E+03  0.14300441509E+03  0.00000000000E+00 0. -1.
         25    2    1    2    0    0 -0.99998743311E+02 -0.28964317831E+02  0.29569997685E+03  0.33749873815E+03  0.12501296563E+03 0.  0.
          2    1    1    2  501    0  0.47281101882E+01  0.57892076346E+02 -0.11279181985E+03  0.12686939014E+03  0.00000000000E+00 0. -1.
          1    1    1    2  502    0  0.95270633123E+02 -0.28927758515E+02  0.10873734390E+04  0.10919222979E+04  0.00000000000E+00 0. -1.
         22    1    3    3    0    0 -0.10903741043E+03 -0.18835656651E+01  0.28796079567E+03  0.30791902270E+03  0.00000000000E+00 0.  1.
         22    1    3    3    0    0  0.90386671211E+01 -0.27080752166E+02  0.77391811730E+01  0.29579715456E+02  0.00000000000E+00 0.  1.
</event>
<event>
 7    1  0.6255318E-006  0.1148469E+03  0.7818608E-02  0.1266816E+00
          2   -1    0    0  502    0  0.00000000000E+00  0.00000000000E+00  0.59685633765E+03  0.59685633765E+03  0.00000000000E+00 0. -1.
          1   -1    0    0  501    0 -0.00000000000E+00 -0.00000000000E+00 -0.66386881329E+03  0.66386881329E+03  0.00000000000E+00 0. -1.
         25    2    1    2    0    0  0.81982932427E+02 -0.22026317813E+02  0.54719687530E+02  0.16070150163E+03  0.12499747412E+03 0.  0.
          2    1    1    2  501    0 -0.39504023013E+02  0.11158412647E+03 -0.60001399522E+03  0.61157859640E+03  0.00000000000E+00 0. -1.
          1    1    1    2  502    0 -0.42478909414E+02 -0.89557808659E+02  0.47828183205E+03  0.48844505291E+03  0.00000000000E+00 0. -1.
         22    1    3    3    0    0  0.54717775090E+02 -0.46223755227E+02 -0.22690921449E+02  0.75136864283E+02  0.00000000000E+00 0. -1.
         22    1    3    3    0    0  0.27265157337E+02  0.24197437414E+02  0.77410608979E+02  0.85564637348E+02  0.00000000000E+00 0. -1.
</event>
<event>
 7    1  0.6255318E-006  0.1684334E+03  0.7818608E-02  0.1276838E+00
          2   -1    0    0  502    0  0.00000000000E+00  0.00000000000E+00  0.58259361072E+03  0.58259361072E+03  0.00000000000E+00 0. -1.
          1   -1    0    0  501    0 -0.00000000000E+00 -0.00000000000E+00 -0.57637281685E+03  0.57637281685E+03  0.00000000000E+00 0. -1.
         25    2    1    2    0    0 -0.22976100399E+02 -0.15881342289E+03  0.15276756016E+03  0.25438581861E+03  0.12499845117E+03 0.  0.
          2    1    1    2  501    0  0.83338253204E+02  0.14778375536E+03 -0.50922650925E+03  0.53674662600E+03  0.00000000000E+00 0. -1.
          1    1    1    2  502    0 -0.60362152805E+02  0.11029667522E+02  0.36267974297E+03  0.36783398295E+03  0.00000000000E+00 0. -1.
         22    1    3    3    0    0 -0.24663258468E+02 -0.21962991449E+02 -0.16330994606E+02  0.36842240655E+02  0.00000000000E+00 0. -1.
         22    1    3    3    0    0  0.16871580689E+01 -0.13685043144E+03  0.16909855477E+03  0.21754357796E+03  0.00000000000E+00 0. -1.
</event>
<event>
 7    1  0.6255318E-006  0.1085785E+03  0.7818608E-02  0.1379460E+00
          2   -1    0    0  502    0  0.00000000000E+00  0.00000000000E+00  0.51485093057E+03  0.51485093057E+03  0.00000000000E+00 0. -1.
          1   -1    0    0  501    0 -0.00000000000E+00 -0.00000000000E+00 -0.53781183792E+03  0.53781183792E+03  0.00000000000E+00 0. -1.
         25    2    1    2    0    0 -0.40339775328E+02  0.68479312460E+02 -0.12211638874E+03  0.19197477063E+03  0.12500074581E+03 0.  0.
          2    1    1    2  501    0  0.10047433450E+02  0.37105354795E+02 -0.37348147086E+03  0.37545461424E+03  0.00000000000E+00 0. -1.
          1    1    1    2  502    0  0.30292341878E+02 -0.10558466725E+03  0.47263695226E+03  0.48523338362E+03  0.00000000000E+00 0. -1.
         22    1    3    3    0    0  0.12189527833E+02  0.13788571063E+02  0.22267479533E+02  0.28888577769E+02  0.00000000000E+00 0. -1.
         22    1    3    3    0    0 -0.52529303161E+02  0.54690741397E+02 -0.14438386827E+03  0.16308619286E+03  0.00000000000E+00 0. -1.
</event>
<event>
 7    1  0.6255318E-006  0.8272666E+02  0.7818608E-02  0.1498748E+00
          2   -1    0    0  502    0  0.00000000000E+00  0.00000000000E+00  0.38274078804E+03  0.38274078804E+03  0.00000000000E+00 0. -1.
          1   -1    0    0  501    0 -0.00000000000E+00 -0.00000000000E+00 -0.13721622844E+03  0.13721622844E+03  0.00000000000E+00 0. -1.
         25    2    1    2    0    0 -0.13457804208E+02  0.73537648057E+02  0.22571074520E+03  0.26862379899E+03  0.12499802681E+03 0.  0.
          2    1    1    2  501    0 -0.18443130792E+02  0.92523187142E+01 -0.10007781044E+03  0.10218279022E+03  0.00000000000E+00 0. -1.
          1    1    1    2  502    0  0.31900935000E+02 -0.82789966771E+02  0.11989162484E+03  0.14915042728E+03  0.00000000000E+00 0. -1.
         22    1    3    3    0    0 -0.39695768153E+02 -0.62804259810E+01  0.15078271596E+03  0.15604686857E+03  0.00000000000E+00 0.  1.
         22    1    3    3    0    0  0.26237963946E+02  0.79818074038E+02  0.74928029241E+02  0.11257693041E+03  0.00000000000E+00 0.  1.
</event>
<event>
 7    1  0.6255318E-006  0.1773159E+03  0.7818608E-02  0.1313597E+00
          2   -1    0    0  502    0  0.00000000000E+00  0.00000000000E+00  0.38515871848E+03  0.38515871848E+03  0.00000000000E+00 0. -1.
          1   -1    0    0  501    0 -0.00000000000E+00 -0.00000000000E+00 -0.10860007953E+04  0.10860007953E+04  0.00000000000E+00 0. -1.
         25    2    1    2    0    0 -0.17205810724E+03  0.52657301130E+02  0.17767913498E+02  0.21981219827E+03  0.12499968051E+03 0.  0.
          2    1    1    2  501    0  0.18688034265E+02  0.36971385268E+02 -0.95486298623E+03  0.95576118797E+03  0.00000000000E+00 0. -1.
          1    1    1    2  502    0  0.15337007298E+03 -0.89628686398E+02  0.23625299592E+03  0.29558612754E+03  0.00000000000E+00 0. -1.
         22    1    3    3    0    0 -0.31772173542E+02  0.31615860578E+02 -0.46050503230E+02  0.64262605762E+02  0.00000000000E+00 0. -1.
         22    1    3    3    0    0 -0.14028593370E+03  0.21041440552E+02  0.63818416728E+02  0.15554959250E+03  0.00000000000E+00 0. -1.
</event>
<event>
 7    1  0.6255318E-006  0.7710189E+02  0.7818608E-02  0.1357693E+00
          2   -1    0    0  502    0  0.00000000000E+00  0.00000000000E+00  0.70099726899E+03  0.70099726899E+03  0.00000000000E+00 0. -1.
          1   -1    0    0  501    0 -0.00000000000E+00 -0.00000000000E+00 -0.13279943443E+04  0.13279943443E+04  0.00000000000E+00 0. -1.
         25    2    1    2    0    0 -0.38649125129E+02 -0.10208656738E+03  0.25202531155E+03  0.30175508340E+03  0.12499580225E+03 0.  0.
          2    1    1    2  501    0 -0.19999118399E+02  0.74413636299E+02 -0.12995025585E+04  0.13017850258E+04  0.00000000000E+00 0. -1.
          1    1    1    2  502    0  0.58648243527E+02  0.27672931084E+02  0.42048017161E+03  0.42545150406E+03  0.00000000000E+00 0. -1.
         22    1    3    3    0    0 -0.61101047289E+02 -0.13923415964E+01  0.73773105910E+02  0.95800562370E+02  0.00000000000E+00 0.  1.
         22    1    3    3    0    0  0.22451922160E+02 -0.10069422579E+03  0.17825220564E+03  0.20595452103E+03  0.00000000000E+00 0.  1.
</event>
<event>
 7    1  0.6255318E-006  0.2803609E+03  0.7818608E-02  0.1211884E+00
          2   -1    0    0  502    0  0.00000000000E+00  0.00000000000E+00  0.12274472712E+04  0.12274472712E+04  0.00000000000E+00 0. -1.
          1   -1    0    0  501    0 -0.00000000000E+00 -0.00000000000E+00 -0.10937341025E+04  0.10937341025E+04  0.00000000000E+00 0. -1.
         25    2    1    2    0    0 -0.41154034591E+02 -0.20850658785E+03 -0.40261208889E+03  0.47211171613E+03  0.12499730657E+03 0.  0.
          2    1    1    2  501    0 -0.23567418440E+02 -0.66965918988E+02 -0.63759016626E+03  0.64153026244E+03  0.00000000000E+00 0. -1.
          1    1    1    2  502    0  0.64721453031E+02  0.27547250684E+03  0.11739154239E+04  0.12075393952E+04  0.00000000000E+00 0. -1.
         22    1    3    3    0    0 -0.35664492961E+02 -0.16303492045E+03 -0.18257396326E+03  0.24735721822E+03  0.00000000000E+00 0.  1.
         22    1    3    3    0    0 -0.54895416297E+01 -0.45471667407E+02 -0.22003812563E+03  0.22475449792E+03  0.00000000000E+00 0.  1.
</event>
<event>
 7    1  0.6255318E-006  0.5260235E+02  0.7818608E-02  0.1559853E+00
          2   -1    0    0  502    0  0.00000000000E+00  0.00000000000E+00  0.59952516686E+03  0.59952516686E+03  0.00000000000E+00 0. -1.
          1   -1    0    0  501    0 -0.00000000000E+00 -0.00000000000E+00 -0.42472833992E+03  0.42472833992E+03  0.00000000000E+00 0. -1.
         25    2    1    2    0    0 -0.12747010890E+02 -0.51246232849E+02  0.40278143293E+02  0.14152838668E+03  0.12497716888E+03 0.  0.
          2    1    1    2  501    0 -0.89152328259E+01  0.51927671391E+02 -0.37201526618E+03  0.37572772416E+03  0.00000000000E+00 0. -1.
          1    1    1    2  502    0  0.21662243716E+02 -0.68143854123E+00  0.50653394983E+03  0.50699739594E+03  0.00000000000E+00 0. -1.
         22    1    3    3    0    0  0.39196346958E+02 -0.31591329464E+02 -0.24678645534E+02  0.56066043712E+02  0.00000000000E+00 0.  1.
         22    1    3    3    0    0 -0.51943357848E+02 -0.19654903385E+02  0.64956788826E+02  0.85462342972E+02  0.00000000000E+00 0.  1.
</event>
<event>
 7    1  0.6255318E-006  0.6266240E+02  0.7818608E-02  0.1513564E+00
          2   -1    0    0  502    0  0.00000000000E+00  0.00000000000E+00  0.57276269038E+03  0.57276269038E+03  0.00000000000E+00 0. -1.
          1   -1    0    0  501    0 -0.00000000000E+00 -0.00000000000E+00 -0.26765334660E+03  0.26765334660E+03  0.00000000000E+00 0. -1.
         25    2    1    2    0    0 -0.64683396202E+02 -0.69330848524E+01  0.19922725308E+03  0.24402320319E+03  0.12499526357E+03 0.  0.
          2    1    1    2  501    0  0.60272401483E+02 -0.17293658343E+02 -0.24080359725E+03  0.24883369034E+03  0.00000000000E+00 0. -1.
          1    1    1    2  502    0  0.44109947192E+01  0.24226743195E+02  0.34668568795E+03  0.34755914344E+03  0.00000000000E+00 0. -1.
         22    1    3    3    0    0 -0.74473400696E+02  0.44313227817E+02  0.14387399563E+03  0.16795736420E+03  0.00000000000E+00 0. -1.
         22    1    3    3    0    0  0.97900044944E+01 -0.51246312670E+02  0.55353257452E+02  0.76065838987E+02  0.00000000000E+00 0. -1.
</event>
<event>
 7    1  0.6255318E-006  0.5226593E+02  0.7818608E-02  0.1527886E+00
          2   -1    0    0  502    0  0.00000000000E+00  0.00000000000E+00  0.13460655407E+04  0.13460655407E+04  0.00000000000E+00 0. -1.
          1   -1    0    0  501    0 -0.00000000000E+00 -0.00000000000E+00 -0.55028234024E+03  0.55028234024E+03  0.00000000000E+00 0. -1.
         25    2    1    2    0    0  0.74681643353E+02  0.24915279126E+02 -0.18589442279E+03  0.23744780605E+03  0.12500642058E+03 0.  0.
          2    1    1    2  501    0 -0.26296438385E+02 -0.53219965469E+01 -0.33756276118E+03  0.33862729373E+03  0.00000000000E+00 0. -1.
          1    1    1    2  502    0 -0.48385204968E+02 -0.19593282579E+02  0.13192403844E+04  0.13202727812E+04  0.00000000000E+00 0. -1.
         22    1    3    3    0    0  0.17812596215E+02 -0.50280362947E+02 -0.62791466009E+02  0.82390361605E+02  0.00000000000E+00 0.  1.
         22    1    3    3    0    0  0.56869047138E+02  0.75195642073E+02 -0.12310295678E+03  0.15505744444E+03  0.00000000000E+00 0.  1.
</event>
<event>
 7    1  0.6255318E-006  0.9427194E+02  0.7818608E-02  0.1348998E+00
          2   -1    0    0  502    0  0.00000000000E+00  0.00000000000E+00  0.52650269526E+03  0.52650269526E+03  0.00000000000E+00 0. -1.
          1   -1    0    0  501    0 -0.00000000000E+00 -0.00000000000E+00 -0.53566493568E+03  0.53566493568E+03  0.00000000000E+00 0. -1.
         25    2    1    2    0    0  0.12893503847E+03  0.48156886592E+02 -0.25914173298E+03  0.31894063687E+03  0.12500144879E+03 0.  0.
          2    1    1    2  501    0 -0.35280560658E+02 -0.44897144827E+02 -0.23880680075E+03  0.24553850952E+03  0.00000000000E+00 0. -1.
          1    1    1    2  502    0 -0.93654477813E+02 -0.32597417648E+01  0.48878629331E+03  0.49768848456E+03  0.00000000000E+00 0. -1.
         22    1    3    3    0    0  0.96163034567E+02  0.65432920675E+02 -0.93581009990E+02  0.14928563814E+03  0.00000000000E+00 0.  1.
         22    1    3    3    0    0  0.32772003904E+02 -0.17276034083E+02 -0.16556072299E+03  0.16965499872E+03  0.00000000000E+00 0.  1.
</event>
<event>
 7    1  0.6255318E-006  0.1271635E+03  0.7818608E-02  0.1429825E+00
          2   -1    0    0  502    0  0.00000000000E+00  0.00000000000E+00  0.79301979779E+03  0.79301979779E+03  0.00000000000E+00 0. -1.
          1   -1    0    0  501    0 -0.00000000000E+00 -0.00000000000E+00 -0.33677022200E+03  0.33677022200E+03  0.00000000000E+00 0. -1.
         25    2    1    2    0    0  0.76125771650E+02  0.10181006432E+03  0.36069947448E+03  0.40235323346E+03  0.12499436499E+03 0.  0.
          2    1    1    2  501    0 -0.57410942582E+02 -0.11353738974E+03 -0.30281678244E+03  0.32845815400E+03  0.00000000000E+00 0. -1.
          1    1    1    2  502    0 -0.18714829068E+02  0.11727325422E+02  0.39836688375E+03  0.39897863234E+03  0.00000000000E+00 0. -1.
         22    1    3    3    0    0  0.23769660065E+02  0.11093060603E+02  0.24454585381E+03  0.24594862746E+03  0.00000000000E+00 0.  1.
         22    1    3    3    0    0  0.52356111585E+02  0.90717003712E+02  0.11615362067E+03  0.15640460600E+03  0.00000000000E+00 0.  1.
</event>
<event>
 7    1  0.6255318E-006  0.1972434E+03  0.7818608E-02  0.1340013E+00
          2   -1    0    0  502    0  0.00000000000E+00  0.00000000000E+00  0.72507601638E+03  0.72507601638E+03  0.00000000000E+00 0. -1.
          1   -1    0    0  501    0 -0.00000000000E+00 -0.00000000000E+00 -0.10724118294E+04  0.10724118294E+04  0.00000000000E+00 0. -1.
         25    2    1    2    0    0 -0.18528059957E+03 -0.57873464193E+02 -0.73385342884E+03  0.76931430907E+03  0.12500165074E+03 0.  0.
          2    1    1    2  501    0  0.78129681970E+01 -0.28430317261E+02 -0.30634255243E+03  0.30775815966E+03  0.00000000000E+00 0. -1.
          1    1    1    2  502    0  0.17746763137E+03  0.86303781454E+02  0.69286016820E+03  0.72041537710E+03  0.00000000000E+00 0. -1.
         22    1    3    3    0    0 -0.95001450595E+02 -0.63744593356E+02 -0.57706679051E+03  0.58829816378E+03  0.00000000000E+00 0.  1.
         22    1    3    3    0    0 -0.90279148976E+02  0.58711291628E+01 -0.15678663833E+03  0.18101614529E+03  0.00000000000E+00 0.  1.
</event>
<event>
 7    1  0.6255318E-006  0.8952861E+02  0.7818608E-02  0.1447387E+00
          2   -1    0    0  502    0  0.00000000000E+00  0.00000000000E+00  0.15536340244E+04  0.15536340244E+04  0.00000000000E+00 0. -1.
          1   -1    0    0  501    0 -0.00000000000E+00 -0.00000000000E+00 -0.20748490250E+03  0.20748490250E+03  0.00000000000E+00 0. -1.
         25    2    1    2    0    0  0.50785231930E+02 -0.57063389721E+02  0.20504963077E+02  0.14792058429E+03  0.12499870206E+03 0.  0.
          2    1    1    2  501    0 -0.12748254837E+02 -0.24371388884E+02 -0.14107334279E+03  0.14372950513E+03  0.00000000000E+00 0. -1.
          1    1    1    2  502    0 -0.38036977093E+02  0.81434778605E+02  0.14667175017E+04  0.14694688375E+04  0.00000000000E+00 0. -1.
         22    1    3    3    0    0 -0.37264819801E+02  0.55536574915E+01  0.12000840336E+02  0.39541498140E+02  0.00000000000E+00 0.  1.
         22    1    3    3    0    0  0.88050051731E+02 -0.62617047213E+02  0.85041227409E+01  0.10837908615E+03  0.00000000000E+00 0.  1.
</event>
<event>
 7    1  0.6255318E-006  0.5864882E+02  0.7818608E-02  0.1486079E+00
          2   -1    0    0  502    0  0.00000000000E+00  0.00000000000E+00  0.72745997314E+02  0.72745997314E+02  0.00000000000E+00 0. -1.
          1   -1    0    0  501    0 -0.00000000000E+00 -0.00000000000E+00 -0.19162923216E+04  0.19162923216E+04  0.00000000000E+00 0. -1.
         25    2    1    2    0    0  0.39105008349E+02  0.21438768984E+02 -0.42611511427E+03  0.44630544798E+03  0.12500255915E+03 0.  0.
          2    1    1    2  501    0  0.20124226796E+02 -0.24597866723E+02 -0.14658326452E+04  0.14661771323E+04  0.00000000000E+00 0. -1.
          1    1    1    2  502    0 -0.59229235145E+02  0.31590977384E+01  0.48401435166E+02  0.76555738652E+02  0.00000000000E+00 0. -1.
         22    1    3    3    0    0  0.83343360893E+02  0.11500946477E+02 -0.32071467294E+03  0.33156641720E+03  0.00000000000E+00 0.  1.
         22    1    3    3    0    0 -0.44238352544E+02  0.99378225072E+01 -0.10540044133E+03  0.11473903078E+03  0.00000000000E+00 0.  1.
</event>
<event>
 7    1  0.6255318E-006  0.2033230E+03  0.7818608E-02  0.1282888E+00
          2   -1    0    0  502    0  0.00000000000E+00  0.00000000000E+00  0.20524102750E+04  0.20524102750E+04  0.00000000000E+00 0. -1.
          1   -1    0    0  501    0 -0.00000000000E+00 -0.00000000000E+00 -0.32023054948E+03  0.32023054948E+03  0.00000000000E+00 0. -1.
         25    2    1    2    0    0  0.38720910762E+02  0.17137006977E+03  0.58197331918E+03  0.62064340740E+03  0.12505312939E+03 0.  0.
          2    1    1    2  501    0 -0.45628617796E+01 -0.20507515730E+03 -0.26548215431E+03  0.33549577360E+03  0.00000000000E+00 0. -1.
          1    1    1    2  502    0 -0.34158048982E+02  0.33705087531E+02  0.14156885607E+04  0.14165016435E+04  0.00000000000E+00 0. -1.
         22    1    3    3    0    0  0.48201676674E+02  0.16887392181E+03  0.38205923307E+03  0.42048907319E+03  0.00000000000E+00 0.  1.
         22    1    3    3    0    0 -0.94807659118E+01  0.24961479611E+01  0.19991408611E+03  0.20015433421E+03  0.00000000000E+00 0.  1.
</event>
<event>
 7    1  0.6255318E-006  0.4213546E+02  0.7818608E-02  0.1543102E+00
          2   -1    0    0  502    0  0.00000000000E+00  0.00000000000E+00  0.15735007238E+04  0.15735007238E+04  0.00000000000E+00 0. -1.
          1   -1    0    0  501    0 -0.00000000000E+00 -0.00000000000E+00 -0.22245425811E+04  0.22245425811E+04  0.00000000000E+00 0. -1.
         25    2    1    2    0    0 -0.18213634703E+02 -0.27909641837E+02  0.36689788182E+02  0.13452397768E+03  0.12505948752E+03 0.  0.
          2    1    1    2  501    0 -0.23145135731E+02  0.19280884824E+02 -0.21752212552E+04  0.21754298332E+04  0.00000000000E+00 0. -1.
          1    1    1    2  502    0  0.41358770435E+02  0.86287570132E+01  0.14874896098E+04  0.14880894941E+04  0.00000000000E+00 0. -1.
         22    1    3    3    0    0  0.48289101283E+02 -0.37931871887E+02  0.24813583897E+02  0.66229737682E+02  0.00000000000E+00 0. -1.
         22    1    3    3    0    0 -0.66502735986E+02  0.10022230050E+02  0.11876204285E+02  0.68294239999E+02  0.00000000000E+00 0. -1.
</event>
<event>
 7    1  0.6255318E-006  0.1099890E+03  0.7818608E-02  0.1357427E+00
          2   -1    0    0  502    0  0.00000000000E+00  0.00000000000E+00  0.88373996075E+03  0.88373996075E+03  0.00000000000E+00 0. -1.
          1   -1    0    0  501    0 -0.00000000000E+00 -0.00000000000E+00 -0.25325281327E+03  0.25325281327E+03  0.00000000000E+00 0. -1.
         25    2    1    2    0    0 -0.90081832282E+02  0.20938774162E+02 -0.13222201023E+02  0.15604336641E+03  0.12498614656E+03 0.  0.
          2    1    1    2  501    0  0.95824509309E+02 -0.66136556570E+02 -0.14778750969E+03  0.18814230976E+03  0.00000000000E+00 0. -1.
          1    1    1    2  502    0 -0.57426770269E+01  0.45197782408E+02  0.79149685820E+03  0.79280709786E+03  0.00000000000E+00 0. -1.
         22    1    3    3    0    0 -0.10957919935E+02 -0.42784568473E+02  0.20915374934E+02  0.48867660240E+02  0.00000000000E+00 0. -1.
         22    1    3    3    0    0 -0.79123912347E+02  0.63723342634E+02 -0.34137575957E+02  0.10717570617E+03  0.00000000000E+00 0. -1.
</event>
<event>
 7    1  0.6255318E-006  0.5239256E+02  0.7818608E-02  0.1488343E+00
          2   -1    0    0  502    0  0.00000000000E+00  0.00000000000E+00  0.17956697071E+03  0.17956697071E+03  0.00000000000E+00 0. -1.
          1   -1    0    0  501    0 -0.00000000000E+00 -0.00000000000E+00 -0.96641500694E+03  0.96641500694E+03  0.00000000000E+00 0. -1.
         25    2    1    2    0    0  0.77668845915E+02 -0.30879857591E+02 -0.49789904005E+03  0.52010909979E+03  0.12499602544E+03 0.  0.
          2    1    1    2  501    0 -0.46220300443E+02  0.15478467254E+02 -0.45427323871E+03  0.45688080998E+03  0.00000000000E+00 0. -1.
          1    1    1    2  502    0 -0.31448545472E+02  0.15401390337E+02  0.16532424253E+03  0.16899206788E+03  0.00000000000E+00 0. -1.
         22    1    3    3    0    0  0.64321619408E+02 -0.27809299501E+02 -0.50115576379E+03  0.50603135026E+03  0.00000000000E+00 0.  1.
         22    1    3    3    0    0  0.13347226506E+02 -0.30705580905E+01  0.32567237438E+01  0.14077749534E+02  0.00000000000E+00 0.  1.
</event>
<event>
 7    1  0.6255318E-006  0.1464211E+03  0.7818608E-02  0.1261783E+00
          2   -1    0    0  502    0  0.00000000000E+00  0.00000000000E+00  0.12082898123E+04  0.12082898123E+04  0.00000000000E+00 0. -1.
          1   -1    0    0  501    0 -0.00000000000E+00 -0.00000000000E+00 -0.98835338621E+03  0.98835338621E+03  0.00000000000E+00 0. -1.
         25    2    1    2    0    0 -0.36258475747E+02  0.14681566037E+03  0.64801027842E+02  0.20662259904E+03  0.12499684008E+03 0.  0.
          2    1    1    2  501    0  0.81416983150E+02 -0.63039871360E+01 -0.91052946106E+03  0.91418398852E+03  0.00000000000E+00 0. -1.
          1    1    1    2  502    0 -0.45158507403E+02 -0.14051167324E+03  0.10656648593E+04  0.10758366109E+04  0.00000000000E+00 0. -1.
         22    1    3    3    0    0  0.35152624019E+02  0.66103008392E+02  0.64550252104E+02  0.98853678438E+02  0.00000000000E+00 0.  1.
         22    1    3    3    0    0 -0.71411099766E+02  0.80712651980E+02  0.25077573795E+00  0.10776892060E+03  0.00000000000E+00 0.  1.
</event>
<event>
 7    1  0.6255318E-006  0.1606238E+03  0.7818608E-02  0.1267343E+00
          2   -1    0    0  502    0  0.00000000000E+00  0.00000000000E+00  0.31453297115E+04  0.31453297115E+04  0.00000000000E+00 0. -1.
          1   -1    0    0  501    0 -0.00000000000E+00 -0.00000000000E+00 -0.28307602308E+04  0.28307602308E+04  0.00000000000E+00 0. -1.
         25    2    1    2    0    0 -0.18210129650E+03  0.10032163600E+03 -0.77804186641E+03  0.81498437845E+03  0.12500031361E+03 0.  0.
          2    1    1    2  501    0  0.25333471901E+02 -0.65801850026E+02 -0.20315748935E+04  0.20327981248E+04  0.00000000000E+00 0. -1.
          1    1    1    2  502    0  0.15676782460E+03 -0.34519785971E+02  0.31241862407E+04  0.31283074390E+04  0.00000000000E+00 0. -1.
         22    1    3    3    0    0 -0.14263020957E+03  0.12924886313E+03 -0.58580823439E+03  0.61661976354E+03  0.00000000000E+00 0.  1.
         22    1    3    3    0    0 -0.39471086930E+02 -0.28927227131E+02 -0.19223363201E+03  0.19836461491E+03  0.00000000000E+00 0.  1.
</event>
<event>
 7    1  0.6255318E-006  0.7625293E+02  0.7818608E-02  0.1468744E+00
          2   -1    0    0  502    0  0.00000000000E+00  0.00000000000E+00  0.36335667363E+03  0.36335667363E+03  0.00000000000E+00 0. -1.
          1   -1    0    0  501    0 -0.00000000000E+00 -0.00000000000E+00 -0.18586763533E+04  0.18586763533E+04  0.00000000000E+00 0. -1.
         25    2    1    2    0    0 -0.78908079473E+02 -0.63383812199E+02 -0.93835790785E+02  0.18620995181E+03  0.12499999147E+03 0.  0.
          2    1    1    2  501    0  0.15019946499E+02  0.23203233812E+02 -0.17140506336E+04  0.17142734798E+04  0.00000000000E+00 0. -1.
          1    1    1    2  502    0  0.63888132973E+02  0.40180578386E+02  0.31256674468E+03  0.32154959539E+03  0.00000000000E+00 0. -1.
         22    1    3    3    0    0 -0.22366637462E+02 -0.25631345776E+02  0.29728049995E+02  0.45177309727E+02  0.00000000000E+00 0.  1.
         22    1    3    3    0    0 -0.56541442011E+02 -0.37752466423E+02 -0.12356384078E+03  0.14103264209E+03  0.00000000000E+00 0.  1.
</event>
<event>
 7    1  0.6255318E-006  0.2701269E+03  0.7818608E-02  0.1255550E+00
          2   -1    0    0  502    0  0.00000000000E+00  0.00000000000E+00  0.22465360883E+04  0.22465360883E+04  0.00000000000E+00 0. -1.
          1   -1    0    0  501    0 -0.00000000000E+00 -0.00000000000E+00 -0.13405543740E+03  0.13405543740E+03  0.00000000000E+00 0. -1.
         25    2    1    2    0    0 -0.39476745867E+02 -0.24105530556E+03  0.42483406324E+03  0.50574182306E+03  0.12499894598E+03 0.  0.
          2    1    1    2  501    0  0.74551849283E+02  0.27243975388E+03  0.12064702452E+03  0.30714345549E+03  0.00000000000E+00 0. -1.
          1    1    1    2  502    0 -0.35075103416E+02 -0.31384448323E+02  0.15669995631E+04  0.15677062472E+04  0.00000000000E+00 0. -1.
         22    1    3    3    0    0 -0.24656178102E+02 -0.14036510551E+03  0.12661710493E+03  0.19063625370E+03  0.00000000000E+00 0.  1.
         22    1    3    3    0    0 -0.14820567765E+02 -0.10069020004E+03  0.29821695831E+03  0.31510556935E+03  0.00000000000E+00 0.  1.
</event>
<event>
 7    1  0.6255318E-006  0.5877096E+02  0.7818608E-02  0.1490781E+00
          2   -1    0    0  502    0  0.00000000000E+00  0.00000000000E+00  0.11244123380E+04  0.11244123380E+04  0.00000000000E+00 0. -1.
          1   -1    0    0  501    0 -0.00000000000E+00 -0.00000000000E+00 -0.75387085782E+03  0.75387085782E+03  0.00000000000E+00 0. -1.
         25    2    1    2    0    0  0.46890901334E+02  0.42030885865E+02  0.11750365331E+03  0.18275049642E+03  0.12500113362E+03 0.  0.
          2    1    1    2  501    0 -0.19329070799E+02 -0.55531898329E+02 -0.71980662666E+03  0.72220425400E+03  0.00000000000E+00 0. -1.
          1    1    1    2  502    0 -0.27561830536E+02  0.13501012464E+02  0.97284445354E+03  0.97332844540E+03  0.00000000000E+00 0. -1.
         22    1    3    3    0    0  0.33910034223E+02 -0.29386474432E+02  0.97697568088E+02  0.10750939545E+03  0.00000000000E+00 0.  1.
         22    1    3    3    0    0  0.12980867111E+02  0.71417360297E+02  0.19806085219E+02  0.75241100966E+02  0.00000000000E+00 0.  1.
</event>
<event>
 7    1  0.6255318E-006  0.1165134E+03  0.7818608E-02  0.1391690E+00
          2   -1    0    0  502    0  0.00000000000E+00  0.00000000000E+00  0.10478757260E+04  0.10478757260E+04  0.00000000000E+00 0. -1.
          1   -1    0    0  501    0 -0.00000000000E+00 -0.00000000000E+00 -0.19154613919E+03  0.19154613919E+03  0.00000000000E+00 0. -1.
         25    2    1    2    0    0 -0.69008458962E+02  0.12718852264E+03  0.19844769799E+03  0.27558243497E+03  0.12500040772E+03 0.  0.
          2    1    1    2  501    0  0.76783906524E+01 -0.31527963548E+02 -0.14722216457E+03  0.15075588184E+03  0.00000000000E+00 0. -1.
          1    1    1    2  502    0  0.61330068310E+02 -0.95660559088E+02  0.80510405338E+03  0.81308354836E+03  0.00000000000E+00 0. -1.
         22    1    3    3    0    0  0.84525430517E+01  0.10859701105E+02 -0.15059575589E+02  0.20400230613E+02  0.00000000000E+00 0.  1.
         22    1    3    3    0    0 -0.77461002014E+02  0.11632882153E+03  0.21350727358E+03  0.25518220436E+03  0.00000000000E+00 0.  1.
</event>
<event>
 7    1  0.6255318E-006  0.4618197E+02  0.7818608E-02  0.1540781E+00
          2   -1    0    0  502    0  0.00000000000E+00  0.00000000000E+00  0.34401778790E+03  0.34401778790E+03  0.00000000000E+00 0. -1.
          1   -1    0    0  501    0 -0.00000000000E+00 -0.00000000000E+00 -0.58554498917E+03  0.58554498917E+03  0.00000000000E+00 0. -1.
         25    2    1    2    0    0  0.29793187744E+02  0.18792321232E+01  0.10896000275E+03  0.16849078544E+03  0.12500278808E+03 0.  0.
          2    1    1    2  501    0 -0.39452084425E+02  0.24297238438E+02 -0.55385973046E+03  0.55579440784E+03  0.00000000000E+00 0. -1.
          1    1    1    2  502    0  0.96588966810E+01 -0.26176470561E+02  0.20337252644E+03  0.20527758379E+03  0.00000000000E+00 0. -1.
         22    1    3    3    0    0  0.18449516691E+02 -0.61456301153E+02  0.53425105197E+02  0.83495529718E+02  0.00000000000E+00 0.  1.
         22    1    3    3    0    0  0.11343671053E+02  0.63335533277E+02  0.55534897555E+02  0.84995255719E+02  0.00000000000E+00 0.  1.
</event>
<event>
 7    1  0.6255318E-006  0.3388519E+03  0.7818608E-02  0.1237639E+00
          2   -1    0    0  502    0  0.00000000000E+00  0.00000000000E+00  0.16315676166E+04  0.16315676166E+04  0.00000000000E+00 0. -1.
          1   -1    0    0  501    0 -0.00000000000E+00 -0.00000000000E+00 -0.16236028956E+04  0.16236028956E+04  0.00000000000E+00 0. -1.
         25    2    1    2    0    0  0.14607489782E+02 -0.34758294117E+03  0.63681958704E+03  0.73633638692E+03  0.12499923409E+03 0.  0.
          2    1    1    2  501    0  0.41241712618E+02  0.17793847611E+02 -0.15439094413E+04  0.15445626768E+04  0.00000000000E+00 0. -1.
          1    1    1    2  502    0 -0.55849202401E+02  0.32978909356E+03  0.91505457517E+03  0.97427144841E+03  0.00000000000E+00 0. -1.
         22    1    3    3    0    0 -0.23602097891E+02 -0.19427571974E+03  0.24301997521E+03  0.31202375335E+03  0.00000000000E+00 0. -1.
         22    1    3    3    0    0  0.38209587673E+02 -0.15330722143E+03  0.39379961183E+03  0.42431263357E+03  0.00000000000E+00 0. -1.
</event>
<event>
 7    1  0.6255318E-006  0.1491540E+03  0.7818608E-02  0.1297190E+00
          2   -1    0    0  502    0  0.00000000000E+00  0.00000000000E+00  0.73714853972E+03  0.73714853972E+03  0.00000000000E+00 0. -1.
          1   -1    0    0  501    0 -0.00000000000E+00 -0.00000000000E+00 -0.13943578015E+04  0.13943578015E+04  0.00000000000E+00 0. -1.
         25    2    1    2    0    0 -0.63066842376E+02  0.12777726731E+03 -0.10249280892E+03  0.21547027855E+03  0.12497283069E+03 0.  0.
          2    1    1    2  501    0 -0.49537721809E+02 -0.28629849362E+02 -0.12264334870E+04  0.12277673852E+04  0.00000000000E+00 0. -1.
          1    1    1    2  502    0  0.11260456419E+03 -0.99147417950E+02  0.67171703416E+03  0.68826867744E+03  0.00000000000E+00 0. -1.
         22    1    3    3    0    0  0.38204857829E+02  0.40995521633E+02 -0.33949756263E+02  0.65519690980E+02  0.00000000000E+00 0. -1.
         22    1    3    3    0    0 -0.10127170021E+03  0.86781745679E+02 -0.68543052661E+02  0.14995058757E+03  0.00000000000E+00 0. -1.
</event>
<event>
 7    1  0.6255318E-006  0.9905142E+02  0.7818608E-02  0.1401375E+00
          2   -1    0    0  502    0  0.00000000000E+00  0.00000000000E+00  0.36857510197E+03  0.36857510197E+03  0.00000000000E+00 0. -1.
          1   -1    0    0  501    0 -0.00000000000E+00 -0.00000000000E+00 -0.18754033070E+03  0.18754033070E+03  0.00000000000E+00 0. -1.
         25    2    1    2    0    0  0.21882155917E+02 -0.64502473888E+02 -0.56934187891E+01  0.14251547842E+03  0.12505538248E+03 0.  0.
          2    1    1    2  501    0  0.18958383883E+02 -0.29822867411E+02 -0.10156167389E+03  0.10753416826E+03  0.00000000000E+00 0. -1.
          1    1    1    2  502    0 -0.40840539800E+02  0.94325341299E+02  0.28828986395E+03  0.30606578599E+03  0.00000000000E+00 0. -1.
         22    1    3    3    0    0  0.31074260196E+02  0.29338638704E+02  0.16223095443E+02  0.45711641772E+02  0.00000000000E+00 0. -1.
         22    1    3    3    0    0 -0.91921042788E+01 -0.93841112592E+02 -0.21916514232E+02  0.96803836647E+02  0.00000000000E+00 0. -1.
</event>
<event>
 7    1  0.6255318E-006  0.1134256E+03  0.7818608E-02  0.1454081E+00
          2   -1    0    0  502    0  0.00000000000E+00  0.00000000000E+00  0.17285605620E+02  0.17285605620E+02  0.00000000000E+00 0. -1.
          1   -1    0    0  501    0 -0.00000000000E+00 -0.00000000000E+00 -0.37560760827E+04  0.37560760827E+04  0.00000000000E+00 0. -1.
         25    2    1    2    0    0 -0.91244651838E+02  0.33532557776E+02 -0.32696686815E+04  0.32735008076E+04  0.12499692666E+03 0.  0.
          2    1    1    2  501    0 -0.19867002198E+02 -0.56907199019E+01 -0.26492592847E+03  0.26573074651E+03  0.00000000000E+00 0. -1.
          1    1    1    2  502    0  0.11111165404E+03 -0.27841837874E+02 -0.20419586716E+03  0.23413013425E+03  0.00000000000E+00 0. -1.
         22    1    3    3    0    0 -0.95476606525E+02  0.24593114394E+02 -0.32499075070E+04  0.32514026831E+04  0.00000000000E+00 0.  1.
         22    1    3    3    0    0  0.42319546877E+01  0.89394433819E+01 -0.19761174480E+02  0.22098124475E+02  0.00000000000E+00 0.  1.
</event>
<event>
 7    1  0.6255318E-006  0.6326424E+02  0.7818608E-02  0.1398414E+00
          2   -1    0    0  502    0  0.00000000000E+00  0.00000000000E+00  0.74375693675E+02  0.74375693675E+02  0.00000000000E+00 0. -1.
          1   -1    0    0  501    0 -0.00000000000E+00 -0.00000000000E+00 -0.87522700478E+03  0.87522700478E+03  0.00000000000E+00 0. -1.
         25    2    1    2    0    0 -0.48976928982E+02 -0.15178081302E+02 -0.92489992475E+02  0.16372734276E+03  0.12499252112E+03 0.  0.
          2    1    1    2  501    0  0.17492180941E+02  0.62263151319E+02 -0.72418316549E+03  0.72706528839E+03  0.00000000000E+00 0. -1.
          1    1    1    2  502    0  0.31484748041E+02 -0.47085070017E+02  0.15821846858E+02  0.58810067299E+02  0.00000000000E+00 0. -1.
         22    1    3    3    0    0 -0.98821764369E+01  0.15014119153E+02 -0.10989451462E+03  0.11135477326E+03  0.00000000000E+00 0.  1.
         22    1    3    3    0    0 -0.39094752545E+02 -0.30192200455E+02  0.17404522146E+02  0.52372569500E+02  0.00000000000E+00 0.  1.
</event>
<event>
 7    1  0.6255318E-006  0.1187463E+03  0.7818608E-02  0.1415441E+00
          2   -1    0    0  502    0  0.00000000000E+00  0.00000000000E+00  0.70182556604E+02  0.70182556604E+02  0.00000000000E+00 0. -1.
          1   -1    0    0  501    0 -0.00000000000E+00 -0.00000000000E+00 -0.10932433820E+04  0.10932433820E+04  0.00000000000E+00 0. -1.
         25    2    1    2    0    0 -0.88805488548E+02  0.99343344669E+02 -0.29104563398E+03  0.34363966414E+03  0.12500057115E+03 0.  0.
          2    1    1    2  501    0  0.90868814764E+02 -0.73017546800E+02 -0.76708198965E+03  0.77588883384E+03  0.00000000000E+00 0. -1.
          1    1    1    2  502    0 -0.20633262154E+01 -0.26325797869E+02  0.35066798270E+02  0.43897440579E+02  0.00000000000E+00 0. -1.
         22    1    3    3    0    0 -0.34479802953E+02 -0.96743258295E+01 -0.16310649500E+03  0.16699155100E+03  0.00000000000E+00 0.  1.
         22    1    3    3    0    0 -0.54325685595E+02  0.10901767050E+03 -0.12793913897E+03  0.17664811314E+03  0.00000000000E+00 0.  1.
</event>
<event>
 7    1  0.8636943E-006  0.4830882E+02  0.7818608E-02  0.1504914E+00
          2   -1    0    0  502    0  0.00000000000E+00  0.00000000000E+00  0.18394203910E+04  0.18394203910E+04  0.00000000000E+00 0. -1.
          1   -1    0    0  501    0 -0.00000000000E+00 -0.00000000000E+00 -0.86731571158E+03  0.86731571158E+03  0.00000000000E+00 0. -1.
         25    2    1    2    0    0  0.33190098949E+02  0.31489350011E+02 -0.20576150915E+03  0.24505868532E+03  0.12499119478E+03 0.  0.
          2    1    1    2  501    0 -0.48938556767E+02 -0.15005669214E+01 -0.64081404282E+03  0.64268178091E+03  0.00000000000E+00 0. -1.
          1    1    1    2  502    0  0.15748457817E+02 -0.29988783090E+02  0.18186802314E+04  0.18189956364E+04  0.00000000000E+00 0. -1.
         22    1    3    3    0    0 -0.10411765229E+02  0.72371771940E+02 -0.10626863084E+03  0.12899263595E+03  0.00000000000E+00 0. -1.
         22    1    3    3    0    0  0.43601864178E+02 -0.40882421929E+02 -0.99492878311E+02  0.11606604937E+03  0.00000000000E+00 0. -1.
</event>
<event>
 7    1  0.6255318E-006  0.5982146E+02  0.7818608E-02  0.1459179E+00
          2   -1    0    0  502    0  0.00000000000E+00  0.00000000000E+00  0.17208496897E+04  0.17208496897E+04  0.00000000000E+00 0. -1.
          1   -1    0    0  501    0 -0.00000000000E+00 -0.00000000000E+00 -0.10947330933E+02  0.10947330933E+02  0.00000000000E+00 0. -1.
         25    2    1    2    0    0 -0.70541164217E+02  0.15293354845E+02  0.12384625116E+04  0.12468455831E+04  0.12499829123E+03 0.  0.
          2    1    1    2  501    0  0.55073637160E+02  0.19145654229E+02  0.39925598205E+03  0.40349101699E+03  0.00000000000E+00 0. -1.
          1    1    1    2  502    0  0.15467527057E+02 -0.34439009074E+02  0.72183865141E+02  0.81460420609E+02  0.00000000000E+00 0. -1.
         22    1    3    3    0    0 -0.38264442220E+02  0.65321953100E+02  0.46772639751E+03  0.47381336834E+03  0.00000000000E+00 0. -1.
         22    1    3    3    0    0 -0.32276721997E+02 -0.50028598255E+02  0.77073611409E+03  0.77303221472E+03  0.00000000000E+00 0. -1.
</event>
<event>
 7    1  0.6255318E-006  0.1294653E+03  0.7818608E-02  0.1359485E+00
          2   -1    0    0  502    0  0.00000000000E+00  0.00000000000E+00  0.58874577370E+03  0.58874577370E+03  0.00000000000E+00 0. -1.
          1   -1    0    0  501    0 -0.00000000000E+00 -0.00000000000E+00 -0.81240858780E+02  0.81240858780E+02  0.00000000000E+00 0. -1.
         25    2    1    2    0    0 -0.41123041427E+01 -0.12981164620E+03  0.84580267782E+02  0.19910568719E+03  0.12498511286E+03 0.  0.
          2    1    1    2  501    0 -0.37497619314E+02  0.64114358690E+01  0.12114909734E+02  0.39924290876E+02  0.00000000000E+00 0. -1.
          1    1    1    2  502    0  0.41609923456E+02  0.12340021033E+03  0.41080973740E+03  0.43095665442E+03  0.00000000000E+00 0. -1.
         22    1    3    3    0    0 -0.30945769457E+02 -0.52008091861E+02 -0.22048067072E+02  0.64409622945E+02  0.00000000000E+00 0. -1.
         22    1    3    3    0    0  0.26833465314E+02 -0.77803554340E+02  0.10662833485E+03  0.13469606424E+03  0.00000000000E+00 0. -1.
</event>
<event>
 7    1  0.6255318E-006  0.5740947E+02  0.7818608E-02  0.1452763E+00
          2   -1    0    0  502    0  0.00000000000E+00  0.00000000000E+00  0.85850798107E+03  0.85850798107E+03  0.00000000000E+00 0. -1.
          1   -1    0    0  501    0 -0.00000000000E+00 -0.00000000000E+00 -0.31555091398E+03  0.31555091398E+03  0.00000000000E+00 0. -1.
         25    2    1    2    0    0  0.37440333455E+02 -0.10147148109E+02  0.19608493287E+03  0.23574806919E+03  0.12499243195E+03 0.  0.
          2    1    1    2  501    0  0.14785257596E+02  0.38484258844E+02 -0.29289912066E+03  0.29578630277E+03  0.00000000000E+00 0. -1.
          1    1    1    2  502    0 -0.52225591050E+02 -0.28337110735E+02  0.63977125488E+03  0.64252452309E+03  0.00000000000E+00 0. -1.
         22    1    3    3    0    0  0.57895118525E+02  0.15807866039E+02  0.31307738857E+02  0.67689791624E+02  0.00000000000E+00 0. -1.
         22    1    3    3    0    0 -0.20454785070E+02 -0.25955014148E+02  0.16477719402E+03  0.16805827757E+03  0.00000000000E+00 0. -1.
</event>
<event>
 7    1  0.6255318E-006  0.8731395E+02  0.7818608E-02  0.1452002E+00
          2   -1    0    0  502    0  0.00000000000E+00  0.00000000000E+00  0.23223309793E+03  0.23223309793E+03  0.00000000000E+00 0. -1.
          1   -1    0    0  501    0 -0.00000000000E+00 -0.00000000000E+00 -0.18571204091E+04  0.18571204091E+04  0.00000000000E+00 0. -1.
         25    2    1    2    0    0 -0.52141818681E+01 -0.72330441940E+02 -0.31384622796E+03  0.34551850118E+03  0.12499879732E+03 0.  0.
          2    1    1    2  501    0 -0.25374369850E+02 -0.99588167218E+01 -0.15184066945E+04  0.15186513512E+04  0.00000000000E+00 0. -1.
          1    1    1    2  502    0  0.30588551718E+02  0.82289258662E+02  0.20736561126E+03  0.22518365465E+03  0.00000000000E+00 0. -1.
         22    1    3    3    0    0  0.13445235348E+02 -0.94988155400E+02 -0.14319285454E+03  0.17235926900E+03  0.00000000000E+00 0. -1.
         22    1    3    3    0    0 -0.18659417216E+02  0.22657713460E+02 -0.17065337342E+03  0.17315923218E+03  0.00000000000E+00 0. -1.
</event>
<event>
 7    1  0.6255318E-006  0.8350373E+02  0.7818608E-02  0.1362693E+00
          2   -1    0    0  502    0  0.00000000000E+00  0.00000000000E+00  0.19254098325E+03  0.19254098325E+03  0.00000000000E+00 0. -1.
          1   -1    0    0  501    0 -0.00000000000E+00 -0.00000000000E+00 -0.15162709382E+04  0.15162709382E+04  0.00000000000E+00 0. -1.
         25    2    1    2    0    0 -0.66843974315E+01 -0.49407557533E+02 -0.36179734499E+01  0.13462453747E+03  0.12499955378E+03 0.  0.
          2    1    1    2  501    0 -0.46843403102E+02  0.70172699543E+02 -0.14393635594E+04  0.14418342375E+04  0.00000000000E+00 0. -1.
          1    1    1    2  502    0  0.53527800533E+02 -0.20765142010E+02  0.11925157792E+03  0.13235314650E+03  0.00000000000E+00 0. -1.
         22    1    3    3    0    0 -0.12609758682E+02 -0.89786656895E+02  0.10871376457E+02  0.91317230556E+02  0.00000000000E+00 0. -1.
         22    1    3    3    0    0  0.59253612509E+01  0.40379099361E+02 -0.14489349907E+02  0.43307306912E+02  0.00000000000E+00 0. -1.
</event>
<event>
 7    1  0.6255318E-006  0.7124572E+02  0.7818608E-02  0.1411649E+00
          2   -1    0    0  502    0  0.00000000000E+00  0.00000000000E+00  0.34515523850E+04  0.34515523850E+04  0.00000000000E+00 0. -1.
          1   -1    0    0  501    0 -0.00000000000E+00 -0.00000000000E+00 -0.34312957107E+03  0.34312957107E+03  0.00000000000E+00 0. -1.
         25    2    1    2    0    0  0.23221943741E+02  0.49823973455E+02  0.70274675625E+03  0.71589051025E+03  0.12499812898E+03 0.  0.
          2    1    1    2  501    0 -0.39876592928E+02  0.21550358853E+02 -0.33453932111E+03  0.33759608707E+03  0.00000000000E+00 0. -1.
          1    1    1    2  502    0  0.16654649187E+02 -0.71374332309E+02  0.27402153788E+04  0.27411953587E+04  0.00000000000E+00 0. -1.
         22    1    3    3    0    0  0.44023873204E+01  0.90491007993E+02  0.51174108163E+03  0.51969889183E+03  0.00000000000E+00 0.  1.
         22    1    3    3    0    0  0.18819556421E+02 -0.40667034538E+02  0.19100567462E+03  0.19619161842E+03  0.00000000000E+00 0.  1.
</event>
<event>
 7    1  0.6255318E-006  0.1264259E+03  0.7818608E-02  0.1315144E+00
          2   -1    0    0  502    0  0.00000000000E+00  0.00000000000E+00  0.28049070186E+04  0.28049070186E+04  0.00000000000E+00 0. -1.
          1   -1    0    0  501    0 -0.00000000000E+00 -0.00000000000E+00 -0.25739038505E+02  0.25739038505E+02  0.00000000000E+00 0. -1.
         25    2    1    2    0    0  0.91380109380E+02 -0.50277201066E+02  0.11377783704E+04  0.11493663451E+04  0.12500101540E+03 0.  0.
          2    1    1    2  501    0 -0.50330319661E+00 -0.57294504703E+02  0.31776488965E+02  0.65518385467E+02  0.00000000000E+00 0. -1.
          1    1    1    2  502    0 -0.90876806183E+02  0.10757170577E+03  0.16096131208E+04  0.16157613265E+04  0.00000000000E+00 0. -1.
         22    1    3    3    0    0  0.44880340137E+02  0.19932491159E+02  0.79048686961E+03  0.79201075760E+03  0.00000000000E+00 0.  1.
         22    1    3    3    0    0  0.46499769243E+02 -0.70209692225E+02  0.34729150080E+03  0.35735558755E+03  0.00000000000E+00 0.  1.
</event>
<event>
 7    1  0.6255318E-006  0.1524378E+03  0.7818608E-02  0.1319646E+00
          2   -1    0    0  502    0  0.00000000000E+00  0.00000000000E+00  0.14587544695E+04  0.14587544695E+04  0.00000000000E+00 0. -1.
          1   -1    0    0  501    0 -0.00000000000E+00 -0.00000000000E+00 -0.51939794938E+03  0.51939794938E+03  0.00000000000E+00 0. -1.
         25    2    1    2    0    0 -0.16305442482E+02  0.16169489440E+03  0.11474368356E+04  0.11656106567E+04  0.12500321967E+03 0.  0.
          2    1    1    2  501    0 -0.32072787875E+02 -0.32469178896E+02 -0.49345360770E+03  0.49555965761E+03  0.00000000000E+00 0. -1.
          1    1    1    2  502    0  0.48378230357E+02 -0.12922571551E+03  0.28537329215E+03  0.31698210453E+03  0.00000000000E+00 0. -1.
         22    1    3    3    0    0  0.19941745372E+02  0.15687895057E+03  0.74976180934E+03  0.76625808256E+03  0.00000000000E+00 0.  1.
         22    1    3    3    0    0 -0.36247187854E+02  0.48159438357E+01  0.39767502628E+03  0.39935257413E+03  0.00000000000E+00 0.  1.
</event>
<event>
 7    1  0.6255318E-006  0.1308951E+03  0.7818608E-02  0.1281196E+00
          2   -1    0    0  502    0  0.00000000000E+00  0.00000000000E+00  0.86699820453E+03  0.86699820453E+03  0.00000000000E+00 0. -1.
          1   -1    0    0  501    0 -0.00000000000E+00 -0.00000000000E+00 -0.27576574404E+03  0.27576574404E+03  0.00000000000E+00 0. -1.
         25    2    1    2    0    0  0.16546232245E+03 -0.30523673950E+02  0.15369720918E+03  0.25991976865E+03  0.12500391676E+03 0.  0.
          2    1    1    2  501    0 -0.41591393578E+02  0.63305734621E+02 -0.20974489385E+03  0.22300309539E+03  0.00000000000E+00 0. -1.
          1    1    1    2  502    0 -0.12387092887E+03 -0.32782060671E+02  0.64728014516E+03  0.65984108454E+03  0.00000000000E+00 0. -1.
         22    1    3    3    0    0  0.21186751861E+02 -0.32612116095E+02 -0.11524489066E+02  0.40561587972E+02  0.00000000000E+00 0.  1.
         22    1    3    3    0    0  0.14427557059E+03  0.20884421452E+01  0.16522169825E+03  0.21935818068E+03  0.00000000000E+00 0.  1.
</event>
<event>
 7    1  0.6255318E-006  0.8872622E+02  0.7818608E-02  0.1357516E+00
          2   -1    0    0  502    0  0.00000000000E+00  0.00000000000E+00  0.87064287922E+03  0.87064287922E+03  0.00000000000E+00 0. -1.
          1   -1    0    0  501    0 -0.00000000000E+00 -0.00000000000E+00 -0.20023497565E+03  0.20023497565E+03  0.00000000000E+00 0. -1.
         25    2    1    2    0    0  0.99932936587E+02 -0.96453912043E+02  0.46947712440E+03  0.50529497016E+03  0.12499715027E+03 0.  0.
          2    1    1    2  501    0 -0.48601461411E+02  0.72996680444E+02 -0.16951863924E+03  0.19085907486E+03  0.00000000000E+00 0. -1.
          1    1    1    2  502    0 -0.51331475176E+02  0.23457231599E+02  0.37044941841E+03  0.37472380984E+03  0.00000000000E+00 0. -1.
         22    1    3    3    0    0  0.90075035544E+02 -0.29855670150E+02  0.38882225104E+03  0.40023445126E+03  0.00000000000E+00 0.  1.
         22    1    3    3    0    0  0.98579010433E+01 -0.66598241893E+02  0.80654873355E+02  0.10506051890E+03  0.00000000000E+00 0.  1.
</event>
<event>
 7    1  0.6255318E-006  0.6720822E+02  0.7818608E-02  0.1446047E+00
          2   -1    0    0  502    0  0.00000000000E+00  0.00000000000E+00  0.24474594344E+04  0.24474594344E+04  0.00000000000E+00 0. -1.
          1   -1    0    0  501    0 -0.00000000000E+00 -0.00000000000E+00 -0.17650261867E+02  0.17650261867E+02  0.00000000000E+00 0. -1.
         25    2    1    2    0    0  0.19138263740E+02 -0.45746450941E+02  0.61883702145E+03  0.63327908060E+03  0.12499649553E+03 0.  0.
          2    1    1    2  501    0  0.36734342567E+02  0.44567332451E+01  0.25342427784E+02  0.44849894549E+02  0.00000000000E+00 0. -1.
          1    1    1    2  502    0 -0.55872606307E+02  0.41289717696E+02  0.17856297233E+04  0.17869807212E+04  0.00000000000E+00 0. -1.
         22    1    3    3    0    0 -0.47056915603E+02 -0.11684648372E+02  0.38075105905E+03  0.38382581112E+03  0.00000000000E+00 0. -1.
         22    1    3    3    0    0  0.66195179343E+02 -0.34061802569E+02  0.23808596240E+03  0.24945326948E+03  0.00000000000E+00 0. -1.
</event>
<event>
 7    1  0.6255318E-006  0.8110753E+02  0.7818608E-02  0.1378341E+00
          2   -1    0    0  502    0  0.00000000000E+00  0.00000000000E+00  0.50097673542E+03  0.50097673542E+03  0.00000000000E+00 0. -1.
          1   -1    0    0  501    0 -0.00000000000E+00 -0.00000000000E+00 -0.21066600722E+04  0.21066600722E+04  0.00000000000E+00 0. -1.
         25    2    1    2    0    0  0.45086433888E+02  0.43298144007E+02 -0.23691745875E+03  0.27506683270E+03  0.12499745756E+03 0.  0.
          2    1    1    2  501    0  0.36235243922E+02 -0.37204369577E+02 -0.18468502284E+04  0.18475802890E+04  0.00000000000E+00 0. -1.
          1    1    1    2  502    0 -0.81321677810E+02 -0.60937744302E+01  0.47808435039E+03  0.48498968593E+03  0.00000000000E+00 0. -1.
         22    1    3    3    0    0  0.29759108526E+02  0.26418565388E+02 -0.28545227177E+01  0.39896032852E+02  0.00000000000E+00 0. -1.
         22    1    3    3    0    0  0.15327325362E+02  0.16879578619E+02 -0.23406293604E+03  0.23517079985E+03  0.00000000000E+00 0. -1.
</event>
<event>
 7    1  0.9978009E-006  0.1586515E+03  0.7818608E-02  0.1374121E+00
          2   -1    0    0  502    0  0.00000000000E+00  0.00000000000E+00  0.15303319549E+04  0.15303319549E+04  0.00000000000E+00 0. -1.
          1   -1    0    0  501    0 -0.00000000000E+00 -0.00000000000E+00 -0.17366687404E+04  0.17366687404E+04  0.00000000000E+00 0. -1.
         25    2    1    2    0    0 -0.11579182389E+03 -0.75385417496E+02 -0.35266748283E+03  0.39885430807E+03  0.12497879007E+03 0.  0.
          2    1    1    2  501    0 -0.26922227254E+02  0.55350810201E+01 -0.13565807335E+04  0.13568591416E+04  0.00000000000E+00 0. -1.
          1    1    1    2  502    0  0.14271405115E+03  0.69850336476E+02  0.15029114309E+04  0.15112872457E+04  0.00000000000E+00 0. -1.
         22    1    3    3    0    0 -0.11543286755E+03 -0.10181218335E+03 -0.32962799393E+03  0.36379263595E+03  0.00000000000E+00 0. -1.
         22    1    3    3    0    0 -0.35895634354E+00  0.26426765851E+02 -0.23039488904E+02  0.35061672122E+02  0.00000000000E+00 0. -1.
</event>
<event>
 7    1  0.6255318E-006  0.1318816E+03  0.7818608E-02  0.1288176E+00
          2   -1    0    0  502    0  0.00000000000E+00  0.00000000000E+00  0.80723314249E+03  0.80723314249E+03  0.00000000000E+00 0. -1.
          1   -1    0    0  501    0 -0.00000000000E+00 -0.00000000000E+00 -0.18010779285E+03  0.18010779285E+03  0.00000000000E+00 0. -1.
         25    2    1    2    0    0 -0.63872374596E+02  0.16462546441E+03  0.24881414042E+02  0.21778153962E+03  0.12501396108E+03 0.  0.
          2    1    1    2  501    0  0.70166566575E+02 -0.94524252065E+02 -0.39344756338E+02  0.12412167879E+03  0.00000000000E+00 0. -1.
          1    1    1    2  502    0 -0.62941919796E+01 -0.70101212346E+02  0.64158869193E+03  0.64543771693E+03  0.00000000000E+00 0. -1.
         22    1    3    3    0    0 -0.87895600204E+02  0.55723210643E+02  0.21153394736E+02  0.10619877047E+03  0.00000000000E+00 0. -1.
         22    1    3    3    0    0  0.24023225608E+02  0.10890225377E+03  0.37280193054E+01  0.11158276915E+03  0.00000000000E+00 0. -1.
</event>
<event>
 7    1  0.6255318E-006  0.7824873E+02  0.7818608E-02  0.1407206E+00
          2   -1    0    0  502    0  0.00000000000E+00  0.00000000000E+00  0.22057630393E+04  0.22057630393E+04  0.00000000000E+00 0. -1.
          1   -1    0    0  501    0 -0.00000000000E+00 -0.00000000000E+00 -0.24320181114E+03  0.24320181114E+03  0.00000000000E+00 0. -1.
         25    2    1    2    0    0 -0.42163499762E+02  0.98853243236E+02  0.78171118915E+03  0.79890397650E+03  0.12500182408E+03 0.  0.
          2    1    1    2  501    0 -0.74015660881E+01 -0.42081603236E+02 -0.23164706307E+03  0.23555467803E+03  0.00000000000E+00 0. -1.
          1    1    1    2  502    0  0.49565065851E+02 -0.56771640000E+02  0.14124971020E+04  0.14145061959E+04  0.00000000000E+00 0. -1.
         22    1    3    3    0    0  0.28140936894E+02  0.73234232007E+02  0.54581179469E+03  0.55142150873E+03  0.00000000000E+00 0. -1.
         22    1    3    3    0    0 -0.70304436656E+02  0.25619011230E+02  0.23589939446E+03  0.24748246777E+03  0.00000000000E+00 0. -1.
</event>
<event>
 7    1  0.6255318E-006  0.9175702E+02  0.7818608E-02  0.1354201E+00
          2   -1    0    0  502    0  0.00000000000E+00  0.00000000000E+00  0.16688484049E+04  0.16688484049E+04  0.00000000000E+00 0. -1.
          1   -1    0    0  501    0 -0.00000000000E+00 -0.00000000000E+00 -0.84191434250E+03  0.84191434250E+03  0.00000000000E+00 0. -1.
         25    2    1    2    0    0 -0.21938909757E+02 -0.11161701015E+03  0.14608796831E+03  0.22339271240E+03  0.12499174674E+03 0.  0.
          2    1    1    2  501    0  0.59381487775E+02  0.69808046420E+02 -0.80011456170E+03  0.80534628346E+03  0.00000000000E+00 0. -1.
          1    1    1    2  502    0 -0.37442578019E+02  0.41808963727E+02  0.14809606558E+04  0.14820237515E+04  0.00000000000E+00 0. -1.
         22    1    3    3    0    0  0.38039858290E+02 -0.71703869115E+01  0.72669793340E+02  0.82336772655E+02  0.00000000000E+00 0.  1.
         22    1    3    3    0    0 -0.59978768047E+02 -0.10444662324E+03  0.73418174969E+02  0.14105593975E+03  0.00000000000E+00 0.  1.
</event>
<event>
 7    1  0.6255318E-006  0.1174635E+03  0.7818608E-02  0.1354837E+00
          2   -1    0    0  502    0  0.00000000000E+00  0.00000000000E+00  0.11971389112E+04  0.11971389112E+04  0.00000000000E+00 0. -1.
          1   -1    0    0  501    0 -0.00000000000E+00 -0.00000000000E+00 -0.10484987871E+04  0.10484987871E+04  0.00000000000E+00 0. -1.
         25    2    1    2    0    0  0.10702577047E+03  0.11830667001E+03 -0.77521719987E+00  0.20267904278E+03  0.12500883850E+03 0.  0.
          2    1    1    2  501    0 -0.79194381113E+02 -0.84737068890E+02 -0.94278284749E+03  0.94989031912E+03  0.00000000000E+00 0. -1.
          1    1    1    2  502    0 -0.27831389361E+02 -0.33569601122E+02  0.10921981888E+04  0.10930683364E+04  0.00000000000E+00 0. -1.
         22    1    3    3    0    0  0.77738406786E+02  0.17766911636E+02  0.41324686259E+02  0.89814546333E+02  0.00000000000E+00 0.  1.
         22    1    3    3    0    0  0.29287363688E+02  0.10053975838E+03 -0.42099903459E+02  0.11286449644E+03  0.00000000000E+00 0.  1.
</event>
<event>
 7    1  0.6255318E-006  0.8741038E+02  0.7818608E-02  0.1342760E+00
          2   -1    0    0  502    0  0.00000000000E+00  0.00000000000E+00  0.28660484631E+04  0.28660484631E+04  0.00000000000E+00 0. -1.
          1   -1    0    0  501    0 -0.00000000000E+00 -0.00000000000E+00 -0.12083394749E+04  0.12083394749E+04  0.00000000000E+00 0. -1.
         25    2    1    2    0    0 -0.14514823053E+02 -0.68952307264E+02 -0.89647950385E+03  0.90789094962E+03  0.12500149922E+03 0.  0.
          2    1    1    2  501    0 -0.35859039125E+01  0.13135089525E+03 -0.29166734536E+03  0.31989960415E+03  0.00000000000E+00 0. -1.
          1    1    1    2  502    0  0.18100726965E+02 -0.62398587985E+02  0.28458558375E+04  0.28465973842E+04  0.00000000000E+00 0. -1.
         22    1    3    3    0    0 -0.46098947062E+02  0.14946027523E+02 -0.44243633393E+03  0.44508247128E+03  0.00000000000E+00 0.  1.
         22    1    3    3    0    0  0.31584124009E+02 -0.83898334788E+02 -0.45404316992E+03  0.46280847834E+03  0.00000000000E+00 0.  1.
</event>
<event>
 7    1  0.6255318E-006  0.1117777E+03  0.7818608E-02  0.1310307E+00
          2   -1    0    0  502    0  0.00000000000E+00  0.00000000000E+00  0.54782204009E+03  0.54782204009E+03  0.00000000000E+00 0. -1.
          1   -1    0    0  501    0 -0.00000000000E+00 -0.00000000000E+00 -0.71935219638E+03  0.71935219638E+03  0.00000000000E+00 0. -1.
         25    2    1    2    0    0 -0.46292922781E+02  0.98679661031E+02 -0.45946888113E+03  0.48848420330E+03  0.12499781578E+03 0.  0.
          2    1    1    2  501    0  0.66714890694E+02  0.11509319700E+02 -0.23464969009E+03  0.24422083887E+03  0.00000000000E+00 0. -1.
          1    1    1    2  502    0 -0.20421967913E+02 -0.11018898073E+03  0.52258841492E+03  0.53446919430E+03  0.00000000000E+00 0. -1.
         22    1    3    3    0    0 -0.35818030514E+02  0.26288645096E+01 -0.29916963195E+03  0.30131762464E+03  0.00000000000E+00 0. -1.
         22    1    3    3    0    0 -0.10474892267E+02  0.96050796521E+02 -0.16029924918E+03  0.18716657866E+03  0.00000000000E+00 0. -1.
</event>
<event>
 7    1  0.6255318E-006  0.6585887E+02  0.7818608E-02  0.1472828E+00
          2   -1    0    0  502    0  0.00000000000E+00  0.00000000000E+00  0.33201701857E+03  0.33201701857E+03  0.00000000000E+00 0. -1.
          1   -1    0    0  501    0 -0.00000000000E+00 -0.00000000000E+00 -0.19440562635E+03  0.19440562635E+03  0.00000000000E+00 0. -1.
         25    2    1    2    0    0  0.39361999264E+02 -0.36017346881E+01  0.21483847461E+03  0.25167991196E+03  0.12499947373E+03 0.  0.
          2    1    1    2  501    0 -0.61654754063E+02  0.25259530239E+02 -0.16696840086E+03  0.17977152013E+03  0.00000000000E+00 0. -1.
          1    1    1    2  502    0  0.22292754799E+02 -0.21657795551E+02  0.89741318468E+02  0.94971212823E+02  0.00000000000E+00 0. -1.
         22    1    3    3    0    0  0.28671371873E+02  0.60005706098E+02  0.10422611847E+03  0.12363582046E+03  0.00000000000E+00 0.  1.
         22    1    3    3    0    0  0.10690627391E+02 -0.63607440786E+02  0.11061235613E+03  0.12804409149E+03  0.00000000000E+00 0.  1.
</event>
<event>
 7    1  0.6255318E-006  0.9044624E+02  0.7818608E-02  0.1315395E+00
          2   -1    0    0  502    0  0.00000000000E+00  0.00000000000E+00  0.11285167418E+04  0.11285167418E+04  0.00000000000E+00 0. -1.
          1   -1    0    0  501    0 -0.00000000000E+00 -0.00000000000E+00 -0.16941278218E+04  0.16941278218E+04  0.00000000000E+00 0. -1.
         25    2    1    2    0    0  0.12435891451E+02 -0.11400853818E+02  0.11607391030E+03  0.17141303096E+03  0.12499857465E+03 0.  0.
          2    1    1    2  501    0  0.60328327356E+02 -0.52401422682E+02 -0.16631190983E+04  0.16650377026E+04  0.00000000000E+00 0. -1.
          1    1    1    2  502    0 -0.72764218807E+02  0.63802276500E+02  0.98143410794E+03  0.98619382996E+03  0.00000000000E+00 0. -1.
         22    1    3    3    0    0 -0.29557249742E+01  0.38047761991E+02  0.11329518943E+03  0.11954985759E+03  0.00000000000E+00 0.  1.
         22    1    3    3    0    0  0.15391616426E+02 -0.49448615808E+02  0.27787208732E+01  0.51863173363E+02  0.00000000000E+00 0.  1.
</event>
<event>
 7    1  0.6255318E-006  0.1078232E+03  0.7818608E-02  0.1293307E+00
          2   -1    0    0  502    0  0.00000000000E+00  0.00000000000E+00  0.51527302316E+03  0.51527302316E+03  0.00000000000E+00 0. -1.
          1   -1    0    0  501    0 -0.00000000000E+00 -0.00000000000E+00 -0.25933161693E+03  0.25933161693E+03  0.00000000000E+00 0. -1.
         25    2    1    2    0    0  0.23581208336E+02 -0.36933394759E+02  0.14063762849E+03  0.19319504794E+03  0.12500093986E+03 0.  0.
          2    1    1    2  501    0  0.50529099698E+01  0.11382901047E+03 -0.21378086393E+03  0.24224952695E+03  0.00000000000E+00 0. -1.
          1    1    1    2  502    0 -0.28634118306E+02 -0.76895615714E+02  0.32908464166E+03  0.33916006520E+03  0.00000000000E+00 0. -1.
         22    1    3    3    0    0 -0.48416229662E+02 -0.61036315715E+01  0.81744492885E+02  0.95202666612E+02  0.00000000000E+00 0. -1.
         22    1    3    3    0    0  0.71997437998E+02 -0.30829763188E+02  0.58893135608E+02  0.97992381327E+02  0.00000000000E+00 0. -1.
</event>
<event>
 7    1  0.6255318E-006  0.9269219E+02  0.7818608E-02  0.1357099E+00
          2   -1    0    0  502    0  0.00000000000E+00  0.00000000000E+00  0.12530048913E+04  0.12530048913E+04  0.00000000000E+00 0. -1.
          1   -1    0    0  501    0 -0.00000000000E+00 -0.00000000000E+00 -0.98089235893E+02  0.98089235893E+02  0.00000000000E+00 0. -1.
         25    2    1    2    0    0 -0.69327503053E+02 -0.67738506115E+02  0.71147382166E+03  0.72884424943E+03  0.12499653245E+03 0.  0.
          2    1    1    2  501    0  0.91276929229E+02  0.18167667091E+02 -0.63339966900E+02  0.11257661100E+03  0.00000000000E+00 0. -1.
          1    1    1    2  502    0 -0.21949426177E+02  0.49570839024E+02  0.50678180062E+03  0.50967326674E+03  0.00000000000E+00 0. -1.
         22    1    3    3    0    0  0.14765569854E+02 -0.70174268670E+02  0.39040940523E+03  0.39694074335E+03  0.00000000000E+00 0. -1.
         22    1    3    3    0    0 -0.84093072907E+02  0.24357625558E+01  0.32106441643E+03  0.33190350608E+03  0.00000000000E+00 0. -1.
</event>
<event>
 7    1  0.6255318E-006  0.1177886E+03  0.7818608E-02  0.1347879E+00
          2   -1    0    0  502    0  0.00000000000E+00  0.00000000000E+00  0.69651721465E+03  0.69651721465E+03  0.00000000000E+00 0. -1.
          1   -1    0    0  501    0 -0.00000000000E+00 -0.00000000000E+00 -0.43921043957E+03  0.43921043957E+03  0.00000000000E+00 0. -1.
         25    2    1    2    0    0  0.48655867296E+02 -0.10797430809E+03  0.19045775330E+03  0.25675956115E+03  0.12500188727E+03 0.  0.
          2    1    1    2  501    0 -0.36279487573E+01  0.11804274228E+03 -0.39630198166E+03  0.41352449950E+03  0.00000000000E+00 0. -1.
          1    1    1    2  502    0 -0.45027918539E+02 -0.10068434195E+02  0.46315100344E+03  0.46544359358E+03  0.00000000000E+00 0. -1.
         22    1    3    3    0    0  0.53959998997E+02 -0.93805946021E+02  0.20746728943E+03  0.23399554095E+03  0.00000000000E+00 0.  1.
         22    1    3    3    0    0 -0.53041317012E+01 -0.14168362065E+02 -0.17009536126E+02  0.22764020206E+02  0.00000000000E+00 0.  1.
</event>
<event>
 7    1  0.6255318E-006  0.5936192E+02  0.7818608E-02  0.1442640E+00
          2   -1    0    0  502    0  0.00000000000E+00  0.00000000000E+00  0.22097520121E+03  0.22097520121E+03  0.00000000000E+00 0. -1.
          1   -1    0    0  501    0 -0.00000000000E+00 -0.00000000000E+00 -0.30697077354E+03  0.30697077354E+03  0.00000000000E+00 0. -1.
         25    2    1    2    0    0 -0.72359595630E+02 -0.59997193617E+02  0.31107610733E+02  0.15946287675E+03  0.12500060517E+03 0.  0.
          2    1    1    2  501    0  0.40809786128E+02  0.13448104337E+02 -0.23445172320E+03  0.23835666692E+03  0.00000000000E+00 0. -1.
          1    1    1    2  502    0  0.31549809502E+02  0.46549089280E+02  0.11734854014E+03  0.13012643108E+03  0.00000000000E+00 0. -1.
         22    1    3    3    0    0 -0.27426933058E+02 -0.74462743994E+02 -0.27704351513E+02  0.84050389606E+02  0.00000000000E+00 0.  1.
         22    1    3    3    0    0 -0.44932662572E+02  0.14465550377E+02  0.58811962246E+02  0.75412487141E+02  0.00000000000E+00 0.  1.
</event>
<event>
 7    1  0.6255318E-006  0.8008540E+02  0.7818608E-02  0.1417551E+00
          2   -1    0    0  502    0  0.00000000000E+00  0.00000000000E+00  0.12724669354E+04  0.12724669354E+04  0.00000000000E+00 0. -1.
          1   -1    0    0  501    0 -0.00000000000E+00 -0.00000000000E+00 -0.69894457143E+03  0.69894457143E+03  0.00000000000E+00 0. -1.
         25    2    1    2    0    0 -0.74453704429E+02 -0.80652958675E+02 -0.11789788075E+03  0.20389295654E+03  0.12499669433E+03 0.  0.
          2    1    1    2  501    0  0.65290239360E+02  0.43238002719E+02 -0.53489578361E+03  0.54059766884E+03  0.00000000000E+00 0. -1.
          1    1    1    2  502    0  0.91634650687E+01  0.37414955956E+02  0.12263160284E+04  0.12269208815E+04  0.00000000000E+00 0. -1.
         22    1    3    3    0    0 -0.56199372607E+02 -0.11462043515E+03 -0.93924085190E+02  0.15848642659E+03  0.00000000000E+00 0.  1.
         22    1    3    3    0    0 -0.18254331822E+02  0.33967476471E+02 -0.23973795561E+02  0.45406529946E+02  0.00000000000E+00 0.  1.
</event>
<event>
 7    1  0.6255318E-006  0.9501716E+02  0.7818608E-02  0.1371516E+00
          2   -1    0    0  502    0  0.00000000000E+00  0.00000000000E+00  0.18791760667E+03  0.18791760667E+03  0.00000000000E+00 0. -1.
          1   -1    0    0  501    0 -0.00000000000E+00 -0.00000000000E+00 -0.12728170919E+04  0.12728170919E+04  0.00000000000E+00 0. -1.
         25    2    1    2    0    0  0.62052990752E+02  0.95042820317E+02 -0.11179461212E+03  0.20250035206E+03  0.12499858372E+03 0.  0.
          2    1    1    2  501    0 -0.15193664973E+02 -0.93379532794E+02 -0.11097463164E+04  0.11137717321E+04  0.00000000000E+00 0. -1.
          1    1    1    2  502    0 -0.46859325778E+02 -0.16632875228E+01  0.13664144326E+03  0.14446261438E+03  0.00000000000E+00 0. -1.
         22    1    3    3    0    0  0.88782077810E+02  0.10726967146E+03 -0.88415758387E+02  0.16494358455E+03  0.00000000000E+00 0.  1.
         22    1    3    3    0    0 -0.26729087059E+02 -0.12226851139E+02 -0.23378853732E+02  0.37556767507E+02  0.00000000000E+00 0.  1.
</event>
<event>
 7    1  0.6255318E-006  0.8207594E+02  0.7818608E-02  0.1388627E+00
          2   -1    0    0  502    0  0.00000000000E+00  0.00000000000E+00  0.48105146488E+03  0.48105146488E+03  0.00000000000E+00 0. -1.
          1   -1    0    0  501    0 -0.00000000000E+00 -0.00000000000E+00 -0.24367130957E+03  0.24367130957E+03  0.00000000000E+00 0. -1.
         25    2    1    2    0    0 -0.25112613775E+02  0.58079584882E+02  0.74589721746E+02  0.15872064489E+03  0.12499893989E+03 0.  0.
          2    1    1    2  501    0 -0.45991008221E+02 -0.10669785845E+02 -0.19372083957E+03  0.19939102500E+03  0.00000000000E+00 0. -1.
          1    1    1    2  502    0  0.71103621996E+02 -0.47409799038E+02  0.35651127314E+03  0.36661110455E+03  0.00000000000E+00 0. -1.
         22    1    3    3    0    0  0.90625124898E+01 -0.95689858537E+01  0.81552476418E+02  0.82610538267E+02  0.00000000000E+00 0. -1.
         22    1    3    3    0    0 -0.34175126264E+02  0.67648570736E+02 -0.69627546725E+01  0.76110106625E+02  0.00000000000E+00 0. -1.
</event>
<event>
 7    1  0.6255318E-006  0.4449431E+02  0.7818608E-02  0.1506394E+00
          2   -1    0    0  502    0  0.00000000000E+00  0.00000000000E+00  0.28450610380E+03  0.28450610380E+03  0.00000000000E+00 0. -1.
          1   -1    0    0  501    0 -0.00000000000E+00 -0.00000000000E+00 -0.28161548445E+04  0.28161548445E+04  0.00000000000E+00 0. -1.
         25    2    1    2    0    0 -0.31547072293E+02 -0.41165213162E+02 -0.13972405531E+03  0.19451860446E+03  0.12499953322E+03 0.  0.
          2    1    1    2  501    0 -0.47255937300E+01  0.44289481363E+02 -0.26475564367E+04  0.26479310744E+04  0.00000000000E+00 0. -1.
          1    1    1    2  502    0  0.36272666023E+02 -0.31242682018E+01  0.25563175133E+03  0.25821126939E+03  0.00000000000E+00 0. -1.
         22    1    3    3    0    0  0.43197012635E+01  0.41913319614E+02 -0.63474501339E+02  0.76186603155E+02  0.00000000000E+00 0.  1.
         22    1    3    3    0    0 -0.35866773556E+02 -0.83078532775E+02 -0.76249553969E+02  0.11833200131E+03  0.00000000000E+00 0.  1.
</event>
<event>
 7    1  0.6255318E-006  0.7968421E+02  0.7818608E-02  0.1330683E+00
          2   -1    0    0  502    0  0.00000000000E+00  0.00000000000E+00  0.45391110079E+03  0.45391110079E+03  0.00000000000E+00 0. -1.
          1   -1    0    0  501    0 -0.00000000000E+00 -0.00000000000E+00 -0.98194296950E+03  0.98194296950E+03  0.00000000000E+00 0. -1.
         25    2    1    2    0    0  0.17514022686E+02 -0.82540070296E+02 -0.34139680075E+03  0.37322367603E+03  0.12499813033E+03 0.  0.
          2    1    1    2  501    0 -0.78427028912E+02  0.31964325130E+02 -0.61814383130E+03  0.62391851481E+03  0.00000000000E+00 0. -1.
          1    1    1    2  502    0  0.60913006226E+02  0.50575745166E+02  0.43150876335E+03  0.43871187946E+03  0.00000000000E+00 0. -1.
         22    1    3    3    0    0  0.32356775274E+02 -0.48713316579E+02 -0.32915271460E+03  0.33430742984E+03  0.00000000000E+00 0. -1.
         22    1    3    3    0    0 -0.14842752588E+02 -0.33826753718E+02 -0.12244086153E+02  0.38916246186E+02  0.00000000000E+00 0. -1.
</event>
<event>
 7    1  0.6348718E-006  0.9027613E+02  0.7818608E-02  0.1331579E+00
          2   -1    0    0  502    0  0.00000000000E+00  0.00000000000E+00  0.39146279008E+04  0.39146279008E+04  0.00000000000E+00 0. -1.
          1   -1    0    0  501    0 -0.00000000000E+00 -0.00000000000E+00 -0.73476406834E+03  0.73476406834E+03  0.00000000000E+00 0. -1.
         25    2    1    2    0    0 -0.12006059785E+03 -0.97861964486E+02 -0.32886701903E+03  0.38440884980E+03  0.12500054541E+03 0.  0.
          2    1    1    2  501    0  0.63651000182E+02  0.27494876838E+02 -0.37441970365E+03  0.38078541537E+03  0.00000000000E+00 0. -1.
          1    1    1    2  502    0  0.56409597666E+02  0.70367087648E+02  0.38831505551E+04  0.38841977039E+04  0.00000000000E+00 0. -1.
         22    1    3    3    0    0 -0.86587092350E+02 -0.47658393152E+02 -0.30308246625E+03  0.31879088498E+03  0.00000000000E+00 0.  1.
         22    1    3    3    0    0 -0.33473505498E+02 -0.50203571334E+02 -0.25784552777E+02  0.65617964819E+02  0.00000000000E+00 0.  1.
</event>
<event>
 7    1  0.6255318E-006  0.1110751E+03  0.7818608E-02  0.1426088E+00
          2   -1    0    0  502    0  0.00000000000E+00  0.00000000000E+00  0.14757571086E+04  0.14757571086E+04  0.00000000000E+00 0. -1.
          1   -1    0    0  501    0 -0.00000000000E+00 -0.00000000000E+00 -0.12846427786E+03  0.12846427786E+03  0.00000000000E+00 0. -1.
         25    2    1    2    0    0 -0.10870008225E+03 -0.42322094402E+00  0.24853163509E+03  0.29867815347E+03  0.12499911488E+03 0.  0.
          2    1    1    2  501    0  0.10866281121E+03 -0.25589980086E+02 -0.73070265529E+02  0.13342307643E+03  0.00000000000E+00 0. -1.
          1    1    1    2  502    0  0.37271045727E-01  0.26013201030E+02  0.11718314611E+04  0.11721201565E+04  0.00000000000E+00 0. -1.
         22    1    3    3    0    0 -0.31568933734E+02 -0.16199212346E+02 -0.25197469174E+01  0.35571915639E+02  0.00000000000E+00 0.  1.
         22    1    3    3    0    0 -0.77131148519E+02  0.15775991402E+02  0.25105138201E+03  0.26310623783E+03  0.00000000000E+00 0.  1.
</event>
<event>
 7    1  0.6255318E-006  0.1283727E+03  0.7818608E-02  0.1321485E+00
          2   -1    0    0  502    0  0.00000000000E+00  0.00000000000E+00  0.24967758453E+03  0.24967758453E+03  0.00000000000E+00 0. -1.
          1   -1    0    0  501    0 -0.00000000000E+00 -0.00000000000E+00 -0.85385589515E+03  0.85385589515E+03  0.00000000000E+00 0. -1.
         25    2    1    2    0    0  0.28678850826E+02  0.14210849287E+03 -0.10259285892E+03  0.21718033050E+03  0.12499880409E+03 0.  0.
          2    1    1    2  501    0  0.40194515540E+02 -0.35022875131E+02 -0.67173109928E+03  0.67384335762E+03  0.00000000000E+00 0. -1.
          1    1    1    2  502    0 -0.68873366366E+02 -0.10708561774E+03  0.17014564758E+03  0.21250979157E+03  0.00000000000E+00 0. -1.
         22    1    3    3    0    0  0.68936399018E+02  0.36256115680E+02 -0.36038792664E+02  0.85822652082E+02  0.00000000000E+00 0. -1.
         22    1    3    3    0    0 -0.40257548192E+02  0.10585237719E+03 -0.66554066259E+02  0.13135767842E+03  0.00000000000E+00 0. -1.
</event>
<event>
 7    1  0.6255318E-006  0.1244433E+03  0.7818608E-02  0.1305077E+00
          2   -1    0    0  502    0  0.00000000000E+00  0.00000000000E+00  0.66826433221E+03  0.66826433221E+03  0.00000000000E+00 0. -1.
          1   -1    0    0  501    0 -0.00000000000E+00 -0.00000000000E+00 -0.23888794226E+03  0.23888794226E+03  0.00000000000E+00 0. -1.
         25    2    1    2    0    0 -0.12383895365E+03 -0.67861929716E+02 -0.39946432406E+02  0.19277365443E+03  0.12499854573E+03 0.  0.
          2    1    1    2  501    0  0.53539932113E+02 -0.34654572249E+02 -0.10712945196E+03  0.12467631365E+03  0.00000000000E+00 0. -1.
          1    1    1    2  502    0  0.70299021540E+02  0.10251650196E+03  0.57645227431E+03  0.58970230639E+03  0.00000000000E+00 0. -1.
         22    1    3    3    0    0 -0.10488595408E+02 -0.62175024546E+02 -0.47629495108E+02  0.79020966301E+02  0.00000000000E+00 0.  1.
         22    1    3    3    0    0 -0.11335035825E+03 -0.56869051695E+01  0.76830627017E+01  0.11375268813E+03  0.00000000000E+00 0.  1.
</event>
<event>
 7    1  0.6255318E-006  0.1281508E+03  0.7818608E-02  0.1357706E+00
          2   -1    0    0  502    0  0.00000000000E+00  0.00000000000E+00  0.93247256098E+03  0.93247256098E+03  0.00000000000E+00 0. -1.
          1   -1    0    0  501    0 -0.00000000000E+00 -0.00000000000E+00 -0.17996539135E+03  0.17996539135E+03  0.00000000000E+00 0. -1.
         25    2    1    2    0    0  0.77153038867E+02  0.12373885786E+03 -0.10478548251E+01  0.19206722168E+03  0.12499929317E+03 0.  0.
          2    1    1    2  501    0 -0.39235947393E+02 -0.11455999109E+03 -0.38722472668E+02  0.12713331985E+03  0.00000000000E+00 0. -1.
          1    1    1    2  502    0 -0.37917091475E+02 -0.91788667698E+01  0.79227749713E+03  0.79323741079E+03  0.00000000000E+00 0. -1.
         22    1    3    3    0    0  0.53813851479E+02  0.37673905911E+02 -0.56848951516E+02  0.86873799768E+02  0.00000000000E+00 0. -1.
         22    1    3    3    0    0  0.23339187388E+02  0.86064951954E+02  0.55801096691E+02  0.10519342192E+03  0.00000000000E+00 0. -1.
</event>
<event>
 7    1  0.6255318E-006  0.1779081E+03  0.7818608E-02  0.1309118E+00
          2   -1    0    0  502    0  0.00000000000E+00  0.00000000000E+00  0.20248520858E+03  0.20248520858E+03  0.00000000000E+00 0. -1.
          1   -1    0    0  501    0 -0.00000000000E+00 -0.00000000000E+00 -0.14639903873E+04  0.14639903873E+04  0.00000000000E+00 0. -1.
         25    2    1    2    0    0  0.74337166391E+02  0.19024475696E+03 -0.71898223681E+03  0.75781294008E+03  0.12500365377E+03 0.  0.
          2    1    1    2  501    0 -0.75280285897E+02 -0.14725817351E+03 -0.71347186530E+03  0.73238937300E+03  0.00000000000E+00 0. -1.
          1    1    1    2  502    0  0.94311950630E+00 -0.42986583451E+02  0.17094892337E+03  0.17627328281E+03  0.00000000000E+00 0. -1.
         22    1    3    3    0    0  0.30911567065E+02  0.11549655286E+03 -0.21093529164E+03  0.24246376216E+03  0.00000000000E+00 0. -1.
         22    1    3    3    0    0  0.43425599326E+02  0.74748204098E+02 -0.50804694517E+03  0.51534917793E+03  0.00000000000E+00 0. -1.
</event>
<event>
 7    1  0.6255318E-006  0.4377475E+02  0.7818608E-02  0.1519729E+00
          2   -1    0    0  502    0  0.00000000000E+00  0.00000000000E+00  0.36180004162E+03  0.36180004162E+03  0.00000000000E+00 0. -1.
          1   -1    0    0  501    0 -0.00000000000E+00 -0.00000000000E+00 -0.28692981493E+03  0.28692981493E+03  0.00000000000E+00 0. -1.
         25    2    1    2    0    0  0.52858840769E+02  0.36277238467E+02 -0.92426320046E+02  0.16815871002E+03  0.12499852815E+03 0.  0.
          2    1    1    2  501    0 -0.33693350160E+02  0.29255177206E+01 -0.15331637746E+03  0.15700226781E+03  0.00000000000E+00 0. -1.
          1    1    1    2  502    0 -0.19165490608E+02 -0.39202756188E+02  0.32061292420E+03  0.32356887873E+03  0.00000000000E+00 0. -1.
         22    1    3    3    0    0  0.52247332509E+02  0.22962836947E+02  0.15718349746E+02  0.59195795068E+02  0.00000000000E+00 0.  1.
         22    1    3    3    0    0  0.61150825999E+00  0.13314401520E+02 -0.10814466979E+03  0.10896291495E+03  0.00000000000E+00 0.  1.
</event>
<event>
 7    1  0.6255318E-006  0.4104795E+02  0.7818608E-02  0.1603055E+00
          2   -1    0    0  502    0  0.00000000000E+00  0.00000000000E+00  0.12580771543E+04  0.12580771543E+04  0.00000000000E+00 0. -1.
          1   -1    0    0  501    0 -0.00000000000E+00 -0.00000000000E+00 -0.72515475722E+03  0.72515475722E+03  0.00000000000E+00 0. -1.
         25    2    1    2    0    0  0.22527074416E+02 -0.55263822095E+02 -0.10123724424E+03  0.17157238354E+03  0.12500617609E+03 0.  0.
          2    1    1    2  501    0 -0.15169212354E+02  0.14925197601E+02 -0.58821375914E+03  0.58859858390E+03  0.00000000000E+00 0. -1.
          1    1    1    2  502    0 -0.73578620619E+01  0.40338624494E+02  0.12223734005E+04  0.12230609441E+04  0.00000000000E+00 0. -1.
         22    1    3    3    0    0  0.67137714922E+02 -0.24150593396E+02 -0.20520994269E+02  0.74241734436E+02  0.00000000000E+00 0. -1.
         22    1    3    3    0    0 -0.44610640506E+02 -0.31113228698E+02 -0.80716249970E+02  0.97330649107E+02  0.00000000000E+00 0. -1.
</event>
<event>
 7    1  0.6255318E-006  0.1737374E+03  0.7818608E-02  0.1244917E+00
          2   -1    0    0  502    0  0.00000000000E+00  0.00000000000E+00  0.12350927723E+04  0.12350927723E+04  0.00000000000E+00 0. -1.
          1   -1    0    0  501    0 -0.00000000000E+00 -0.00000000000E+00 -0.24133162533E+03  0.24133162533E+03  0.00000000000E+00 0. -1.
         25    2    1    2    0    0  0.14001204003E+03  0.20907987852E+03  0.74564365351E+03  0.79682344359E+03  0.12500150115E+03 0.  0.
          2    1    1    2  501    0 -0.96208572956E+02 -0.14049944052E+03 -0.17767696628E+03  0.24610015571E+03  0.00000000000E+00 0. -1.
          1    1    1    2  502    0 -0.43803467072E+02 -0.68580438004E+02  0.42579445970E+03  0.43350079829E+03  0.00000000000E+00 0. -1.
         22    1    3    3    0    0  0.31567202622E+02  0.13609340365E+03  0.49236235854E+03  0.51179936977E+03  0.00000000000E+00 0. -1.
         22    1    3    3    0    0  0.10844483741E+03  0.72986474875E+02  0.25328129497E+03  0.28502407382E+03  0.00000000000E+00 0. -1.
</event>
<event>
 7    1  0.6255318E-006  0.2085693E+03  0.7818608E-02  0.1216161E+00
          2   -1    0    0  502    0  0.00000000000E+00  0.00000000000E+00  0.15072527221E+03  0.15072527221E+03  0.00000000000E+00 0. -1.
          1   -1    0    0  501    0 -0.00000000000E+00 -0.00000000000E+00 -0.14204322362E+04  0.14204322362E+04  0.00000000000E+00 0. -1.
         25    2    1    2    0    0 -0.84349998765E+02  0.14616750035E+03 -0.65988775729E+03  0.69249996552E+03  0.12499795826E+03 0.  0.
          2    1    1    2  501    0  0.60759419319E+02  0.68007817808E+02 -0.65263357415E+03  0.65897447024E+03  0.00000000000E+00 0. -1.
          1    1    1    2  502    0  0.23590579446E+02 -0.21417531816E+03  0.42814367451E+02  0.21968307265E+03  0.00000000000E+00 0. -1.
         22    1    3    3    0    0  0.32861791493E+02  0.29646321213E+02 -0.12118441339E+03  0.12901342469E+03  0.00000000000E+00 0.  1.
         22    1    3    3    0    0 -0.11721179026E+03  0.11652117914E+03 -0.53870334390E+03  0.56348654083E+03  0.00000000000E+00 0.  1.
</event>
<event>
 7    1  0.6255318E-006  0.9644971E+02  0.7818608E-02  0.1385888E+00
          2   -1    0    0  502    0  0.00000000000E+00  0.00000000000E+00  0.32488625716E+03  0.32488625716E+03  0.00000000000E+00 0. -1.
          1   -1    0    0  501    0 -0.00000000000E+00 -0.00000000000E+00 -0.12130139448E+04  0.12130139448E+04  0.00000000000E+00 0. -1.
         25    2    1    2    0    0  0.58187091796E+02  0.19222358355E+02  0.61842176160E+02  0.15233437847E+03  0.12500428553E+03 0.  0.
          2    1    1    2  501    0 -0.81314212804E+02 -0.53166628360E+02 -0.11637891046E+04  0.11678372196E+04  0.00000000000E+00 0. -1.
          1    1    1    2  502    0  0.23127121007E+02  0.33944270005E+02  0.21381924081E+03  0.21772860385E+03  0.00000000000E+00 0. -1.
         22    1    3    3    0    0  0.89717302645E+02 -0.11623258508E+02  0.59263254403E+02  0.10815002476E+03  0.00000000000E+00 0. -1.
         22    1    3    3    0    0 -0.31530210849E+02  0.30845616863E+02  0.25789217567E+01  0.44184353716E+02  0.00000000000E+00 0. -1.
</event>
<event>
 7    1  0.6255318E-006  0.1745897E+03  0.7818608E-02  0.1315404E+00
          2   -1    0    0  502    0  0.00000000000E+00  0.00000000000E+00  0.46643776172E+03  0.46643776172E+03  0.00000000000E+00 0. -1.
          1   -1    0    0  501    0 -0.00000000000E+00 -0.00000000000E+00 -0.77909325436E+03  0.77909325436E+03  0.00000000000E+00 0. -1.
         25    2    1    2    0    0 -0.91837052157E+02 -0.14769915377E+03  0.13614864784E+03  0.25379325447E+03  0.12500191011E+03 0.  0.
          2    1    1    2  501    0  0.54752349120E+02  0.16608755663E+03 -0.70798934449E+03  0.72926799472E+03  0.00000000000E+00 0. -1.
          1    1    1    2  502    0  0.37084703037E+02 -0.18388402858E+02  0.25918520401E+03  0.26246976690E+03  0.00000000000E+00 0. -1.
         22    1    3    3    0    0 -0.34126837515E+02 -0.14758304490E+02 -0.18772067826E+02  0.41651399985E+02  0.00000000000E+00 0.  1.
         22    1    3    3    0    0 -0.57710214642E+02 -0.13294084928E+03  0.15492071567E+03  0.21214185448E+03  0.00000000000E+00 0.  1.
</event>
<event>
 7    1  0.6255318E-006  0.1569689E+03  0.7818608E-02  0.1290974E+00
          2   -1    0    0  502    0  0.00000000000E+00  0.00000000000E+00  0.17818269679E+04  0.17818269679E+04  0.00000000000E+00 0. -1.
          1   -1    0    0  501    0 -0.00000000000E+00 -0.00000000000E+00 -0.98924342016E+03  0.98924342016E+03  0.00000000000E+00 0. -1.
         25    2    1    2    0    0  0.99453978299E+02 -0.70778468530E+02 -0.11843433283E+03  0.21107305110E+03  0.12499782519E+03 0.  0.
          2    1    1    2  501    0 -0.69907574804E+01 -0.57178297649E+02 -0.81988701683E+03  0.82190811456E+03  0.00000000000E+00 0. -1.
          1    1    1    2  502    0 -0.92463220818E+02  0.12795676618E+03  0.17309048974E+04  0.17380892224E+04  0.00000000000E+00 0. -1.
         22    1    3    3    0    0  0.14518850358E+02 -0.86915634347E+02 -0.55557415147E+02  0.10417173747E+03  0.00000000000E+00 0. -1.
         22    1    3    3    0    0  0.84935127941E+02  0.16137165817E+02 -0.62876917681E+02  0.10690131363E+03  0.00000000000E+00 0. -1.
</event>
<event>
 7    1  0.6255318E-006  0.5452393E+02  0.7818608E-02  0.1463284E+00
          2   -1    0    0  502    0  0.00000000000E+00  0.00000000000E+00  0.92018043351E+02  0.92018043351E+02  0.00000000000E+00 0. -1.
          1   -1    0    0  501    0 -0.00000000000E+00 -0.00000000000E+00 -0.26414264948E+03  0.26414264948E+03  0.00000000000E+00 0. -1.
         25    2    1    2    0    0 -0.17199391000E+02  0.73689628475E+01 -0.45912856818E+02  0.13447345653E+03  0.12499999771E+03 0.  0.
          2    1    1    2  501    0  0.56058186544E+02 -0.17690470748E+02 -0.15918341798E+03  0.16969040513E+03  0.00000000000E+00 0. -1.
          1    1    1    2  502    0 -0.38858795544E+02  0.10321507901E+02  0.32971668669E+02  0.51996831166E+02  0.00000000000E+00 0. -1.
         22    1    3    3    0    0  0.26084459326E+02 -0.19508604443E+02  0.29177210549E+02  0.43729787115E+02  0.00000000000E+00 0.  1.
         22    1    3    3    0    0 -0.43283850326E+02  0.26877567290E+02 -0.75090067367E+02  0.90743669420E+02  0.00000000000E+00 0.  1.
</event>
<event>
 7    1  0.6255318E-006  0.4789670E+02  0.7818608E-02  0.1524188E+00
          2   -1    0    0  502    0  0.00000000000E+00  0.00000000000E+00  0.16140647770E+03  0.16140647770E+03  0.00000000000E+00 0. -1.
          1   -1    0    0  501    0 -0.00000000000E+00 -0.00000000000E+00 -0.17269636470E+04  0.17269636470E+04  0.00000000000E+00 0. -1.
         25    2    1    2    0    0 -0.35376085512E+02 -0.11223917510E+02 -0.12174713772E+03  0.17839363922E+03  0.12499792486E+03 0.  0.
          2    1    1    2  501    0  0.26815679916E+02  0.39980725349E+02 -0.15748296425E+04  0.15755652769E+04  0.00000000000E+00 0. -1.
          1    1    1    2  502    0  0.85604055962E+01 -0.28756807839E+02  0.13101961089E+03  0.13441120853E+03  0.00000000000E+00 0. -1.
         22    1    3    3    0    0  0.77971233901E+01  0.50074038134E+02 -0.26532634179E+02  0.57203016570E+02  0.00000000000E+00 0. -1.
         22    1    3    3    0    0 -0.43173208902E+02 -0.61297955644E+02 -0.95214503545E+02  0.12119062265E+03  0.00000000000E+00 0. -1.
</event>
<event>
 7    1  0.6255318E-006  0.9327995E+02  0.7818608E-02  0.1306510E+00
          2   -1    0    0  502    0  0.00000000000E+00  0.00000000000E+00  0.55824073226E+03  0.55824073226E+03  0.00000000000E+00 0. -1.
          1   -1    0    0  501    0 -0.00000000000E+00 -0.00000000000E+00 -0.57289046779E+03  0.57289046779E+03  0.00000000000E+00 0. -1.
         25    2    1    2    0    0  0.26784204735E+02  0.81240343651E+01  0.11560977865E+02  0.12861486702E+03  0.12499893700E+03 0.  0.
          2    1    1    2  501    0  0.14691827749E+02  0.82681613549E+02 -0.50576098362E+03  0.51268535338E+03  0.00000000000E+00 0. -1.
          1    1    1    2  502    0 -0.41476032484E+02 -0.90805647915E+02  0.47955027022E+03  0.48983097966E+03  0.00000000000E+00 0. -1.
         22    1    3    3    0    0 -0.11644613797E+02 -0.48729980159E+02 -0.18882161609E+02  0.53541983749E+02  0.00000000000E+00 0. -1.
         22    1    3    3    0    0  0.38428818532E+02  0.56854014524E+02  0.30443139474E+02  0.75072883269E+02  0.00000000000E+00 0. -1.
</event>
<event>
 7    1  0.6255318E-006  0.8588488E+02  0.7818608E-02  0.1362815E+00
          2   -1    0    0  502    0  0.00000000000E+00  0.00000000000E+00  0.17404813195E+04  0.17404813195E+04  0.00000000000E+00 0. -1.
          1   -1    0    0  501    0 -0.00000000000E+00 -0.00000000000E+00 -0.34682317528E+03  0.34682317528E+03  0.00000000000E+00 0. -1.
         25    2    1    2    0    0 -0.12825213998E+03  0.48709729964E+02  0.10709479740E+04  0.10869115040E+04  0.12500322104E+03 0.  0.
          2    1    1    2  501    0  0.72581642804E+02 -0.45454237401E+02 -0.33222628142E+03  0.34308670134E+03  0.00000000000E+00 0. -1.
          1    1    1    2  502    0  0.55670497172E+02 -0.32554925629E+01  0.65493645165E+03  0.65730628947E+03  0.00000000000E+00 0. -1.
         22    1    3    3    0    0  0.18714724260E+02 -0.14355385194E+02  0.20167300371E+03  0.20304757672E+03  0.00000000000E+00 0. -1.
         22    1    3    3    0    0 -0.14696686424E+03  0.63065115158E+02  0.86927497031E+03  0.88386392728E+03  0.00000000000E+00 0. -1.
</event>
<event>
 7    1  0.6255318E-006  0.1199565E+03  0.7818608E-02  0.1277503E+00
          2   -1    0    0  502    0  0.00000000000E+00  0.00000000000E+00  0.10260513338E+04  0.10260513338E+04  0.00000000000E+00 0. -1.
          1   -1    0    0  501    0 -0.00000000000E+00 -0.00000000000E+00 -0.69899787551E+02  0.69899787551E+02  0.00000000000E+00 0. -1.
         25    2    1    2    0    0  0.12421182494E+02 -0.77003517981E+02  0.38976753356E+03  0.41668549221E+03  0.12499696652E+03 0.  0.
          2    1    1    2  501    0 -0.41901756080E+02 -0.74657583119E+02 -0.65527358797E+01  0.85862973553E+02  0.00000000000E+00 0. -1.
          1    1    1    2  502    0  0.29480573587E+02  0.15166110110E+03  0.57293674853E+03  0.59340265556E+03  0.00000000000E+00 0. -1.
         22    1    3    3    0    0  0.43932716268E+02 -0.49613303874E+02  0.78948859614E+02  0.10307514693E+03  0.00000000000E+00 0. -1.
         22    1    3    3    0    0 -0.31511533774E+02 -0.27390214108E+02  0.31081867395E+03  0.31361034528E+03  0.00000000000E+00 0. -1.
</event>
<event>
 7    1  0.6255318E-006  0.8496806E+02  0.7818608E-02  0.1414957E+00
          2   -1    0    0  502    0  0.00000000000E+00  0.00000000000E+00  0.53248796820E+03  0.53248796820E+03  0.00000000000E+00 0. -1.
          1   -1    0    0  501    0 -0.00000000000E+00 -0.00000000000E+00 -0.35685572365E+03  0.35685572365E+03  0.00000000000E+00 0. -1.
         25    2    1    2    0    0  0.74728854818E+02  0.39850505718E+01 -0.59215808046E+01  0.14580953530E+03  0.12500029237E+03 0.  0.
          2    1    1    2  501    0  0.70841674457E+00  0.37036167692E+02 -0.27575570235E+03  0.27823261302E+03  0.00000000000E+00 0. -1.
          1    1    1    2  502    0 -0.75437271563E+02 -0.41021218264E+02  0.45730952770E+03  0.46530154354E+03  0.00000000000E+00 0. -1.
         22    1    3    3    0    0  0.71343675451E+02 -0.42976939689E+02  0.27900208114E+02  0.87837116213E+02  0.00000000000E+00 0.  1.
         22    1    3    3    0    0  0.33851793676E+01  0.46961990261E+02 -0.33821788919E+02  0.57972419082E+02  0.00000000000E+00 0.  1.
</event>
<event>
 7    1  0.6255318E-006  0.5457086E+02  0.7818608E-02  0.1489262E+00
          2   -1    0    0  502    0  0.00000000000E+00  0.00000000000E+00  0.19218814003E+04  0.19218814003E+04  0.00000000000E+00 0. -1.
          1   -1    0    0  501    0 -0.00000000000E+00 -0.00000000000E+00 -0.13246199823E+02  0.13246199823E+02  0.00000000000E+00 0. -1.
         25    2    1    2    0    0  0.62711681437E+02 -0.32735713527E+02  0.60362416442E+03  0.62047886919E+03  0.12501005288E+03 0.  0.
          2    1    1    2  501    0 -0.31460025368E+02 -0.11231382035E+02  0.61652895555E+02  0.70121014460E+02  0.00000000000E+00 0. -1.
          1    1    1    2  502    0 -0.31251656070E+02  0.43967095562E+02  0.12433581405E+04  0.12445277165E+04  0.00000000000E+00 0. -1.
         22    1    3    3    0    0  0.17518053770E+02  0.45032991935E+02  0.29805368166E+03  0.30194511045E+03  0.00000000000E+00 0. -1.
         22    1    3    3    0    0  0.45193627667E+02 -0.77768705462E+02  0.30557048276E+03  0.31853375875E+03  0.00000000000E+00 0. -1.
</event>
<event>
 7    1  0.6255318E-006  0.3836570E+02  0.7818608E-02  0.1590933E+00
          2   -1    0    0  502    0  0.00000000000E+00  0.00000000000E+00  0.15534239354E+03  0.15534239354E+03  0.00000000000E+00 0. -1.
          1   -1    0    0  501    0 -0.00000000000E+00 -0.00000000000E+00 -0.98837949776E+02  0.98837949776E+02  0.00000000000E+00 0. -1.
         25    2    1    2    0    0  0.22574345969E+01 -0.18489661365E+02  0.43001971653E+02  0.13349664009E+03  0.12500087904E+03 0.  0.
          2    1    1    2  501    0 -0.20801916529E+02  0.34497576981E+02 -0.43107388546E+02  0.59000419457E+02  0.00000000000E+00 0. -1.
          1    1    1    2  502    0  0.18544481932E+02 -0.16007915616E+02  0.56609860654E+02  0.61683283763E+02  0.00000000000E+00 0. -1.
         22    1    3    3    0    0  0.29608058236E+02 -0.15823216290E+02  0.80377140428E+02  0.87106233931E+02  0.00000000000E+00 0.  1.
         22    1    3    3    0    0 -0.27350623639E+02 -0.26664450759E+01 -0.37375168775E+02  0.46390406161E+02  0.00000000000E+00 0.  1.
</event>
<event>
 7    1  0.6255318E-006  0.3893750E+02  0.7818608E-02  0.1518576E+00
          2   -1    0    0  502    0  0.00000000000E+00  0.00000000000E+00  0.31808815247E+03  0.31808815247E+03  0.00000000000E+00 0. -1.
          1   -1    0    0  501    0 -0.00000000000E+00 -0.00000000000E+00 -0.84595915272E+03  0.84595915272E+03  0.00000000000E+00 0. -1.
         25    2    1    2    0    0 -0.35101144653E+02 -0.68481250259E+02 -0.33181662305E+03  0.36283514926E+03  0.12500120886E+03 0.  0.
          2    1    1    2  501    0  0.19681616421E+02  0.32875045172E+02 -0.49664835757E+03  0.49812420710E+03  0.00000000000E+00 0. -1.
          1    1    1    2  502    0  0.15419528233E+02  0.35606205086E+02  0.30059398037E+03  0.30308794883E+03  0.00000000000E+00 0. -1.
         22    1    3    3    0    0  0.31520905450E+01  0.18029779799E+02 -0.19865597530E+03  0.19949738133E+03  0.00000000000E+00 0. -1.
         22    1    3    3    0    0 -0.38253235198E+02 -0.86511030057E+02 -0.13316064775E+03  0.16333776793E+03  0.00000000000E+00 0. -1.
</event>
<event>
 7    1  0.6255318E-006  0.4976953E+02  0.7818608E-02  0.1492601E+00
          2   -1    0    0  502    0  0.00000000000E+00  0.00000000000E+00  0.12425060001E+04  0.12425060001E+04  0.00000000000E+00 0. -1.
          1   -1    0    0  501    0 -0.00000000000E+00 -0.00000000000E+00 -0.81407949532E+03  0.81407949532E+03  0.00000000000E+00 0. -1.
         25    2    1    2    0    0 -0.61234321785E+02 -0.34573692351E+01  0.49287485300E+03  0.51217061168E+03  0.12502607401E+03 0.  0.
          2    1    1    2  501    0  0.22588034954E+02 -0.27756701706E+02 -0.80319900087E+03  0.80399582637E+03  0.00000000000E+00 0. -1.
          1    1    1    2  502    0  0.38646286830E+02  0.31214070941E+02  0.73875065268E+03  0.74041905739E+03  0.00000000000E+00 0. -1.
         22    1    3    3    0    0 -0.14355977267E+02  0.32674665125E+02  0.40287702407E+03  0.40445472472E+03  0.00000000000E+00 0.  1.
         22    1    3    3    0    0 -0.46878344518E+02 -0.36132034360E+02  0.89997828931E+02  0.10771588696E+03  0.00000000000E+00 0.  1.
</event>
<event>
 7    1  0.6255318E-006  0.6084533E+02  0.7818608E-02  0.1538501E+00
          2   -1    0    0  502    0  0.00000000000E+00  0.00000000000E+00  0.77235328450E+03  0.77235328450E+03  0.00000000000E+00 0. -1.
          1   -1    0    0  501    0 -0.00000000000E+00 -0.00000000000E+00 -0.60191087724E+02  0.60191087724E+02  0.00000000000E+00 0. -1.
         25    2    1    2    0    0 -0.69202346947E+02 -0.23119655503E+02  0.41923952971E+03  0.44351849833E+03  0.12499356702E+03 0.  0.
          2    1    1    2  501    0  0.50333113746E+02  0.33413227111E+02 -0.28560533255E+02  0.66824921587E+02  0.00000000000E+00 0. -1.
          1    1    1    2  502    0  0.18869233201E+02 -0.10293571609E+02  0.32148320032E+03  0.32220095231E+03  0.00000000000E+00 0. -1.
         22    1    3    3    0    0 -0.29289416835E+02 -0.41689785286E+02  0.49059200485E+02  0.70729861359E+02  0.00000000000E+00 0.  1.
         22    1    3    3    0    0 -0.39912930112E+02  0.18570129783E+02  0.37018032922E+03  0.37278863697E+03  0.00000000000E+00 0.  1.
</event>
<event>
 7    1  0.6255318E-006  0.7386611E+02  0.7818608E-02  0.1376813E+00
          2   -1    0    0  502    0  0.00000000000E+00  0.00000000000E+00  0.49596222346E+03  0.49596222346E+03  0.00000000000E+00 0. -1.
          1   -1    0    0  501    0 -0.00000000000E+00 -0.00000000000E+00 -0.93023811686E+03  0.93023811686E+03  0.00000000000E+00 0. -1.
         25    2    1    2    0    0  0.79584793297E+02 -0.93266369650E+02  0.27732724214E+02  0.17727450288E+03  0.12499916138E+03 0.  0.
          2    1    1    2  501    0 -0.27795900326E+02  0.67728877270E+02 -0.85176993987E+03  0.85491043002E+03  0.00000000000E+00 0. -1.
          1    1    1    2  502    0 -0.51788892970E+02  0.25537492380E+02  0.38976132226E+03  0.39401540742E+03  0.00000000000E+00 0. -1.
         22    1    3    3    0    0  0.39313352367E+02 -0.38838670808E+02 -0.49764227094E+02  0.74367064771E+02  0.00000000000E+00 0.  1.
         22    1    3    3    0    0  0.40271440929E+02 -0.54427698842E+02  0.77496951308E+02  0.10290743811E+03  0.00000000000E+00 0.  1.
</event>
<event>
 7    1  0.6255318E-006  0.9700989E+02  0.7818608E-02  0.1353959E+00
          2   -1    0    0  502    0  0.00000000000E+00  0.00000000000E+00  0.11865909676E+04  0.11865909676E+04  0.00000000000E+00 0. -1.
          1   -1    0    0  501    0 -0.00000000000E+00 -0.00000000000E+00 -0.33310228859E+03  0.33310228859E+03  0.00000000000E+00 0. -1.
         25    2    1    2    0    0 -0.14113997238E+03 -0.27485549599E+02  0.10922460960E+03  0.21961624327E+03  0.12500132690E+03 0.  0.
          2    1    1    2  501    0  0.52641036054E+02 -0.76526780265E+01 -0.27311734001E+03  0.27824939096E+03  0.00000000000E+00 0. -1.
          1    1    1    2  502    0  0.88498936326E+02  0.35138227626E+02  0.10173814094E+04  0.10218276219E+04  0.00000000000E+00 0. -1.
         22    1    3    3    0    0 -0.10693701267E+03 -0.51814624407E+02  0.19310302346E+02  0.12038757311E+03  0.00000000000E+00 0. -1.
         22    1    3    3    0    0 -0.34202959707E+02  0.24329074808E+02  0.89914307256E+02  0.99228670166E+02  0.00000000000E+00 0. -1.
</event>
<event>
 7    1  0.6255318E-006  0.1644982E+03  0.7818608E-02  0.1218514E+00
          2   -1    0    0  502    0  0.00000000000E+00  0.00000000000E+00  0.25738882022E+04  0.25738882022E+04  0.00000000000E+00 0. -1.
          1   -1    0    0  501    0 -0.00000000000E+00 -0.00000000000E+00 -0.82881724675E+03  0.82881724675E+03  0.00000000000E+00 0. -1.
         25    2    1    2    0    0 -0.15779775594E+03 -0.52994149923E+02  0.12877914886E+04  0.13045077189E+04  0.12499983636E+03 0.  0.
          2    1    1    2  501    0  0.86356613253E+02  0.14028163856E+03 -0.80965952664E+03  0.82624751246E+03  0.00000000000E+00 0. -1.
          1    1    1    2  502    0  0.71441142686E+02 -0.87287488634E+02  0.12669389936E+04  0.12719502176E+04  0.00000000000E+00 0. -1.
         22    1    3    3    0    0 -0.13822447742E+03 -0.68390076885E+02  0.72765134100E+03  0.74381427980E+03  0.00000000000E+00 0.  1.
         22    1    3    3    0    0 -0.19573278517E+02  0.15395926963E+02  0.56014014756E+03  0.56069343915E+03  0.00000000000E+00 0.  1.
</event>
<event>
 7    1  0.6255318E-006  0.6732697E+02  0.7818608E-02  0.1399416E+00
          2   -1    0    0  502    0  0.00000000000E+00  0.00000000000E+00  0.65436972911E+02  0.65436972911E+02  0.00000000000E+00 0. -1.
          1   -1    0    0  501    0 -0.00000000000E+00 -0.00000000000E+00 -0.75063677164E+03  0.75063677164E+03  0.00000000000E+00 0. -1.
         25    2    1    2    0    0  0.10271974723E+03 -0.31510291708E+02 -0.16696620274E+03  0.23462162981E+03  0.12500140545E+03 0.  0.
          2    1    1    2  501    0 -0.41007610495E+02  0.33263956025E+02 -0.51701364380E+03  0.51970301400E+03  0.00000000000E+00 0. -1.
          1    1    1    2  502    0 -0.61712136734E+02 -0.17536643175E+01 -0.12199521939E+01  0.61749100740E+02  0.00000000000E+00 0. -1.
         22    1    3    3    0    0  0.48995537594E+02 -0.34252400679E+02 -0.17053459504E+03  0.18070926308E+03  0.00000000000E+00 0. -1.
         22    1    3    3    0    0  0.53724209635E+02  0.27421089715E+01  0.35683923079E+01  0.53912366727E+02  0.00000000000E+00 0. -1.
</event>
<event>
 7    1  0.6255318E-006  0.7492688E+02  0.7818608E-02  0.1412983E+00
          2   -1    0    0  502    0  0.00000000000E+00  0.00000000000E+00  0.14094470429E+04  0.14094470429E+04  0.00000000000E+00 0. -1.
          1   -1    0    0  501    0 -0.00000000000E+00 -0.00000000000E+00 -0.85866717368E+03  0.85866717368E+03  0.00000000000E+00 0. -1.
         25    2    1    2    0    0 -0.81202242442E+02 -0.28478161691E+02  0.79695871294E+03  0.81127841090E+03  0.12499863995E+03 0.  0.
          2    1    1    2  501    0  0.73698800402E+02 -0.13512044420E+02 -0.84910408887E+03  0.85240356771E+03  0.00000000000E+00 0. -1.
          1    1    1    2  502    0  0.75034420401E+01  0.41990206111E+02  0.60292524514E+03  0.60443223796E+03  0.00000000000E+00 0. -1.
         22    1    3    3    0    0 -0.25635904730E+02 -0.72294962381E+02  0.31800040015E+03  0.32712079679E+03  0.00000000000E+00 0. -1.
         22    1    3    3    0    0 -0.55566337712E+02  0.43816800690E+02  0.47895831278E+03  0.48415761410E+03  0.00000000000E+00 0. -1.
</event>
<event>
 7    1  0.6255318E-006  0.1390411E+03  0.7818608E-02  0.1319807E+00
          2   -1    0    0  502    0  0.00000000000E+00  0.00000000000E+00  0.56888766331E+03  0.56888766331E+03  0.00000000000E+00 0. -1.
          1   -1    0    0  501    0 -0.00000000000E+00 -0.00000000000E+00 -0.30316875881E+03  0.30316875881E+03  0.00000000000E+00 0. -1.
         25    2    1    2    0    0 -0.13946440581E+03  0.50011291010E+02 -0.66800738805E+02  0.20503518403E+03  0.12500255305E+03 0.  0.
          2    1    1    2  501    0  0.32133822720E+02  0.38260065231E+02 -0.15355109064E+03  0.16147554797E+03  0.00000000000E+00 0. -1.
          1    1    1    2  502    0  0.10733058309E+03 -0.88271356242E+02  0.48607073395E+03  0.50554569012E+03  0.00000000000E+00 0. -1.
         22    1    3    3    0    0 -0.68997134974E+02  0.67074295894E+02  0.13131852013E+02  0.97118542727E+02  0.00000000000E+00 0.  1.
         22    1    3    3    0    0 -0.70467270834E+02 -0.17063004883E+02 -0.79932590819E+02  0.10791664130E+03  0.00000000000E+00 0.  1.
</event>
<event>
 7    1  0.6255318E-006  0.7191581E+02  0.7818608E-02  0.1405970E+00
          2   -1    0    0  502    0  0.00000000000E+00  0.00000000000E+00  0.16671890463E+04  0.16671890463E+04  0.00000000000E+00 0. -1.
          1   -1    0    0  501    0 -0.00000000000E+00 -0.00000000000E+00 -0.20042706960E+02  0.20042706960E+02  0.00000000000E+00 0. -1.
         25    2    1    2    0    0 -0.25458814137E+02 -0.48520140149E+02  0.97204118840E+03  0.98157621594E+03  0.12500176211E+03 0.  0.
          2    1    1    2  501    0 -0.46826333020E+02  0.33070046809E+01  0.31741884940E+02  0.56667353949E+02  0.00000000000E+00 0. -1.
          1    1    1    2  502    0  0.72285147157E+02  0.45213135468E+02  0.64336326597E+03  0.64898818334E+03  0.00000000000E+00 0. -1.
         22    1    3    3    0    0  0.21334176415E+02 -0.41693204990E+02  0.84031528559E+03  0.84161942089E+03  0.00000000000E+00 0.  1.
         22    1    3    3    0    0 -0.46792990552E+02 -0.68269351591E+01  0.13172590281E+03  0.13995679505E+03  0.00000000000E+00 0.  1.
</event>
<event>
 7    1  0.6255318E-006  0.8252864E+02  0.7818608E-02  0.1340255E+00
          2   -1    0    0  502    0  0.00000000000E+00  0.00000000000E+00  0.15755360082E+04  0.15755360082E+04  0.00000000000E+00 0. -1.
          1   -1    0    0  501    0 -0.00000000000E+00 -0.00000000000E+00 -0.47063629401E+03  0.47063629401E+03  0.00000000000E+00 0. -1.
         25    2    1    2    0    0  0.72888870973E+02 -0.88360931555E+02  0.30415597506E+02  0.17225082537E+03  0.12499918612E+03 0.  0.
          2    1    1    2  501    0 -0.80043699352E+02  0.18406065358E+02 -0.39464972728E+03  0.40310567385E+03  0.00000000000E+00 0. -1.
          1    1    1    2  502    0  0.71548283796E+01  0.69954866197E+02  0.14691338440E+04  0.14708158030E+04  0.00000000000E+00 0. -1.
         22    1    3    3    0    0 -0.31646416760E+02 -0.19547348893E+02 -0.13569899581E+02  0.39594655159E+02  0.00000000000E+00 0.  1.
         22    1    3    3    0    0  0.10453528773E+03 -0.68813582662E+02  0.43985497087E+02  0.13265617021E+03  0.00000000000E+00 0.  1.
</event>
<event>
 7    1  0.6255318E-006  0.9047356E+02  0.7818608E-02  0.1364363E+00
          2   -1    0    0  502    0  0.00000000000E+00  0.00000000000E+00  0.33634522779E+03  0.33634522779E+03  0.00000000000E+00 0. -1.
          1   -1    0    0  501    0 -0.00000000000E+00 -0.00000000000E+00 -0.48113659339E+03  0.48113659339E+03  0.00000000000E+00 0. -1.
         25    2    1    2    0    0  0.22070736234E+02 -0.40609238621E+02 -0.19565092170E+03  0.23673134994E+03  0.12500488480E+03 0.  0.
          2    1    1    2  501    0  0.49265221898E+02 -0.17427411051E+02 -0.25554996616E+03  0.26083819113E+03  0.00000000000E+00 0. -1.
          1    1    1    2  502    0 -0.71335958132E+02  0.58036649672E+02  0.30640952226E+03  0.31991228010E+03  0.00000000000E+00 0. -1.
         22    1    3    3    0    0 -0.40891570990E+02 -0.53135636625E+01 -0.13896139705E+03  0.14495042051E+03  0.00000000000E+00 0.  1.
         22    1    3    3    0    0  0.62962307224E+02 -0.35295674959E+02 -0.56689524656E+02  0.91780929433E+02  0.00000000000E+00 0.  1.
</event>
<event>
 7    1  0.9423288E-006  0.6556986E+02  0.7818608E-02  0.1427144E+00
          2   -1    0    0  502    0  0.00000000000E+00  0.00000000000E+00  0.17405951348E+04  0.17405951348E+04  0.00000000000E+00 0. -1.
          1   -1    0    0  501    0 -0.00000000000E+00 -0.00000000000E+00 -0.10368187357E+04  0.10368187357E+04  0.00000000000E+00 0. -1.
         25    2    1    2    0    0  0.23042613618E+02  0.26413246213E+02 -0.68028828807E+02  0.14656368127E+03  0.12499747798E+03 0.  0.
          2    1    1    2  501    0 -0.19203959624E+02  0.39268914527E+02 -0.92837190236E+03  0.92940046740E+03  0.00000000000E+00 0. -1.
          1    1    1    2  502    0 -0.38386539945E+01 -0.65682160740E+02  0.17001771302E+04  0.17014497218E+04  0.00000000000E+00 0. -1.
         22    1    3    3    0    0  0.43218931452E+02  0.99004793719E+01 -0.97564512075E+02  0.10716683043E+03  0.00000000000E+00 0.  1.
         22    1    3    3    0    0 -0.20176317834E+02  0.16512766842E+02  0.29535683268E+02  0.39396850841E+02  0.00000000000E+00 0.  1.
</event>
<event>
 7    1  0.6255318E-006  0.9484072E+02  0.7818608E-02  0.1296445E+00
          2   -1    0    0  502    0  0.00000000000E+00  0.00000000000E+00  0.17674257553E+04  0.17674257553E+04  0.00000000000E+00 0. -1.
          1   -1    0    0  501    0 -0.00000000000E+00 -0.00000000000E+00 -0.20141394833E+03  0.20141394833E+03  0.00000000000E+00 0. -1.
         25    2    1    2    0    0 -0.11196625820E+03  0.13857760648E+03  0.60790810840E+03  0.64569238931E+03  0.12500478940E+03 0.  0.
          2    1    1    2  501    0  0.74671379748E+02 -0.56003949187E+02 -0.16865002638E+03  0.19275655288E+03  0.00000000000E+00 0. -1.
          1    1    1    2  502    0  0.37294878451E+02 -0.82573657288E+02  0.11267537250E+04  0.11303907615E+04  0.00000000000E+00 0. -1.
         22    1    3    3    0    0 -0.11304612318E+03  0.10897750477E+03  0.32190585819E+03  0.35816044456E+03  0.00000000000E+00 0. -1.
         22    1    3    3    0    0  0.10798649840E+01  0.29600101708E+02  0.28600225021E+03  0.28753194475E+03  0.00000000000E+00 0. -1.
</event>
<event>
 7    1  0.6255318E-006  0.8741180E+02  0.7818608E-02  0.1395046E+00
          2   -1    0    0  502    0  0.00000000000E+00  0.00000000000E+00  0.39804036241E+03  0.39804036241E+03  0.00000000000E+00 0. -1.
          1   -1    0    0  501    0 -0.00000000000E+00 -0.00000000000E+00 -0.69101769557E+03  0.69101769557E+03  0.00000000000E+00 0. -1.
         25    2    1    2    0    0 -0.76202143298E+02  0.87748417841E+02 -0.26918190949E+03  0.31873289410E+03  0.12500082363E+03 0.  0.
          2    1    1    2  501    0  0.21660042437E+01 -0.42052114482E+02 -0.39084423727E+03  0.39310595228E+03  0.00000000000E+00 0. -1.
          1    1    1    2  502    0  0.74036139054E+02 -0.45696303359E+02  0.36704881361E+03  0.37721921160E+03  0.00000000000E+00 0. -1.
         22    1    3    3    0    0 -0.37711466545E+02 -0.19805778633E+02 -0.25605844465E+02  0.49699928038E+02  0.00000000000E+00 0. -1.
         22    1    3    3    0    0 -0.38490676752E+02  0.10755419647E+03 -0.24357606503E+03  0.26903296606E+03  0.00000000000E+00 0. -1.
</event>
<event>
 7    1  0.6255318E-006  0.1701891E+03  0.7818608E-02  0.1282249E+00
          2   -1    0    0  502    0  0.00000000000E+00  0.00000000000E+00  0.41763806578E+03  0.41763806578E+03  0.00000000000E+00 0. -1.
          1   -1    0    0  501    0 -0.00000000000E+00 -0.00000000000E+00 -0.40461416689E+03  0.40461416689E+03  0.00000000000E+00 0. -1.
         25    2    1    2    0    0 -0.14464396043E+03 -0.13125110425E+03  0.16509411025E+02  0.23248149154E+03  0.12500542230E+03 0.  0.
          2    1    1    2  501    0  0.87886910876E+02  0.14151823445E+03 -0.26990711143E+03  0.31717718800E+03  0.00000000000E+00 0. -1.
          1    1    1    2  502    0  0.56757049549E+02 -0.10267130206E+02  0.26642159930E+03  0.27259355313E+03  0.00000000000E+00 0. -1.
         22    1    3    3    0    0  0.86317553816E+01 -0.13346784400E+02 -0.29676382901E+02  0.33664990077E+02  0.00000000000E+00 0. -1.
         22    1    3    3    0    0 -0.15327571581E+03 -0.11790431985E+03  0.46185793926E+02  0.19881650147E+03  0.00000000000E+00 0. -1.
</event>
<event>
 7    1  0.6255318E-006  0.5327765E+02  0.7818608E-02  0.1437653E+00
          2   -1    0    0  502    0  0.00000000000E+00  0.00000000000E+00  0.47805880422E+03  0.47805880422E+03  0.00000000000E+00 0. -1.
          1   -1    0    0  501    0 -0.00000000000E+00 -0.00000000000E+00 -0.59146384644E+03  0.59146384644E+03  0.00000000000E+00 0. -1.
         25    2    1    2    0    0 -0.71276628920E+02  0.21252095146E+02 -0.17647725322E+03  0.22869511016E+03  0.12500089250E+03 0.  0.
          2    1    1    2  501    0  0.47955633993E+02  0.22628442279E+02 -0.38569217782E+03  0.38932023485E+03  0.00000000000E+00 0. -1.
          1    1    1    2  502    0  0.23320994927E+02 -0.43880537425E+02  0.44876438883E+03  0.45150730565E+03  0.00000000000E+00 0. -1.
         22    1    3    3    0    0 -0.93772174551E+02  0.51408549187E+02 -0.14115381399E+03  0.17708884452E+03  0.00000000000E+00 0. -1.
         22    1    3    3    0    0  0.22495545631E+02 -0.30156454041E+02 -0.35323439231E+02  0.51606265634E+02  0.00000000000E+00 0. -1.
</event>
<event>
 7    1  0.6255318E-006  0.8673584E+02  0.7818608E-02  0.1469153E+00
          2   -1    0    0  502    0  0.00000000000E+00  0.00000000000E+00  0.60723105107E+02  0.60723105107E+02  0.00000000000E+00 0. -1.
          1   -1    0    0  501    0 -0.00000000000E+00 -0.00000000000E+00 -0.14074719316E+04  0.14074719316E+04  0.00000000000E+00 0. -1.
         25    2    1    2    0    0  0.57621136062E+02  0.38040492318E+02 -0.16196610582E+03  0.21592609536E+03  0.12499513929E+03 0.  0.
          2    1    1    2  501    0 -0.62459890420E+02 -0.61780892480E+02 -0.12123722048E+04  0.12155511012E+04  0.00000000000E+00 0. -1.
          1    1    1    2  502    0  0.48387543587E+01  0.23740400162E+02  0.27589484197E+02  0.36717840104E+02  0.00000000000E+00 0. -1.
         22    1    3    3    0    0  0.20354560857E+02  0.43790971482E+02 -0.17054913898E+03  0.17725395944E+03  0.00000000000E+00 0.  1.
         22    1    3    3    0    0  0.37266575204E+02 -0.57504791640E+01  0.85830331625E+01  0.38672135916E+02  0.00000000000E+00 0.  1.
</event>
<event>
 7    1  0.6255318E-006  0.9256795E+02  0.7818608E-02  0.1328862E+00
          2   -1    0    0  502    0  0.00000000000E+00  0.00000000000E+00  0.33000538201E+04  0.33000538201E+04  0.00000000000E+00 0. -1.
          1   -1    0    0  501    0 -0.00000000000E+00 -0.00000000000E+00 -0.11883717589E+04  0.11883717589E+04  0.00000000000E+00 0. -1.
         25    2    1    2    0    0 -0.87189222690E+02 -0.43145692203E+02  0.66713667665E+03  0.68568207321E+03  0.12500019552E+03 0.  0.
          2    1    1    2  501    0  0.52911593365E+02 -0.44681824284E+02 -0.11772341275E+04  0.11792693896E+04  0.00000000000E+00 0. -1.
          1    1    1    2  502    0  0.34277629325E+02  0.87827516486E+02  0.26217795120E+04  0.26234741162E+04  0.00000000000E+00 0. -1.
         22    1    3    3    0    0 -0.66715954048E+01  0.40957880874E+02  0.19931508259E+03  0.20358919505E+03  0.00000000000E+00 0. -1.
         22    1    3    3    0    0 -0.80517627285E+02 -0.84103573077E+02  0.46782159405E+03  0.48209287816E+03  0.00000000000E+00 0. -1.
</event>
<event>
 7    1  0.6255318E-006  0.1104959E+03  0.7818608E-02  0.1343971E+00
          2   -1    0    0  502    0  0.00000000000E+00  0.00000000000E+00  0.15644506450E+03  0.15644506450E+03  0.00000000000E+00 0. -1.
          1   -1    0    0  501    0 -0.00000000000E+00 -0.00000000000E+00 -0.72260508357E+03  0.72260508357E+03  0.00000000000E+00 0. -1.
         25    2    1    2    0    0  0.35034383651E+02 -0.53522220887E+02 -0.37581549353E+01  0.14046622369E+03  0.12499840041E+03 0.  0.
          2    1    1    2  501    0 -0.72486033578E+02  0.87937897043E+02 -0.63765239189E+03  0.64775602791E+03  0.00000000000E+00 0. -1.
          1    1    1    2  502    0  0.37451649926E+02 -0.34415676156E+02  0.75250527761E+02  0.90827896462E+02  0.00000000000E+00 0. -1.
         22    1    3    3    0    0  0.66806447112E+02 -0.42495046862E-01 -0.29645784211E+02  0.73088820643E+02  0.00000000000E+00 0.  1.
         22    1    3    3    0    0 -0.31772063460E+02 -0.53479725841E+02  0.25887629275E+02  0.67377403052E+02  0.00000000000E+00 0.  1.
</event>
<event>
 7    1  0.6255318E-006  0.6268124E+02  0.7818608E-02  0.1504303E+00
          2   -1    0    0  502    0  0.00000000000E+00  0.00000000000E+00  0.94805151898E+03  0.94805151898E+03  0.00000000000E+00 0. -1.
          1   -1    0    0  501    0 -0.00000000000E+00 -0.00000000000E+00 -0.27365244214E+04  0.27365244214E+04  0.00000000000E+00 0. -1.
         25    2    1    2    0    0  0.66963603604E+02 -0.30263193925E+02  0.66490278186E+02  0.15951906289E+03  0.12500155686E+03 0.  0.
          2    1    1    2  501    0 -0.62504162240E+02  0.44304203527E+01 -0.26894392630E+04  0.26901691300E+04  0.00000000000E+00 0. -1.
          1    1    1    2  502    0 -0.44594413637E+01  0.25832773572E+02  0.83447608237E+03  0.83488774746E+03  0.00000000000E+00 0. -1.
         22    1    3    3    0    0  0.94487917791E+02 -0.48083843822E+02  0.69221052561E+02  0.12661586300E+03  0.00000000000E+00 0. -1.
         22    1    3    3    0    0 -0.27524314187E+02  0.17820649897E+02 -0.27307743752E+01  0.32903199888E+02  0.00000000000E+00 0. -1.
</event>
<event>
 7    1  0.6255318E-006  0.2366764E+02  0.7818608E-02  0.1684166E+00
          2   -1    0    0  502    0  0.00000000000E+00  0.00000000000E+00  0.15738463676E+04  0.15738463676E+04  0.00000000000E+00 0. -1.
          1   -1    0    0  501    0 -0.00000000000E+00 -0.00000000000E+00 -0.13214257765E+04  0.13214257765E+04  0.00000000000E+00 0. -1.
         25    2    1    2    0    0  0.55350601617E+01 -0.20548724907E+02  0.73610394570E+03  0.74694565080E+03  0.12500359748E+03 0.  0.
          2    1    1    2  501    0  0.17299475306E+02  0.16154831021E+02 -0.13157360460E+04  0.13159489326E+04  0.00000000000E+00 0. -1.
          1    1    1    2  502    0 -0.22834535467E+02  0.43938938858E+01  0.83205269142E+03  0.83237756074E+03  0.00000000000E+00 0. -1.
         22    1    3    3    0    0 -0.30846429665E+02 -0.47003562607E+02  0.61821432819E+03  0.62076548929E+03  0.00000000000E+00 0.  1.
         22    1    3    3    0    0  0.36381489827E+02  0.26454837701E+02  0.11788961751E+03  0.12618016150E+03  0.00000000000E+00 0.  1.
</event>
<event>
 7    1  0.6255318E-006  0.1170633E+03  0.7818608E-02  0.1316457E+00
          2   -1    0    0  502    0  0.00000000000E+00  0.00000000000E+00  0.61238178750E+03  0.61238178750E+03  0.00000000000E+00 0. -1.
          1   -1    0    0  501    0 -0.00000000000E+00 -0.00000000000E+00 -0.32955865872E+03  0.32955865872E+03  0.00000000000E+00 0. -1.
         25    2    1    2    0    0  0.72325239798E+02  0.45479208224E+02  0.10527315180E+03  0.18441312850E+03  0.12500586698E+03 0.  0.
          2    1    1    2  501    0 -0.12043064948E+03 -0.77225974430E+01 -0.27528884350E+03  0.30057798855E+03  0.00000000000E+00 0. -1.
          1    1    1    2  502    0  0.48105409687E+02 -0.37756610781E+02  0.45283882047E+03  0.45694932917E+03  0.00000000000E+00 0. -1.
         22    1    3    3    0    0  0.50689880230E+02 -0.34573723815E+02  0.17816236873E+02  0.63892289304E+02  0.00000000000E+00 0. -1.
         22    1    3    3    0    0  0.21635359568E+02  0.80052932038E+02  0.87456914929E+02  0.12052083920E+03  0.00000000000E+00 0. -1.
</event>
<event>
 7    1  0.6255318E-006  0.9426181E+02  0.7818608E-02  0.1327854E+00
          2   -1    0    0  502    0  0.00000000000E+00  0.00000000000E+00  0.14717192213E+03  0.14717192213E+03  0.00000000000E+00 0. -1.
          1   -1    0    0  501    0 -0.00000000000E+00 -0.00000000000E+00 -0.10507953462E+04  0.10507953462E+04  0.00000000000E+00 0. -1.
         25    2    1    2    0    0  0.19796104776E+02  0.34048971342E+02 -0.26525722289E+03  0.29586490218E+03  0.12499371116E+03 0.  0.
          2    1    1    2  501    0 -0.53837272948E+02 -0.93626336561E+02 -0.75720936285E+03  0.76487277507E+03  0.00000000000E+00 0. -1.
          1    1    1    2  502    0  0.34041168172E+02  0.59577365218E+02  0.11884316171E+03  0.13722959106E+03  0.00000000000E+00 0. -1.
         22    1    3    3    0    0  0.71818225699E+02  0.32811939787E+02 -0.15561115118E+03  0.17449731031E+03  0.00000000000E+00 0.  1.
         22    1    3    3    0    0 -0.52022120923E+02  0.12370315557E+01 -0.10964607171E+03  0.12136759186E+03  0.00000000000E+00 0.  1.
</event>
<event>
 7    1  0.6255318E-006  0.5874067E+02  0.7818608E-02  0.1443754E+00
          2   -1    0    0  502    0  0.00000000000E+00  0.00000000000E+00  0.18823764003E+02  0.18823764003E+02  0.00000000000E+00 0. -1.
          1   -1    0    0  501    0 -0.00000000000E+00 -0.00000000000E+00 -0.12591867203E+04  0.12591867203E+04  0.00000000000E+00 0. -1.
         25    2    1    2    0    0 -0.40752123069E+02  0.29656425325E+02 -0.40447923373E+03  0.42634405400E+03  0.12500225105E+03 0.  0.
          2    1    1    2  501    0 -0.24237588832E+02 -0.35596340165E+02 -0.69575332452E+03  0.69708482176E+03  0.00000000000E+00 0. -1.
          1    1    1    2  502    0  0.64989711901E+02  0.59399148397E+01 -0.14013039800E+03  0.15458160850E+03  0.00000000000E+00 0. -1.
         22    1    3    3    0    0 -0.19472622431E+02  0.72778854108E+02 -0.15581569753E+03  0.17307361505E+03  0.00000000000E+00 0.  1.
         22    1    3    3    0    0 -0.21279500637E+02 -0.43122428783E+02 -0.24866353620E+03  0.25327043895E+03  0.00000000000E+00 0.  1.
</event>
<event>
 7    1  0.6255318E-006  0.6244104E+03  0.7818608E-02  0.1050238E+00
          2   -1    0    0  502    0  0.00000000000E+00  0.00000000000E+00  0.19647801945E+04  0.19647801945E+04  0.00000000000E+00 0. -1.
          1   -1    0    0  501    0 -0.00000000000E+00 -0.00000000000E+00 -0.84047380421E+03  0.84047380421E+03  0.00000000000E+00 0. -1.
         25    2    1    2    0    0  0.49064756266E+03 -0.15734686097E+03  0.21186835275E+03  0.57096920625E+03  0.12499828073E+03 0.  0.
          2    1    1    2  501    0 -0.56592384429E+03  0.37844731712E+03 -0.47319851421E+03  0.82910132265E+03  0.00000000000E+00 0. -1.
          1    1    1    2  502    0  0.75276281627E+02 -0.22110045616E+03  0.13856365518E+04  0.14051834698E+04  0.00000000000E+00 0. -1.
         22    1    3    3    0    0  0.45888316946E+03 -0.14827243660E+03  0.22889041133E+03  0.53380642472E+03  0.00000000000E+00 0.  1.
         22    1    3    3    0    0  0.31764393198E+02 -0.90744243622E+01 -0.17022058577E+02  0.37162781529E+02  0.00000000000E+00 0.  1.
</event>
<event>
 7    1  0.6255318E-006  0.6450197E+02  0.7818608E-02  0.1444151E+00
          2   -1    0    0  502    0  0.00000000000E+00  0.00000000000E+00  0.42466736523E+02  0.42466736523E+02  0.00000000000E+00 0. -1.
          1   -1    0    0  501    0 -0.00000000000E+00 -0.00000000000E+00 -0.20777435239E+04  0.20777435239E+04  0.00000000000E+00 0. -1.
         25    2    1    2    0    0 -0.85188841293E+01 -0.81898676271E+02 -0.12792140042E+04  0.12879413788E+04  0.12499824824E+03 0.  0.
          2    1    1    2  501    0  0.33249324193E+02  0.51609951059E+02 -0.78260480884E+03  0.78500916646E+03  0.00000000000E+00 0. -1.
          1    1    1    2  502    0 -0.24730440064E+02  0.30288725212E+02  0.26542025747E+02  0.47259715101E+02  0.00000000000E+00 0. -1.
         22    1    3    3    0    0  0.32538590677E+02 -0.57772132924E+02 -0.28595978814E+03  0.29354621383E+03  0.00000000000E+00 0.  1.
         22    1    3    3    0    0 -0.41057474806E+02 -0.24126543347E+02 -0.99325421610E+03  0.99439516498E+03  0.00000000000E+00 0.  1.
</event>
<event>
 7    1  0.6255318E-006  0.5903258E+02  0.7818608E-02  0.1419673E+00
          2   -1    0    0  502    0  0.00000000000E+00  0.00000000000E+00  0.25048090870E+04  0.25048090870E+04  0.00000000000E+00 0. -1.
          1   -1    0    0  501    0 -0.00000000000E+00 -0.00000000000E+00 -0.10037424049E+03  0.10037424049E+03  0.00000000000E+00 0. -1.
         25    2    1    2    0    0  0.42114274133E+02 -0.94230486175E+01  0.40061207417E+02  0.13817458320E+03  0.12499963668E+03 0.  0.
          2    1    1    2  501    0 -0.52031057322E+02 -0.41022509017E+02 -0.29539098729E+02  0.72544024742E+02  0.00000000000E+00 0. -1.
          1    1    1    2  502    0  0.99167831888E+01  0.50445557635E+02  0.23939127378E+04  0.23944647196E+04  0.00000000000E+00 0. -1.
         22    1    3    3    0    0 -0.25852835589E+02 -0.43892003950E+02 -0.22862020941E+01  0.50991213349E+02  0.00000000000E+00 0.  1.
         22    1    3    3    0    0  0.67967109722E+02  0.34468955333E+02  0.42347409511E+02  0.87183369847E+02  0.00000000000E+00 0.  1.
</event>
<event>
 7    1  0.6255318E-006  0.9786002E+02  0.7818608E-02  0.1376992E+00
          2   -1    0    0  502    0  0.00000000000E+00  0.00000000000E+00  0.13425555188E+04  0.13425555188E+04  0.00000000000E+00 0. -1.
          1   -1    0    0  501    0 -0.00000000000E+00 -0.00000000000E+00 -0.87826033533E+02  0.87826033533E+02  0.00000000000E+00 0. -1.
         25    2    1    2    0    0  0.75778770465E+02  0.10950758691E+03  0.28383673573E+03  0.33752362447E+03  0.12499828351E+03 0.  0.
          2    1    1    2  501    0 -0.79767380847E+01 -0.42784200481E+02 -0.50716015016E+02  0.66829861142E+02  0.00000000000E+00 0. -1.
          1    1    1    2  502    0 -0.67802032381E+02 -0.66723386431E+02  0.10216087646E+04  0.10260280668E+04  0.00000000000E+00 0. -1.
         22    1    3    3    0    0  0.63572760940E+02  0.85228970471E+02  0.83080083882E+02  0.13493618373E+03  0.00000000000E+00 0. -1.
         22    1    3    3    0    0  0.12206009525E+02  0.24278616441E+02  0.20075665185E+03  0.20258744074E+03  0.00000000000E+00 0. -1.
</event>
<event>
 7    1  0.6255318E-006  0.2171828E+03  0.7818608E-02  0.1257643E+00
          2   -1    0    0  502    0  0.00000000000E+00  0.00000000000E+00  0.23837589615E+04  0.23837589615E+04  0.00000000000E+00 0. -1.
          1   -1    0    0  501    0 -0.00000000000E+00 -0.00000000000E+00 -0.73101463859E+02  0.73101463859E+02  0.00000000000E+00 0. -1.
         25    2    1    2    0    0  0.14641180881E+03  0.99818039042E+02  0.81992300521E+03  0.84811565165E+03  0.12500546161E+03 0.  0.
          2    1    1    2  501    0 -0.17024044669E+03 -0.15197442555E+03  0.16460635911E+03  0.28137748519E+03  0.00000000000E+00 0. -1.
          1    1    1    2  502    0  0.23828637875E+02  0.52156386513E+02  0.13261281334E+04  0.13273672885E+04  0.00000000000E+00 0. -1.
         22    1    3    3    0    0  0.14620891706E+03  0.12457952055E+03  0.72848144752E+03  0.75338059687E+03  0.00000000000E+00 0.  1.
         22    1    3    3    0    0  0.20289175290E+00 -0.24761481506E+02  0.91441557686E+02  0.94735054777E+02  0.00000000000E+00 0.  1.
</event>
<event>
 7    1  0.6255318E-006  0.4702470E+02  0.7818608E-02  0.1533361E+00
          2   -1    0    0  502    0  0.00000000000E+00  0.00000000000E+00  0.59910154526E+03  0.59910154526E+03  0.00000000000E+00 0. -1.
          1   -1    0    0  501    0 -0.00000000000E+00 -0.00000000000E+00 -0.29341661725E+03  0.29341661725E+03  0.00000000000E+00 0. -1.
         25    2    1    2    0    0 -0.47002254523E+02  0.20225690198E+02 -0.81505469749E+02  0.15775413701E+03  0.12499974268E+03 0.  0.
          2    1    1    2  501    0  0.72038350562E+00 -0.28753913628E+02 -0.17160077234E+03  0.17399463086E+03  0.00000000000E+00 0. -1.
          1    1    1    2  502    0  0.46281871018E+02  0.85282234303E+01  0.55879117010E+03  0.56076939464E+03  0.00000000000E+00 0. -1.
         22    1    3    3    0    0 -0.68284195044E+02  0.58566298722E+02 -0.44445429845E+02  0.10034011597E+03  0.00000000000E+00 0.  1.
         22    1    3    3    0    0  0.21281940521E+02 -0.38340608524E+02 -0.37060039904E+02  0.57414021041E+02  0.00000000000E+00 0.  1.
</event>
<event>
 7    1  0.6255318E-006  0.5739848E+02  0.7818608E-02  0.1462255E+00
          2   -1    0    0  502    0  0.00000000000E+00  0.00000000000E+00  0.20131730682E+04  0.20131730682E+04  0.00000000000E+00 0. -1.
          1   -1    0    0  501    0 -0.00000000000E+00 -0.00000000000E+00 -0.34112797308E+03  0.34112797308E+03  0.00000000000E+00 0. -1.
         25    2    1    2    0    0 -0.18979790920E+02 -0.29530610343E+02  0.18105450842E+04  0.18151945418E+04  0.12500173306E+03 0.  0.
          2    1    1    2  501    0  0.55093454774E+02  0.16250470892E+02 -0.33448439159E+03  0.33938057514E+03  0.00000000000E+00 0. -1.
          1    1    1    2  502    0 -0.36113663854E+02  0.13280139451E+02  0.19598440249E+03  0.19972592431E+03  0.00000000000E+00 0. -1.
         22    1    3    3    0    0 -0.41519410852E+02  0.17793602186E+02  0.26959159040E+03  0.27334977478E+03  0.00000000000E+00 0.  1.
         22    1    3    3    0    0  0.22539619932E+02 -0.47324212529E+02  0.15409534938E+04  0.15418447670E+04  0.00000000000E+00 0.  1.
</event>
<event>
 7    1  0.6255318E-006  0.4088809E+02  0.7818608E-02  0.1578992E+00
          2   -1    0    0  502    0  0.00000000000E+00  0.00000000000E+00  0.13164611585E+04  0.13164611585E+04  0.00000000000E+00 0. -1.
          1   -1    0    0  501    0 -0.00000000000E+00 -0.00000000000E+00 -0.10140269065E+03  0.10140269065E+03  0.00000000000E+00 0. -1.
         25    2    1    2    0    0  0.58128619236E+02 -0.10405070720E+02  0.75971220303E+02  0.15774509292E+03  0.12499874461E+03 0.  0.
          2    1    1    2  501    0 -0.39575884961E+02 -0.59519280083E+01 -0.53756734085E+02  0.67018374920E+02  0.00000000000E+00 0. -1.
          1    1    1    2  502    0 -0.18552734275E+02  0.16356998728E+02  0.11928439816E+04  0.11931003813E+04  0.00000000000E+00 0. -1.
         22    1    3    3    0    0 -0.13848483565E+02  0.20685805357E+02 -0.21332603732E+02  0.32783578546E+02  0.00000000000E+00 0. -1.
         22    1    3    3    0    0  0.71977102801E+02 -0.31090876076E+02  0.97303824036E+02  0.12496151437E+03  0.00000000000E+00 0. -1.
</event>
<event>
 7    1  0.6255318E-006  0.5225625E+02  0.7818608E-02  0.1520104E+00
          2   -1    0    0  502    0  0.00000000000E+00  0.00000000000E+00  0.62466942454E+03  0.62466942454E+03  0.00000000000E+00 0. -1.
          1   -1    0    0  501    0 -0.00000000000E+00 -0.00000000000E+00 -0.65600753497E+03  0.65600753497E+03  0.00000000000E+00 0. -1.
         25    2    1    2    0    0 -0.45747990597E+02 -0.39189844297E+02  0.30580703992E+01  0.13882495522E+03  0.12503716991E+03 0.  0.
          2    1    1    2  501    0 -0.52255224775E+01  0.27772587019E+02 -0.58655119681E+03  0.58723158051E+03  0.00000000000E+00 0. -1.
          1    1    1    2  502    0  0.50973513075E+02  0.11417257278E+02  0.55215501598E+03  0.55462042378E+03  0.00000000000E+00 0. -1.
         22    1    3    3    0    0 -0.71632144376E+02 -0.62789629728E+02 -0.19406198917E+02  0.97212665151E+02  0.00000000000E+00 0. -1.
         22    1    3    3    0    0  0.25884153779E+02  0.23599785431E+02  0.22464269316E+02  0.41612290073E+02  0.00000000000E+00 0. -1.
</event>
<event>
 7    1  0.6255318E-006  0.9679367E+02  0.7818608E-02  0.1425809E+00
          2   -1    0    0  502    0  0.00000000000E+00  0.00000000000E+00  0.43773252829E+03  0.43773252829E+03  0.00000000000E+00 0. -1.
          1   -1    0    0  501    0 -0.00000000000E+00 -0.00000000000E+00 -0.59586882904E+02  0.59586882904E+02  0.00000000000E+00 0. -1.
         25    2    1    2    0    0 -0.96567606127E+02 -0.55627228183E+02  0.24126239548E+03  0.29369090904E+03  0.12500846175E+03 0.  0.
          2    1    1    2  501    0  0.67943763985E+02  0.64321256320E+02  0.39153501211E+02  0.10142275749E+03  0.00000000000E+00 0. -1.
          1    1    1    2  502    0  0.28623842142E+02 -0.86940281368E+01  0.97729748696E+02  0.10220574467E+03  0.00000000000E+00 0. -1.
         22    1    3    3    0    0 -0.10120693350E+03 -0.84103494930E+02  0.15828516971E+03  0.20584080305E+03  0.00000000000E+00 0. -1.
         22    1    3    3    0    0  0.46393273717E+01  0.28476266747E+02  0.82977225768E+02  0.87850105990E+02  0.00000000000E+00 0. -1.
</event>
<event>
 7    1  0.6255318E-006  0.1028093E+03  0.7818608E-02  0.1340567E+00
          2   -1    0    0  502    0  0.00000000000E+00  0.00000000000E+00  0.11815436329E+04  0.11815436329E+04  0.00000000000E+00 0. -1.
          1   -1    0    0  501    0 -0.00000000000E+00 -0.00000000000E+00 -0.29560267829E+03  0.29560267829E+03  0.00000000000E+00 0. -1.
         25    2    1    2    0    0 -0.44164452713E+02 -0.30518310113E+02  0.13671016589E+03  0.19286341554E+03  0.12499904583E+03 0.  0.
          2    1    1    2  501    0  0.67716861616E+02  0.81650642171E+02 -0.25619235655E+03  0.27728491533E+03  0.00000000000E+00 0. -1.
          1    1    1    2  502    0 -0.23552408904E+02 -0.51132332058E+02  0.10054231453E+04  0.10069979803E+04  0.00000000000E+00 0. -1.
         22    1    3    3    0    0 -0.34735899276E+02  0.41977940551E+02  0.26445272507E+02  0.60564697881E+02  0.00000000000E+00 0. -1.
         22    1    3    3    0    0 -0.94285534370E+01 -0.72496250664E+02  0.11026489339E+03  0.13229871766E+03  0.00000000000E+00 0. -1.
</event>
<event>
 7    1  0.6255318E-006  0.1166291E+03  0.7818608E-02  0.1381015E+00
          2   -1    0    0  502    0  0.00000000000E+00  0.00000000000E+00  0.48087838238E+03  0.48087838238E+03  0.00000000000E+00 0. -1.
          1   -1    0    0  501    0 -0.00000000000E+00 -0.00000000000E+00 -0.71666283136E+03  0.71666283136E+03  0.00000000000E+00 0. -1.
         25    2    1    2    0    0 -0.38093090222E+02  0.11366110630E+03 -0.37944650731E+03  0.41710406671E+03  0.12500487970E+03 0.  0.
          2    1    1    2  501    0  0.68000164681E+02 -0.94838765805E+02 -0.30697931399E+03  0.32841241315E+03  0.00000000000E+00 0. -1.
          1    1    1    2  502    0 -0.29907074459E+02 -0.18822340496E+02  0.45064137231E+03  0.45202473389E+03  0.00000000000E+00 0. -1.
         22    1    3    3    0    0  0.26430701163E+02  0.77076718416E+02 -0.28828403620E+03  0.29957818347E+03  0.00000000000E+00 0. -1.
         22    1    3    3    0    0 -0.64523791384E+02  0.36584387885E+02 -0.91162471109E+02  0.11752588324E+03  0.00000000000E+00 0. -1.
</event>
<event>
 7    1  0.6255318E-006  0.1486414E+03  0.7818608E-02  0.1254643E+00
          2   -1    0    0  502    0  0.00000000000E+00  0.00000000000E+00  0.44187738712E+03  0.44187738712E+03  0.00000000000E+00 0. -1.
          1   -1    0    0  501    0 -0.00000000000E+00 -0.00000000000E+00 -0.11342806197E+04  0.11342806197E+04  0.00000000000E+00 0. -1.
         25    2    1    2    0    0 -0.93094514695E+02  0.78480665995E+01  0.83329345536E+02  0.17690563535E+03  0.12499457258E+03 0.  0.
          2    1    1    2  501    0 -0.86200086802E+02 -0.42670472310E+01 -0.10598037889E+04  0.10633121525E+04  0.00000000000E+00 0. -1.
          1    1    1    2  502    0  0.17929460150E+03 -0.35810193685E+01  0.28407121087E+03  0.33594021889E+03  0.00000000000E+00 0. -1.
         22    1    3    3    0    0 -0.46015932781E+02 -0.54691970635E+02  0.15072725287E+02  0.73047003835E+02  0.00000000000E+00 0. -1.
         22    1    3    3    0    0 -0.47078581914E+02  0.62540037234E+02  0.68256620248E+02  0.10385863151E+03  0.00000000000E+00 0. -1.
</event>
<event>
 7    1  0.6255318E-006  0.4004297E+02  0.7818608E-02  0.1608003E+00
          2   -1    0    0  502    0  0.00000000000E+00  0.00000000000E+00  0.26713436078E+03  0.26713436078E+03  0.00000000000E+00 0. -1.
          1   -1    0    0  501    0 -0.00000000000E+00 -0.00000000000E+00 -0.15198532711E+04  0.15198532711E+04  0.00000000000E+00 0. -1.
         25    2    1    2    0    0  0.37568766465E+02 -0.15028710229E+02 -0.10134095650E+03  0.16593190819E+03  0.12500453731E+03 0.  0.
          2    1    1    2  501    0  0.20809858385E+01  0.21076868929E+02 -0.13844227114E+04  0.13845847062E+04  0.00000000000E+00 0. -1.
          1    1    1    2  502    0 -0.39649752303E+02 -0.60481586996E+01  0.23304475755E+03  0.23647101747E+03  0.00000000000E+00 0. -1.
         22    1    3    3    0    0  0.60689347151E+02  0.37771856793E+02 -0.40660708001E+02  0.82238696478E+02  0.00000000000E+00 0. -1.
         22    1    3    3    0    0 -0.23120580686E+02 -0.52800567022E+02 -0.60680248496E+02  0.83693211712E+02  0.00000000000E+00 0. -1.
</event>
<event>
 7    1  0.6255318E-006  0.1218568E+03  0.7818608E-02  0.1305215E+00
          2   -1    0    0  502    0  0.00000000000E+00  0.00000000000E+00  0.16644163284E+03  0.16644163284E+03  0.00000000000E+00 0. -1.
          1   -1    0    0  501    0 -0.00000000000E+00 -0.00000000000E+00 -0.31399805438E+04  0.31399805438E+04  0.00000000000E+00 0. -1.
         25    2    1    2    0    0  0.74718768570E+02  0.67734568444E+01 -0.12051829751E+04  0.12139684051E+04  0.12499804412E+03 0.  0.
          2    1    1    2  501    0  0.39781015690E+02 -0.51465883808E+02 -0.19064629212E+04  0.19075723148E+04  0.00000000000E+00 0. -1.
          1    1    1    2  502    0 -0.11449978426E+03  0.44692426964E+02  0.13810698535E+03  0.18488145669E+03  0.00000000000E+00 0. -1.
         22    1    3    3    0    0  0.68216407783E+02  0.45128834709E+02 -0.10747398686E+04  0.10778477978E+04  0.00000000000E+00 0. -1.
         22    1    3    3    0    0  0.65023607877E+01 -0.38355377864E+02 -0.13044310652E+03  0.13612060735E+03  0.00000000000E+00 0. -1.
</event>
<event>
 7    1  0.6255318E-006  0.4757072E+02  0.7818608E-02  0.1468034E+00
          2   -1    0    0  502    0  0.00000000000E+00  0.00000000000E+00  0.37825442258E+03  0.37825442258E+03  0.00000000000E+00 0. -1.
          1   -1    0    0  501    0 -0.00000000000E+00 -0.00000000000E+00 -0.19402873066E+04  0.19402873066E+04  0.00000000000E+00 0. -1.
         25    2    1    2    0    0  0.17270550441E+02 -0.29572561892E+01  0.29981255191E+02  0.12973265075E+03  0.12499867092E+03 0.  0.
          2    1    1    2  501    0 -0.38346060279E+01 -0.44366827175E+02 -0.18881197057E+04  0.18886447900E+04  0.00000000000E+00 0. -1.
          1    1    1    2  502    0 -0.13435944413E+02  0.47324083364E+02  0.29610556657E+03  0.30016428839E+03  0.00000000000E+00 0. -1.
         22    1    3    3    0    0 -0.14671645847E+01 -0.10273115375E+02  0.77468643900E+02  0.78160605545E+02  0.00000000000E+00 0. -1.
         22    1    3    3    0    0  0.18737715026E+02  0.73158591860E+01 -0.47487388709E+02  0.51572045203E+02  0.00000000000E+00 0. -1.
</event>
<event>
 7    1  0.6255318E-006  0.6719811E+02  0.7818608E-02  0.1429525E+00
          2   -1    0    0  502    0  0.00000000000E+00  0.00000000000E+00  0.15638850346E+04  0.15638850346E+04  0.00000000000E+00 0. -1.
          1   -1    0    0  501    0 -0.00000000000E+00 -0.00000000000E+00 -0.28706282102E+03  0.28706282102E+03  0.00000000000E+00 0. -1.
         25    2    1    2    0    0  0.15902630895E+02 -0.37227632485E+02  0.45490924901E+02  0.13904757423E+03  0.12500405338E+03 0.  0.
          2    1    1    2  501    0 -0.57789356489E+02  0.37683556571E+02 -0.23502711591E+03  0.24494367796E+03  0.00000000000E+00 0. -1.
          1    1    1    2  502    0  0.41886725594E+02 -0.45592408638E+00  0.14663584046E+04  0.14669566034E+04  0.00000000000E+00 0. -1.
         22    1    3    3    0    0  0.37404666921E+02  0.87451876853E+01 -0.29543661186E+02  0.48460451209E+02  0.00000000000E+00 0.  1.
         22    1    3    3    0    0 -0.21502036025E+02 -0.45972820170E+02  0.75034586088E+02  0.90587123020E+02  0.00000000000E+00 0.  1.
</event>
<event>
 7    1  0.6255318E-006  0.5295383E+02  0.7818608E-02  0.1443083E+00
          2   -1    0    0  502    0  0.00000000000E+00  0.00000000000E+00  0.42356208590E+03  0.42356208590E+03  0.00000000000E+00 0. -1.
          1   -1    0    0  501    0 -0.00000000000E+00 -0.00000000000E+00 -0.89908800440E+02  0.89908800440E+02  0.00000000000E+00 0. -1.
         25    2    1    2    0    0  0.35963734688E+02  0.92823162543E+00  0.17805690357E+03  0.22049273707E+03  0.12497413478E+03 0.  0.
          2    1    1    2  501    0 -0.26635814739E+02 -0.48022931708E+02 -0.54558028309E+02  0.77409605668E+02  0.00000000000E+00 0. -1.
          1    1    1    2  502    0 -0.93279199491E+01  0.47094700083E+02  0.21015441019E+03  0.21556854360E+03  0.00000000000E+00 0. -1.
         22    1    3    3    0    0  0.33645451287E+02  0.39230396352E+02  0.17445776089E+03  0.18195205611E+03  0.00000000000E+00 0.  1.
         22    1    3    3    0    0  0.23182834010E+01 -0.38302164727E+02  0.35991426893E+01  0.38540680959E+02  0.00000000000E+00 0.  1.
</event>
<event>
 7    1  0.6255318E-006  0.7948213E+02  0.7818608E-02  0.1438751E+00
          2   -1    0    0  502    0  0.00000000000E+00  0.00000000000E+00  0.20862075424E+03  0.20862075424E+03  0.00000000000E+00 0. -1.
          1   -1    0    0  501    0 -0.00000000000E+00 -0.00000000000E+00 -0.87164679915E+03  0.87164679915E+03  0.00000000000E+00 0. -1.
         25    2    1    2    0    0  0.26974529623E+02 -0.70074977765E+02 -0.67703678876E+03  0.69255993887E+03  0.12498931088E+03 0.  0.
          2    1    1    2  501    0  0.27373219527E+00  0.88755530851E+02 -0.17479248116E+03  0.19603578922E+03  0.00000000000E+00 0. -1.
          1    1    1    2  502    0 -0.27248261819E+02 -0.18680553086E+02  0.18880322501E+03  0.19167182529E+03  0.00000000000E+00 0. -1.
         22    1    3    3    0    0  0.44596354367E+02 -0.98898667467E+02 -0.57285549500E+03  0.58303790563E+03  0.00000000000E+00 0.  1.
         22    1    3    3    0    0 -0.17621824743E+02  0.28823689702E+02 -0.10418129376E+03  0.10952203324E+03  0.00000000000E+00 0.  1.
</event>
<event>
 7    1  0.6255318E-006  0.7674623E+02  0.7818608E-02  0.1358779E+00
          2   -1    0    0  502    0  0.00000000000E+00  0.00000000000E+00  0.58190057755E+03  0.58190057755E+03  0.00000000000E+00 0. -1.
          1   -1    0    0  501    0 -0.00000000000E+00 -0.00000000000E+00 -0.33486607746E+03  0.33486607746E+03  0.00000000000E+00 0. -1.
         25    2    1    2    0    0  0.32450329752E+01  0.72196601462E+01 -0.81517332406E+02  0.14944036848E+03  0.12499877806E+03 0.  0.
          2    1    1    2  501    0  0.65409123485E+02 -0.41521121838E+02 -0.20973965557E+03  0.22359132388E+03  0.00000000000E+00 0. -1.
          1    1    1    2  502    0 -0.68654156461E+02  0.34301461691E+02  0.53829148808E+03  0.54373496265E+03  0.00000000000E+00 0. -1.
         22    1    3    3    0    0  0.40594889440E+02  0.52609263418E+02 -0.44496420048E+02  0.79972564315E+02  0.00000000000E+00 0. -1.
         22    1    3    3    0    0 -0.37349856465E+02 -0.45389603272E+02 -0.37020912358E+02  0.69467804161E+02  0.00000000000E+00 0. -1.
</event>
<event>
 7    1  0.6255318E-006  0.1403467E+03  0.7818608E-02  0.1215044E+00
          2   -1    0    0  502    0  0.00000000000E+00  0.00000000000E+00  0.19282217901E+04  0.19282217901E+04  0.00000000000E+00 0. -1.
          1   -1    0    0  501    0 -0.00000000000E+00 -0.00000000000E+00 -0.14604226573E+03  0.14604226573E+03  0.00000000000E+00 0. -1.
         25    2    1    2    0    0  0.82229572572E+02 -0.79945413931E+02  0.73759014312E+03  0.75684645105E+03  0.12499743770E+03 0.  0.
          2    1    1    2  501    0  0.97283238797E+02  0.96657644133E+02 -0.92956551143E+02  0.16567332049E+03  0.00000000000E+00 0. -1.
          1    1    1    2  502    0 -0.17951281137E+03 -0.16712230202E+02  0.11375459323E+04  0.11517442842E+04  0.00000000000E+00 0. -1.
         22    1    3    3    0    0  0.10766428197E+03 -0.27271818423E+02  0.47190039398E+03  0.48479411251E+03  0.00000000000E+00 0. -1.
         22    1    3    3    0    0 -0.25434709399E+02 -0.52673595508E+02  0.26568974914E+03  0.27205233854E+03  0.00000000000E+00 0. -1.
</event>
<event>
 7    1  0.6255318E-006  0.1414302E+03  0.7818608E-02  0.1257466E+00
          2   -1    0    0  502    0  0.00000000000E+00  0.00000000000E+00  0.11340605438E+04  0.11340605438E+04  0.00000000000E+00 0. -1.
          1   -1    0    0  501    0 -0.00000000000E+00 -0.00000000000E+00 -0.23139069281E+03  0.23139069281E+03  0.00000000000E+00 0. -1.
         25    2    1    2    0    0  0.14759181225E+03 -0.10577406111E+03  0.31610828104E+03  0.38538303006E+03  0.12499655783E+03 0.  0.
          2    1    1    2  501    0 -0.86493782274E+02 -0.17308825607E+02 -0.18044426419E+03  0.20085044759E+03  0.00000000000E+00 0. -1.
          1    1    1    2  502    0 -0.61098029971E+02  0.12308288672E+03  0.76700583415E+03  0.77921775897E+03  0.00000000000E+00 0. -1.
         22    1    3    3    0    0  0.62269967649E+02  0.21656200448E+02  0.77583206473E+02  0.10181205143E+03  0.00000000000E+00 0. -1.
         22    1    3    3    0    0  0.85321844596E+02 -0.12743026156E+03  0.23852507456E+03  0.28357097863E+03  0.00000000000E+00 0. -1.
</event>
<event>
 7    1  0.6255318E-006  0.1318191E+03  0.7818608E-02  0.1324510E+00
          2   -1    0    0  502    0  0.00000000000E+00  0.00000000000E+00  0.22799204736E+04  0.22799204736E+04  0.00000000000E+00 0. -1.
          1   -1    0    0  501    0 -0.00000000000E+00 -0.00000000000E+00 -0.31155161257E+03  0.31155161257E+03  0.00000000000E+00 0. -1.
         25    2    1    2    0    0  0.13988736714E+03  0.10980741358E+03  0.98703286060E+03  0.10106852175E+04  0.12499838990E+03 0.  0.
          2    1    1    2  501    0 -0.92072201288E+02 -0.93435142199E+02 -0.28484446385E+03  0.31359812600E+03  0.00000000000E+00 0. -1.
          1    1    1    2  502    0 -0.47815165854E+02 -0.16372271377E+02  0.12661804643E+04  0.12671887427E+04  0.00000000000E+00 0. -1.
         22    1    3    3    0    0  0.54527312785E+02 -0.23051053835E+02  0.24780753909E+03  0.25478060239E+03  0.00000000000E+00 0. -1.
         22    1    3    3    0    0  0.85360054356E+02  0.13285846741E+03  0.73922532151E+03  0.75590461515E+03  0.00000000000E+00 0. -1.
</event>
<event>
 7    1  0.6255318E-006  0.1339341E+03  0.7818608E-02  0.1324895E+00
          2   -1    0    0  502    0  0.00000000000E+00  0.00000000000E+00  0.17952015455E+04  0.17952015455E+04  0.00000000000E+00 0. -1.
          1   -1    0    0  501    0 -0.00000000000E+00 -0.00000000000E+00 -0.46219686817E+03  0.46219686817E+03  0.00000000000E+00 0. -1.
         25    2    1    2    0    0 -0.52136754867E+02  0.12401113379E+03  0.72815367971E+03  0.75095351626E+03  0.12500559905E+03 0.  0.
          2    1    1    2  501    0 -0.42314767544E+02 -0.25824961494E+02 -0.44501914000E+03  0.44777170875E+03  0.00000000000E+00 0. -1.
          1    1    1    2  502    0  0.94451522410E+02 -0.98186172297E+02  0.10498701376E+04  0.10586731886E+04  0.00000000000E+00 0. -1.
         22    1    3    3    0    0 -0.19372931931E+02  0.29678764759E+02  0.50771883668E+03  0.50895437584E+03  0.00000000000E+00 0. -1.
         22    1    3    3    0    0 -0.32763822936E+02  0.94332369032E+02  0.22043484303E+03  0.24199914042E+03  0.00000000000E+00 0. -1.
</event>
<event>
 7    1  0.6255318E-006  0.1140610E+03  0.7818608E-02  0.1266978E+00
          2   -1    0    0  502    0  0.00000000000E+00  0.00000000000E+00  0.17112607586E+03  0.17112607586E+03  0.00000000000E+00 0. -1.
          1   -1    0    0  501    0 -0.00000000000E+00 -0.00000000000E+00 -0.86128250791E+03  0.86128250791E+03  0.00000000000E+00 0. -1.
         25    2    1    2    0    0  0.95122692171E+02  0.15858993568E+03 -0.19604910818E+03  0.29708524094E+03  0.12500117320E+03 0.  0.
          2    1    1    2  501    0 -0.85883949826E+02 -0.50532519188E+02 -0.58524173933E+03  0.59366445219E+03  0.00000000000E+00 0. -1.
          1    1    1    2  502    0 -0.92387423452E+01 -0.10805741649E+03  0.91134415453E+02  0.14165889065E+03  0.00000000000E+00 0. -1.
         22    1    3    3    0    0  0.10372751669E+03  0.17563159310E+03 -0.17613486712E+03  0.26949832212E+03  0.00000000000E+00 0. -1.
         22    1    3    3    0    0 -0.86048245195E+01 -0.17041657418E+02 -0.19914241063E+02  0.27586918815E+02  0.00000000000E+00 0. -1.
</event>
<event>
 7    1  0.6255318E-006  0.8708842E+02  0.7818608E-02  0.1440492E+00
          2   -1    0    0  502    0  0.00000000000E+00  0.00000000000E+00  0.61678364486E+03  0.61678364486E+03  0.00000000000E+00 0. -1.
          1   -1    0    0  501    0 -0.00000000000E+00 -0.00000000000E+00 -0.17335574770E+04  0.17335574770E+04  0.00000000000E+00 0. -1.
         25    2    1    2    0    0 -0.56470520052E+02  0.26371651345E+02  0.15957779069E+03  0.21207199340E+03  0.12500030190E+03 0.  0.
          2    1    1    2  501    0 -0.24058536312E+02  0.17519118807E+02 -0.17022994057E+04  0.17025595436E+04  0.00000000000E+00 0. -1.
          1    1    1    2  502    0  0.80529056364E+02 -0.43890770152E+02  0.42594778289E+03  0.43570958489E+03  0.00000000000E+00 0. -1.
         22    1    3    3    0    0 -0.22749388784E+02 -0.81318177445E+01  0.16197541766E+03  0.16376720391E+03  0.00000000000E+00 0. -1.
         22    1    3    3    0    0 -0.33721131269E+02  0.34503469089E+02 -0.23976269685E+01  0.48304789497E+02  0.00000000000E+00 0. -1.
</event>
<event>
 7    1  0.6255318E-006  0.6712670E+02  0.7818608E-02  0.1524378E+00
          2   -1    0    0  502    0  0.00000000000E+00  0.00000000000E+00  0.15017511783E+03  0.15017511783E+03  0.00000000000E+00 0. -1.
          1   -1    0    0  501    0 -0.00000000000E+00 -0.00000000000E+00 -0.20291901031E+04  0.20291901031E+04  0.00000000000E+00 0. -1.
         25    2    1    2    0    0 -0.52424015402E+02  0.17549003030E+02 -0.14025894551E+04  0.14092335794E+04  0.12500342722E+03 0.  0.
          2    1    1    2  501    0 -0.24561299656E+01  0.21240065346E+02 -0.61539450926E+03  0.61576584428E+03  0.00000000000E+00 0. -1.
          1    1    1    2  502    0  0.54880145368E+02 -0.38789068377E+02  0.13896897915E+03  0.15436579721E+03  0.00000000000E+00 0. -1.
         22    1    3    3    0    0 -0.20400990481E+02 -0.34075417674E+02 -0.10940320605E+04  0.10947527045E+04  0.00000000000E+00 0. -1.
         22    1    3    3    0    0 -0.32023024922E+02  0.51624420704E+02 -0.30855739463E+03  0.31448087496E+03  0.00000000000E+00 0. -1.
</event>
<event>
 7    1  0.6255318E-006  0.6814407E+02  0.7818608E-02  0.1395116E+00
          2   -1    0    0  502    0  0.00000000000E+00  0.00000000000E+00  0.15045037727E+04  0.15045037727E+04  0.00000000000E+00 0. -1.
          1   -1    0    0  501    0 -0.00000000000E+00 -0.00000000000E+00 -0.21084745588E+03  0.21084745588E+03  0.00000000000E+00 0. -1.
         25    2    1    2    0    0  0.57982286301E+02  0.36783266075E+02 -0.91703321740E+02  0.16955644361E+03  0.12499973666E+03 0.  0.
          2    1    1    2  501    0 -0.17228535799E+02 -0.72186065335E+02 -0.62441488072E+02  0.96987576044E+02  0.00000000000E+00 0. -1.
          1    1    1    2  502    0 -0.40753750503E+02  0.35402799260E+02  0.14478011266E+04  0.14488072089E+04  0.00000000000E+00 0. -1.
         22    1    3    3    0    0 -0.18935721159E+02  0.33830187783E+02 -0.83605420395E+02  0.92156982702E+02  0.00000000000E+00 0.  1.
         22    1    3    3    0    0  0.76918007460E+02  0.29530782916E+01 -0.80979013447E+01  0.77399460910E+02  0.00000000000E+00 0.  1.
</event>
<event>
 7    1  0.6255318E-006  0.1433663E+03  0.7818608E-02  0.1298377E+00
          2   -1    0    0  502    0  0.00000000000E+00  0.00000000000E+00  0.18282617072E+04  0.18282617072E+04  0.00000000000E+00 0. -1.
          1   -1    0    0  501    0 -0.00000000000E+00 -0.00000000000E+00 -0.65909667955E+03  0.65909667955E+03  0.00000000000E+00 0. -1.
         25    2    1    2    0    0  0.62869295036E+02 -0.86600192656E+02  0.15144770477E+03  0.22363885941E+03  0.12500316208E+03 0.  0.
          2    1    1    2  501    0  0.58763216243E+02  0.36309920323E+01 -0.61829671491E+03  0.62109349325E+03  0.00000000000E+00 0. -1.
          1    1    1    2  502    0 -0.12163251128E+03  0.82969200624E+02  0.16360140378E+04  0.16426260341E+04  0.00000000000E+00 0. -1.
         22    1    3    3    0    0  0.57452331080E+02 -0.55531435984E+02  0.16943638089E+03  0.18733178560E+03  0.00000000000E+00 0.  1.
         22    1    3    3    0    0  0.54169639557E+01 -0.31068756672E+02 -0.17988676119E+02  0.36307073803E+02  0.00000000000E+00 0.  1.
</event>
<event>
 7    1  0.6255318E-006  0.1274519E+03  0.7818608E-02  0.1233713E+00
          2   -1    0    0  502    0  0.00000000000E+00  0.00000000000E+00  0.13135613725E+03  0.13135613725E+03  0.00000000000E+00 0. -1.
          1   -1    0    0  501    0 -0.00000000000E+00 -0.00000000000E+00 -0.97557953038E+03  0.97557953038E+03  0.00000000000E+00 0. -1.
         25    2    1    2    0    0  0.94412985902E+01  0.15179531872E+03 -0.51681658706E+03  0.55304123648E+03  0.12499707069E+03 0.  0.
          2    1    1    2  501    0 -0.10588183634E+03 -0.65133390918E+02 -0.39042199667E+03  0.40973486227E+03  0.00000000000E+00 0. -1.
          1    1    1    2  502    0  0.96440537746E+02 -0.86661927807E+02  0.63015190605E+02  0.14415956888E+03  0.00000000000E+00 0. -1.
         22    1    3    3    0    0  0.41728311251E+02  0.77456822575E+02 -0.12455975015E+03  0.15249899239E+03  0.00000000000E+00 0.  1.
         22    1    3    3    0    0 -0.32287012661E+02  0.74338496150E+02 -0.39225683692E+03  0.40054224409E+03  0.00000000000E+00 0.  1.
</event>
<event>
 7    1  0.6255318E-006  0.1209054E+03  0.7818608E-02  0.1405392E+00
          2   -1    0    0  502    0  0.00000000000E+00  0.00000000000E+00  0.43343076402E+03  0.43343076402E+03  0.00000000000E+00 0. -1.
          1   -1    0    0  501    0 -0.00000000000E+00 -0.00000000000E+00 -0.89501655748E+03  0.89501655748E+03  0.00000000000E+00 0. -1.
         25    2    1    2    0    0  0.15455023190E+02  0.14186306485E+03 -0.53347506621E+03  0.56620468493E+03  0.12501244760E+03 0.  0.
          2    1    1    2  501    0  0.13213238185E+02 -0.24742024882E+02 -0.33586467268E+03  0.33703387933E+03  0.00000000000E+00 0. -1.
          1    1    1    2  502    0 -0.28668261375E+02 -0.11712103997E+03  0.40775394544E+03  0.42520875724E+03  0.00000000000E+00 0. -1.
         22    1    3    3    0    0 -0.53346407138E+02  0.44523768289E+02 -0.16877761194E+03  0.18252147103E+03  0.00000000000E+00 0.  1.
         22    1    3    3    0    0  0.68801430327E+02  0.97339296558E+02 -0.36469745428E+03  0.38368321390E+03  0.00000000000E+00 0.  1.
</event>
<event>
 7    1  0.6255318E-006  0.7425087E+02  0.7818608E-02  0.1418094E+00
          2   -1    0    0  502    0  0.00000000000E+00  0.00000000000E+00  0.76712326946E+03  0.76712326946E+03  0.00000000000E+00 0. -1.
          1   -1    0    0  501    0 -0.00000000000E+00 -0.00000000000E+00 -0.33064200868E+02  0.33064200868E+02  0.00000000000E+00 0. -1.
         25    2    1    2    0    0  0.31328401821E+01  0.21257119650E+02  0.51010206846E+03  0.52563291276E+03  0.12499663557E+03 0.  0.
          2    1    1    2  501    0 -0.69602762210E+02  0.25858212652E+02  0.80049594583E+02  0.10918392401E+03  0.00000000000E+00 0. -1.
          1    1    1    2  502    0  0.66469922028E+02 -0.47115332303E+02  0.14390740555E+03  0.16537063356E+03  0.00000000000E+00 0. -1.
         22    1    3    3    0    0  0.35999959072E+02 -0.33751935338E+02  0.11176436594E+03  0.12217390756E+03  0.00000000000E+00 0. -1.
         22    1    3    3    0    0 -0.32867118890E+02  0.55009054988E+02  0.39833770251E+03  0.40345900520E+03  0.00000000000E+00 0. -1.
</event>
<event>
 7    1  0.6255318E-006  0.2926474E+03  0.7818608E-02  0.1202915E+00
          2   -1    0    0  502    0  0.00000000000E+00  0.00000000000E+00  0.40171318121E+04  0.40171318121E+04  0.00000000000E+00 0. -1.
          1   -1    0    0  501    0 -0.00000000000E+00 -0.00000000000E+00 -0.43441665970E+03  0.43441665970E+03  0.00000000000E+00 0. -1.
         25    2    1    2    0    0  0.27059080511E+03  0.13765634836E+03 -0.56641852210E+02  0.33316964031E+03  0.12500022300E+03 0.  0.
          2    1    1    2  501    0 -0.28218874876E+03 -0.63681889543E+02 -0.15165537718E+03  0.32662704482E+03  0.00000000000E+00 0. -1.
          1    1    1    2  502    0  0.11597943651E+02 -0.73974458821E+02  0.37910123818E+04  0.37917517867E+04  0.00000000000E+00 0. -1.
         22    1    3    3    0    0  0.11700845547E+03  0.12937269102E+03 -0.33698994648E+02  0.17766230347E+03  0.00000000000E+00 0.  1.
         22    1    3    3    0    0  0.15358234963E+03  0.82836573405E+01 -0.22942857562E+02  0.15550733684E+03  0.00000000000E+00 0.  1.
</event>
<event>
 7    1  0.6255318E-006  0.3987484E+02  0.7818608E-02  0.1521410E+00
          2   -1    0    0  502    0  0.00000000000E+00  0.00000000000E+00  0.30922724733E+03  0.30922724733E+03  0.00000000000E+00 0. -1.
          1   -1    0    0  501    0 -0.00000000000E+00 -0.00000000000E+00 -0.36479926147E+02  0.36479926147E+02  0.00000000000E+00 0. -1.
         25    2    1    2    0    0 -0.30424010205E+01  0.29316305376E+02  0.16933998988E+03  0.21253195605E+03  0.12500039282E+03 0.  0.
          2    1    1    2  501    0  0.39942947019E+02 -0.14204957161E+02  0.40085660222E+02  0.58344493999E+02  0.00000000000E+00 0. -1.
          1    1    1    2  502    0 -0.36900545999E+02 -0.15111348214E+02  0.63321671081E+02  0.74830723425E+02  0.00000000000E+00 0. -1.
         22    1    3    3    0    0 -0.19785705223E+02 -0.46433296973E+02  0.58897425621E+02  0.77565662143E+02  0.00000000000E+00 0.  1.
         22    1    3    3    0    0  0.16743304203E+02  0.75749602348E+02  0.11044256425E+03  0.13496629391E+03  0.00000000000E+00 0.  1.
</event>
<event>
 7    1  0.6255318E-006  0.7316298E+02  0.7818608E-02  0.1381323E+00
          2   -1    0    0  502    0  0.00000000000E+00  0.00000000000E+00  0.25922066787E+04  0.25922066787E+04  0.00000000000E+00 0. -1.
          1   -1    0    0  501    0 -0.00000000000E+00 -0.00000000000E+00 -0.80229278693E+03  0.80229278693E+03  0.00000000000E+00 0. -1.
         25    2    1    2    0    0  0.11024761879E+02  0.16429717383E+02  0.31722624003E+03  0.34154050985E+03  0.12500380600E+03 0.  0.
          2    1    1    2  501    0  0.33180522899E+02  0.45347274048E+02 -0.78849804842E+03  0.79049762474E+03  0.00000000000E+00 0. -1.
          1    1    1    2  502    0 -0.44205284779E+02 -0.61776991431E+02  0.22611857002E+04  0.22624613311E+04  0.00000000000E+00 0. -1.
         22    1    3    3    0    0  0.39326597014E+02  0.32969166827E+02  0.30029024647E+03  0.30464369240E+03  0.00000000000E+00 0.  1.
         22    1    3    3    0    0 -0.28301835135E+02 -0.16539449444E+02  0.16935993563E+02  0.36896817449E+02  0.00000000000E+00 0.  1.
</event>
<event>
 7    1  0.6255318E-006  0.1301386E+03  0.7818608E-02  0.1282651E+00
          2   -1    0    0  502    0  0.00000000000E+00  0.00000000000E+00  0.97215060721E+03  0.97215060721E+03  0.00000000000E+00 0. -1.
          1   -1    0    0  501    0 -0.00000000000E+00 -0.00000000000E+00 -0.23807521123E+04  0.23807521123E+04  0.00000000000E+00 0. -1.
         25    2    1    2    0    0 -0.13739573025E+03  0.29299199491E+02  0.91948720155E+02  0.20932329956E+03  0.12500258725E+03 0.  0.
          2    1    1    2  501    0  0.43091912543E+02  0.61558304063E+02 -0.23162331785E+04  0.23174517201E+04  0.00000000000E+00 0. -1.
          1    1    1    2  502    0  0.94303817707E+02 -0.90857503554E+02  0.81568295334E+03  0.82612769978E+03  0.00000000000E+00 0. -1.
         22    1    3    3    0    0 -0.67614666882E+02 -0.65059975633E+00  0.11195959683E+03  0.13079418098E+03  0.00000000000E+00 0. -1.
         22    1    3    3    0    0 -0.69781063368E+02  0.29949799248E+02 -0.20010876671E+02  0.78529118580E+02  0.00000000000E+00 0. -1.
</event>
<event>
 7    1  0.6255318E-006  0.2756334E+03  0.7818608E-02  0.1140919E+00
          2   -1    0    0  502    0  0.00000000000E+00  0.00000000000E+00  0.86462930001E+03  0.86462930001E+03  0.00000000000E+00 0. -1.
          1   -1    0    0  501    0 -0.00000000000E+00 -0.00000000000E+00 -0.75151355980E+03  0.75151355980E+03  0.00000000000E+00 0. -1.
         25    2    1    2    0    0 -0.14484965108E+03 -0.18159835107E+02  0.92508374168E+02  0.21329427683E+03  0.12500179281E+03 0.  0.
          2    1    1    2  501    0  0.29474679961E+03  0.77579629550E+02 -0.64745301656E+03  0.71560441828E+03  0.00000000000E+00 0. -1.
          1    1    1    2  502    0 -0.14989714853E+03 -0.59419794443E+02  0.66806038261E+03  0.68724416470E+03  0.00000000000E+00 0. -1.
         22    1    3    3    0    0 -0.18881839030E+02  0.10592723061E+02 -0.28823305651E+02  0.36048752761E+02  0.00000000000E+00 0. -1.
         22    1    3    3    0    0 -0.12596781205E+03 -0.28752558168E+02  0.12133167982E+03  0.17724552407E+03  0.00000000000E+00 0. -1.
</event>
<event>
 7    1  0.6255318E-006  0.4297826E+02  0.7818608E-02  0.1584491E+00
          2   -1    0    0  502    0  0.00000000000E+00  0.00000000000E+00  0.30039453271E+03  0.30039453271E+03  0.00000000000E+00 0. -1.
          1   -1    0    0  501    0 -0.00000000000E+00 -0.00000000000E+00 -0.14396825134E+04  0.14396825134E+04  0.00000000000E+00 0. -1.
         25    2    1    2    0    0  0.23098746708E+02 -0.57322139439E+02  0.39905933216E+02  0.14506252807E+03  0.12502509259E+03 0.  0.
          2    1    1    2  501    0  0.11763430091E+01  0.22716591226E+02 -0.13848612974E+04  0.13850481003E+04  0.00000000000E+00 0. -1.
          1    1    1    2  502    0 -0.24275089717E+02  0.34605548214E+02  0.20566738345E+03  0.20996641770E+03  0.00000000000E+00 0. -1.
         22    1    3    3    0    0 -0.60739138829E+01 -0.83881971398E+02 -0.62615981947E+01  0.84334365282E+02  0.00000000000E+00 0. -1.
         22    1    3    3    0    0  0.29172660591E+02  0.26559831959E+02  0.46167531411E+02  0.60728162793E+02  0.00000000000E+00 0. -1.
</event>
<event>
 7    1  0.1365127E-005  0.6378027E+02  0.7818608E-02  0.1433565E+00
          2   -1    0    0  502    0  0.00000000000E+00  0.00000000000E+00  0.12507485017E+04  0.12507485017E+04  0.00000000000E+00 0. -1.
          1   -1    0    0  501    0 -0.00000000000E+00 -0.00000000000E+00 -0.25728390771E+04  0.25728390771E+04  0.00000000000E+00 0. -1.
         25    2    1    2    0    0  0.14914955526E+02  0.93283924638E+02 -0.63209377005E+03  0.65122337446E+03  0.12500001126E+03 0.  0.
          2    1    1    2  501    0 -0.29324180395E+02 -0.31183717582E+02 -0.19301244583E+04  0.19305990667E+04  0.00000000000E+00 0. -1.
          1    1    1    2  502    0  0.14409224869E+02 -0.62100207057E+02  0.12401276529E+04  0.12417651376E+04  0.00000000000E+00 0. -1.
         22    1    3    3    0    0  0.32895187587E+02  0.64888949093E+02 -0.60115849994E+03  0.60554455751E+03  0.00000000000E+00 0. -1.
         22    1    3    3    0    0 -0.17980232060E+02  0.28394975545E+02 -0.30935270105E+02  0.45678816946E+02  0.00000000000E+00 0. -1.
</event>
<event>
 7    1  0.6255318E-006  0.1493834E+03  0.7818608E-02  0.1336965E+00
          2   -1    0    0  502    0  0.00000000000E+00  0.00000000000E+00  0.93453996564E+03  0.93453996564E+03  0.00000000000E+00 0. -1.
          1   -1    0    0  501    0 -0.00000000000E+00 -0.00000000000E+00 -0.10123127045E+03  0.10123127045E+03  0.00000000000E+00 0. -1.
         25    2    1    2    0    0  0.11826853843E+03  0.89078228914E+02  0.40836454157E+03  0.45200524368E+03  0.12499905382E+03 0.  0.
          2    1    1    2  501    0 -0.13979259227E+03 -0.55393072326E+02 -0.64673291180E+01  0.15050643728E+03  0.00000000000E+00 0. -1.
          1    1    1    2  502    0  0.21524053839E+02 -0.33685156588E+02  0.43141148274E+03  0.43325955513E+03  0.00000000000E+00 0. -1.
         22    1    3    3    0    0  0.12294502653E+03  0.20171371575E+02  0.25513994931E+03  0.28393442467E+03  0.00000000000E+00 0.  1.
         22    1    3    3    0    0 -0.46764880993E+01  0.68906857339E+02  0.15322459226E+03  0.16807081901E+03  0.00000000000E+00 0.  1.
</event>
<event>
 7    1  0.6255318E-006  0.5241176E+02  0.7818608E-02  0.1527951E+00
          2   -1    0    0  502    0  0.00000000000E+00  0.00000000000E+00  0.18013923728E+04  0.18013923728E+04  0.00000000000E+00 0. -1.
          1   -1    0    0  501    0 -0.00000000000E+00 -0.00000000000E+00 -0.46594987730E+03  0.46594987730E+03  0.00000000000E+00 0. -1.
         25    2    1    2    0    0 -0.27272711431E+02 -0.79606295737E+01  0.13427865464E+03  0.18563592083E+03  0.12499106207E+03 0.  0.
          2    1    1    2  501    0 -0.25554859113E+02  0.78844609603E+01 -0.43943957576E+03  0.44025260509E+03  0.00000000000E+00 0. -1.
          1    1    1    2  502    0  0.52827570544E+02  0.76168613427E-01  0.16406034166E+04  0.16414537242E+04  0.00000000000E+00 0. -1.
         22    1    3    3    0    0  0.13913288954E+02  0.49455627921E+02  0.85589346291E+02  0.99824721092E+02  0.00000000000E+00 0.  1.
         22    1    3    3    0    0 -0.41186000384E+02 -0.57416257495E+02  0.48689308351E+02  0.85811199736E+02  0.00000000000E+00 0.  1.
</event>
<event>
 7    1  0.6255318E-006  0.1389868E+03  0.7818608E-02  0.1256109E+00
          2   -1    0    0  502    0  0.00000000000E+00  0.00000000000E+00  0.15846066507E+04  0.15846066507E+04  0.00000000000E+00 0. -1.
          1   -1    0    0  501    0 -0.00000000000E+00 -0.00000000000E+00 -0.88893809370E+02  0.88893809370E+02  0.00000000000E+00 0. -1.
         25    2    1    2    0    0  0.33402993888E+02 -0.12978812277E+03  0.73401334255E+02  0.19741615139E+03  0.12499865659E+03 0.  0.
          2    1    1    2  501    0 -0.12264291462E+03  0.11212709066E+03  0.24964165832E+03  0.29989119116E+03  0.00000000000E+00 0. -1.
          1    1    1    2  502    0  0.89239920735E+02  0.17661032105E+02  0.11726698487E+04  0.11761931175E+04  0.00000000000E+00 0. -1.
         22    1    3    3    0    0 -0.36451220011E+02 -0.10073637384E+03  0.35953050078E+02  0.11300057639E+03  0.00000000000E+00 0. -1.
         22    1    3    3    0    0  0.69854213898E+02 -0.29051748924E+02  0.37448284177E+02  0.84415575001E+02  0.00000000000E+00 0. -1.
</event>
<event>
 7    1  0.6255318E-006  0.1058352E+03  0.7818608E-02  0.1449389E+00
          2   -1    0    0  502    0  0.00000000000E+00  0.00000000000E+00  0.17799131077E+03  0.17799131077E+03  0.00000000000E+00 0. -1.
          1   -1    0    0  501    0 -0.00000000000E+00 -0.00000000000E+00 -0.89755205873E+03  0.89755205873E+03  0.00000000000E+00 0. -1.
         25    2    1    2    0    0 -0.34762902210E+02  0.89471357601E+02 -0.25902156368E+03  0.30320142822E+03  0.12500140968E+03 0.  0.
          2    1    1    2  501    0  0.57580309068E+02 -0.91690481473E+02 -0.61081036437E+03  0.62033211880E+03  0.00000000000E+00 0. -1.
          1    1    1    2  502    0 -0.22817406858E+02  0.22191238721E+01  0.15027118009E+03  0.15200982249E+03  0.00000000000E+00 0. -1.
         22    1    3    3    0    0  0.23230791544E+02  0.72228445370E+02 -0.21606676564E+03  0.22900101574E+03  0.00000000000E+00 0. -1.
         22    1    3    3    0    0 -0.57993693755E+02  0.17242912231E+02 -0.42954798039E+02  0.74200412479E+02  0.00000000000E+00 0. -1.
</event>
<event>
 7    1  0.6255318E-006  0.1174891E+03  0.7818608E-02  0.1269882E+00
          2   -1    0    0  502    0  0.00000000000E+00  0.00000000000E+00  0.98724335360E+03  0.98724335360E+03  0.00000000000E+00 0. -1.
          1   -1    0    0  501    0 -0.00000000000E+00 -0.00000000000E+00 -0.10316564062E+04  0.10316564062E+04  0.00000000000E+00 0. -1.
         25    2    1    2    0    0  0.83946532068E+02  0.18833102208E+03 -0.31660907758E+02  0.24319451926E+03  0.12500226797E+03 0.  0.
          2    1    1    2  501    0 -0.53606901392E+02 -0.77282105381E+02 -0.88797589362E+03  0.89294311764E+03  0.00000000000E+00 0. -1.
          1    1    1    2  502    0 -0.30339630676E+02 -0.11104891670E+03  0.87522374881E+03  0.88276212287E+03  0.00000000000E+00 0. -1.
         22    1    3    3    0    0  0.86084349200E+02  0.10732751222E+03  0.30670908939E+02  0.14096245852E+03  0.00000000000E+00 0. -1.
         22    1    3    3    0    0 -0.21378171317E+01  0.81003509852E+02 -0.62331816697E+02  0.10223206074E+03  0.00000000000E+00 0. -1.
</event>
<event>
 7    1  0.6255318E-006  0.2152800E+03  0.7818608E-02  0.1373179E+00
          2   -1    0    0  502    0  0.00000000000E+00  0.00000000000E+00  0.14712460559E+04  0.14712460559E+04  0.00000000000E+00 0. -1.
          1   -1    0    0  501    0 -0.00000000000E+00 -0.00000000000E+00 -0.77493619996E+02  0.77493619996E+02  0.00000000000E+00 0. -1.
         25    2    1    2    0    0  0.12781076587E+03  0.18414431303E+03  0.94021147213E+03  0.97461051624E+03  0.12499330440E+03 0.  0.
          2    1    1    2  501    0 -0.61258422299E+01 -0.19472347450E+02 -0.37174029730E+02  0.42409984020E+02  0.00000000000E+00 0. -1.
          1    1    1    2  502    0 -0.12168492364E+03 -0.16467196558E+03  0.49071499349E+03  0.53171917563E+03  0.00000000000E+00 0. -1.
         22    1    3    3    0    0  0.31829925312E+02  0.15120082757E+03  0.60107040278E+03  0.62061297400E+03  0.00000000000E+00 0.  1.
         22    1    3    3    0    0  0.95980840561E+02  0.32943485457E+02  0.33914106935E+03  0.35399754224E+03  0.00000000000E+00 0.  1.
</event>
<event>
 7    1  0.6255318E-006  0.5909624E+02  0.7818608E-02  0.1434971E+00
          2   -1    0    0  502    0  0.00000000000E+00  0.00000000000E+00  0.85507175612E+03  0.85507175612E+03  0.00000000000E+00 0. -1.
          1   -1    0    0  501    0 -0.00000000000E+00 -0.00000000000E+00 -0.29695882482E+03  0.29695882482E+03  0.00000000000E+00 0. -1.
         25    2    1    2    0    0 -0.22200552710E+00 -0.19512215777E+02  0.46027543316E+02  0.13462458923E+03  0.12499787770E+03 0.  0.
          2    1    1    2  501    0  0.33686433510E+02  0.50652580712E+02 -0.24830243565E+03  0.25564537799E+03  0.00000000000E+00 0. -1.
          1    1    1    2  502    0 -0.33464427983E+02 -0.31140364935E+02  0.76038782364E+03  0.76176061371E+03  0.00000000000E+00 0. -1.
         22    1    3    3    0    0 -0.16101295298E+02 -0.69677923563E+02  0.13540116239E+02  0.72784610256E+02  0.00000000000E+00 0.  1.
         22    1    3    3    0    0  0.15879289770E+02  0.50165707786E+02  0.32487427077E+02  0.61839978973E+02  0.00000000000E+00 0.  1.
</event>
<event>
 7    1  0.6255318E-006  0.1694164E+03  0.7818608E-02  0.1308234E+00
          2   -1    0    0  502    0  0.00000000000E+00  0.00000000000E+00  0.47538622259E+03  0.47538622259E+03  0.00000000000E+00 0. -1.
          1   -1    0    0  501    0 -0.00000000000E+00 -0.00000000000E+00 -0.11192177035E+04  0.11192177035E+04  0.00000000000E+00 0. -1.
         25    2    1    2    0    0 -0.14699606745E+03  0.68809961967E+02 -0.46699723707E+03  0.50995645894E+03  0.12500606334E+03 0.  0.
          2    1    1    2  501    0  0.13459834814E+03 -0.11260578827E+03 -0.61733885289E+03  0.64179750557E+03  0.00000000000E+00 0. -1.
          1    1    1    2  502    0  0.12397719317E+02  0.43795826305E+02  0.44050460907E+03  0.44284996156E+03  0.00000000000E+00 0. -1.
         22    1    3    3    0    0 -0.78550181370E+02  0.77524839850E+02 -0.15411448617E+03  0.18955607781E+03  0.00000000000E+00 0.  1.
         22    1    3    3    0    0 -0.68445886083E+02 -0.87148778823E+01 -0.31288275090E+03  0.32040038113E+03  0.00000000000E+00 0.  1.
</event>
<event>
 7    1  0.6255318E-006  0.5112106E+02  0.7818608E-02  0.1562622E+00
          2   -1    0    0  502    0  0.00000000000E+00  0.00000000000E+00  0.19414086231E+02  0.19414086231E+02  0.00000000000E+00 0. -1.
          1   -1    0    0  501    0 -0.00000000000E+00 -0.00000000000E+00 -0.10148064002E+04  0.10148064002E+04  0.00000000000E+00 0. -1.
         25    2    1    2    0    0  0.42042354349E+02 -0.40720928270E+02 -0.37224754517E+03  0.39701295324E+03  0.12500118639E+03 0.  0.
          2    1    1    2  501    0 -0.20353038977E+02  0.43848362444E+02 -0.78968514695E+02  0.92590233814E+02  0.00000000000E+00 0. -1.
          1    1    1    2  502    0 -0.21689315372E+02 -0.31274341741E+01 -0.54417625412E+03  0.54461729939E+03  0.00000000000E+00 0. -1.
         22    1    3    3    0    0  0.66422934283E+02  0.21226171759E+02 -0.22157577121E+03  0.23228942928E+03  0.00000000000E+00 0.  1.
         22    1    3    3    0    0 -0.24380579934E+02 -0.61947100029E+02 -0.15067177396E+03  0.16472352397E+03  0.00000000000E+00 0.  1.
</event>
<event>
 7    1  0.6255318E-006  0.1018786E+03  0.7818608E-02  0.1409578E+00
          2   -1    0    0  502    0  0.00000000000E+00  0.00000000000E+00  0.40942225876E+03  0.40942225876E+03  0.00000000000E+00 0. -1.
          1   -1    0    0  501    0 -0.00000000000E+00 -0.00000000000E+00 -0.99202682255E+03  0.99202682255E+03  0.00000000000E+00 0. -1.
         25    2    1    2    0    0  0.98340534685E+02 -0.47700879237E+02 -0.46605178759E+03  0.49474707588E+03  0.12499666290E+03 0.  0.
          2    1    1    2  501    0 -0.73661032944E+02  0.68405218424E+02 -0.50601818032E+03  0.51590660056E+03  0.00000000000E+00 0. -1.
          1    1    1    2  502    0 -0.24679501741E+02 -0.20704339188E+02  0.38946540412E+03  0.39079540487E+03  0.00000000000E+00 0. -1.
         22    1    3    3    0    0 -0.14496657709E+02 -0.46997410559E+02 -0.95873897245E+02  0.10775302250E+03  0.00000000000E+00 0. -1.
         22    1    3    3    0    0  0.11283719239E+03 -0.70346867728E+00 -0.37017789034E+03  0.38699405338E+03  0.00000000000E+00 0. -1.
</event>
<event>
 7    1  0.6255318E-006  0.9145429E+02  0.7818608E-02  0.1373966E+00
          2   -1    0    0  502    0  0.00000000000E+00  0.00000000000E+00  0.85388807069E+03  0.85388807069E+03  0.00000000000E+00 0. -1.
          1   -1    0    0  501    0 -0.00000000000E+00 -0.00000000000E+00 -0.64398948087E+02  0.64398948087E+02  0.00000000000E+00 0. -1.
         25    2    1    2    0    0 -0.35065188067E+02  0.66089501533E+02  0.37249185489E+03  0.39996581465E+03  0.12500032520E+03 0.  0.
          2    1    1    2  501    0  0.80070202351E+02 -0.50158599336E+02 -0.40555294785E+01  0.94570448403E+02  0.00000000000E+00 0. -1.
          1    1    1    2  502    0 -0.45005014284E+02 -0.15930902198E+02  0.42105279718E+03  0.42375075572E+03  0.00000000000E+00 0. -1.
         22    1    3    3    0    0 -0.71062176181E+02  0.37043040047E+01  0.22200930632E+03  0.23313448232E+03  0.00000000000E+00 0. -1.
         22    1    3    3    0    0  0.35996988114E+02  0.62385197529E+02  0.15048254857E+03  0.16683133234E+03  0.00000000000E+00 0. -1.
</event>
<event>
 7    1  0.6255318E-006  0.4585836E+02  0.7818608E-02  0.1579852E+00
          2   -1    0    0  502    0  0.00000000000E+00  0.00000000000E+00  0.70200863449E+03  0.70200863449E+03  0.00000000000E+00 0. -1.
          1   -1    0    0  501    0 -0.00000000000E+00 -0.00000000000E+00 -0.11452896226E+04  0.11452896226E+04  0.00000000000E+00 0. -1.
         25    2    1    2    0    0  0.63473332149E+02  0.16981775265E+02  0.18834662003E+03  0.23540723406E+03  0.12499948794E+03 0.  0.
          2    1    1    2  501    0 -0.18828248691E+02 -0.11255610750E+02 -0.11206183682E+04  0.11208330468E+04  0.00000000000E+00 0. -1.
          1    1    1    2  502    0 -0.44645083458E+02 -0.57261645150E+01  0.48899076012E+03  0.49105797613E+03  0.00000000000E+00 0. -1.
         22    1    3    3    0    0  0.38891284796E+02 -0.77880994093E+01  0.19575446547E+03  0.19973231406E+03  0.00000000000E+00 0. -1.
         22    1    3    3    0    0  0.24582047352E+02  0.24769874674E+02 -0.74078454387E+01  0.35674920006E+02  0.00000000000E+00 0. -1.
</event>
<event>
 7    1  0.6255318E-006  0.5919183E+02  0.7818608E-02  0.1451617E+00
          2   -1    0    0  502    0  0.00000000000E+00  0.00000000000E+00  0.58945632784E+03  0.58945632784E+03  0.00000000000E+00 0. -1.
          1   -1    0    0  501    0 -0.00000000000E+00 -0.00000000000E+00 -0.27864277033E+03  0.27864277033E+03  0.00000000000E+00 0. -1.
         25    2    1    2    0    0  0.34346549998E+02 -0.68009268537E+02  0.11830846501E+03  0.18822022011E+03  0.12500004904E+03 0.  0.
          2    1    1    2  501    0 -0.39215438286E+02  0.93874661479E+01 -0.24001417868E+03  0.24337785661E+03  0.00000000000E+00 0. -1.
          1    1    1    2  502    0  0.48688882875E+01  0.58621802389E+02  0.43251927118E+03  0.43650102145E+03  0.00000000000E+00 0. -1.
         22    1    3    3    0    0  0.12279026556E+02 -0.53187266373E+02 -0.11443690185E+02  0.55772913160E+02  0.00000000000E+00 0. -1.
         22    1    3    3    0    0  0.22067523443E+02 -0.14822002164E+02  0.12975215520E+03  0.13244730695E+03  0.00000000000E+00 0. -1.
</event>
<event>
 7    1  0.6255318E-006  0.7279986E+02  0.7818608E-02  0.1379397E+00
          2   -1    0    0  502    0  0.00000000000E+00  0.00000000000E+00  0.73550859726E+03  0.73550859726E+03  0.00000000000E+00 0. -1.
          1   -1    0    0  501    0 -0.00000000000E+00 -0.00000000000E+00 -0.73808854056E+03  0.73808854056E+03  0.00000000000E+00 0. -1.
         25    2    1    2    0    0  0.74545596920E+02  0.67017702946E+02  0.10943650535E+03  0.19403559806E+03  0.12500018433E+03 0.  0.
          2    1    1    2  501    0 -0.29967573281E+01 -0.57285337021E+02 -0.69236543941E+03  0.69473771460E+03  0.00000000000E+00 0. -1.
          1    1    1    2  502    0 -0.71548839592E+02 -0.97323659251E+01  0.58034899076E+03  0.58482382515E+03  0.00000000000E+00 0. -1.
         22    1    3    3    0    0 -0.16902770748E+01 -0.29278006201E+02  0.49109088169E+02  0.57199311399E+02  0.00000000000E+00 0. -1.
         22    1    3    3    0    0  0.76235873995E+02  0.96295709147E+02  0.60327417185E+02  0.13683628666E+03  0.00000000000E+00 0. -1.
</event>
<event>
 7    1  0.6255318E-006  0.6361374E+02  0.7818608E-02  0.1460745E+00
          2   -1    0    0  502    0  0.00000000000E+00  0.00000000000E+00  0.30202834069E+03  0.30202834069E+03  0.00000000000E+00 0. -1.
          1   -1    0    0  501    0 -0.00000000000E+00 -0.00000000000E+00 -0.11277415596E+03  0.11277415596E+03  0.00000000000E+00 0. -1.
         25    2    1    2    0    0  0.17616970454E+02  0.57589913977E+02  0.13484009391E+03  0.19347890778E+03  0.12500112396E+03 0.  0.
          2    1    1    2  501    0 -0.49057079010E+02 -0.41983130473E+02 -0.68121307008E+02  0.93859963317E+02  0.00000000000E+00 0. -1.
          1    1    1    2  502    0  0.31440108556E+02 -0.15606783504E+02  0.12253539783E+03  0.12746362555E+03  0.00000000000E+00 0. -1.
         22    1    3    3    0    0 -0.15017606387E+02  0.13360362317E+01 -0.20284054099E+02  0.25273629441E+02  0.00000000000E+00 0. -1.
         22    1    3    3    0    0  0.32634576841E+02  0.56253877745E+02  0.15512414801E+03  0.16820527834E+03  0.00000000000E+00 0. -1.
</event>
<event>
 7    1  0.6255318E-006  0.4348146E+02  0.7818608E-02  0.1553371E+00
          2   -1    0    0  502    0  0.00000000000E+00  0.00000000000E+00  0.10389418896E+04  0.10389418896E+04  0.00000000000E+00 0. -1.
          1   -1    0    0  501    0 -0.00000000000E+00 -0.00000000000E+00 -0.24717000495E+03  0.24717000495E+03  0.00000000000E+00 0. -1.
         25    2    1    2    0    0  0.22841168303E+02 -0.95798471852E+01  0.74430116794E+03  0.75513346860E+03  0.12501533651E+03 0.  0.
          2    1    1    2  501    0  0.21081006949E+02 -0.17383520128E+02 -0.23867221552E+03  0.24023118466E+03  0.00000000000E+00 0. -1.
          1    1    1    2  502    0 -0.43922175252E+02  0.26963367313E+02  0.28614293221E+03  0.29074724128E+03  0.00000000000E+00 0. -1.
         22    1    3    3    0    0  0.18598600760E+02 -0.50278999445E+02  0.65161411875E+03  0.65381560511E+03  0.00000000000E+00 0. -1.
         22    1    3    3    0    0  0.42425675425E+01  0.40699152260E+02  0.92687049192E+02  0.10131786349E+03  0.00000000000E+00 0. -1.
</event>
<event>
 7    1  0.6255318E-006  0.1889370E+03  0.7818608E-02  0.1263247E+00
          2   -1    0    0  502    0  0.00000000000E+00  0.00000000000E+00  0.15425475078E+04  0.15425475078E+04  0.00000000000E+00 0. -1.
          1   -1    0    0  501    0 -0.00000000000E+00 -0.00000000000E+00 -0.10120015005E+03  0.10120015005E+03  0.00000000000E+00 0. -1.
         25    2    1    2    0    0  0.99934082359E+02 -0.10882787440E+03  0.30320918131E+03  0.35970952911E+03  0.12499924256E+03 0.  0.
          2    1    1    2  501    0 -0.12511585165E+03  0.16590422268E+03  0.77822091938E+02  0.22188840761E+03  0.00000000000E+00 0. -1.
          1    1    1    2  502    0  0.25181769292E+02 -0.57076348280E+02  0.10603160845E+04  0.10621497212E+04  0.00000000000E+00 0. -1.
         22    1    3    3    0    0 -0.89444644622E-02  0.25456145407E+02  0.30546993749E+02  0.39763478798E+02  0.00000000000E+00 0.  1.
         22    1    3    3    0    0  0.99943026823E+02 -0.13428401981E+03  0.27266218756E+03  0.31994605031E+03  0.00000000000E+00 0.  1.
</event>
<event>
 7    1  0.6255318E-006  0.1079000E+03  0.7818608E-02  0.1455422E+00
          2   -1    0    0  502    0  0.00000000000E+00  0.00000000000E+00  0.15330357408E+04  0.15330357408E+04  0.00000000000E+00 0. -1.
          1   -1    0    0  501    0 -0.00000000000E+00 -0.00000000000E+00 -0.77478231951E+02  0.77478231951E+02  0.00000000000E+00 0. -1.
         25    2    1    2    0    0  0.12267476933E+03 -0.10011995278E+02  0.11833522971E+03  0.21160273475E+03  0.12499260652E+03 0.  0.
          2    1    1    2  501    0 -0.15529492488E+02  0.14886407790E+02 -0.24710020557E+02  0.32762102951E+02  0.00000000000E+00 0. -1.
          1    1    1    2  502    0 -0.10714527684E+03 -0.48744125126E+01  0.13619322997E+04  0.13661491350E+04  0.00000000000E+00 0. -1.
         22    1    3    3    0    0  0.44002046644E+02 -0.35582599013E+02  0.11574537777E+03  0.12883824718E+03  0.00000000000E+00 0.  1.
         22    1    3    3    0    0  0.78672722682E+02  0.25570603736E+02  0.25898519413E+01  0.82764487570E+02  0.00000000000E+00 0.  1.
</event>
<event>
 7    1  0.6255318E-006  0.1560072E+03  0.7818608E-02  0.1345567E+00
          2   -1    0    0  502    0  0.00000000000E+00  0.00000000000E+00  0.16950267625E+04  0.16950267625E+04  0.00000000000E+00 0. -1.
          1   -1    0    0  501    0 -0.00000000000E+00 -0.00000000000E+00 -0.25915825335E+03  0.25915825335E+03  0.00000000000E+00 0. -1.
         25    2    1    2    0    0 -0.87246414461E+02 -0.12609840155E+03  0.53107095302E+03  0.56672251751E+03  0.12500124397E+03 0.  0.
          2    1    1    2  501    0  0.57402425318E+02  0.14538582501E+03 -0.21571169038E+03  0.26638995836E+03  0.00000000000E+00 0. -1.
          1    1    1    2  502    0  0.29843989143E+02 -0.19287423460E+02  0.11205092465E+04  0.11210725400E+04  0.00000000000E+00 0. -1.
         22    1    3    3    0    0  0.26298488804E+02 -0.11136430347E+02  0.36014464493E+02  0.45963814539E+02  0.00000000000E+00 0. -1.
         22    1    3    3    0    0 -0.11354490327E+03 -0.11496197121E+03  0.49505648853E+03  0.52075870297E+03  0.00000000000E+00 0. -1.
</event>
<event>
 7    1  0.6255318E-006  0.1477352E+03  0.7818608E-02  0.1249579E+00
          2   -1    0    0  502    0  0.00000000000E+00  0.00000000000E+00  0.64834783297E+03  0.64834783297E+03  0.00000000000E+00 0. -1.
          1   -1    0    0  501    0 -0.00000000000E+00 -0.00000000000E+00 -0.13633326819E+03  0.13633326819E+03  0.00000000000E+00 0. -1.
         25    2    1    2    0    0  0.10748237499E+03  0.27783362456E+02  0.80215466085E+02  0.18542622781E+03  0.12499595513E+03 0.  0.
          2    1    1    2  501    0  0.84764560802E+00  0.91321168854E+02 -0.40770203855E+02  0.10001241876E+03  0.00000000000E+00 0. -1.
          1    1    1    2  502    0 -0.10833002060E+03 -0.11910453131E+03  0.47256930256E+03  0.49924245458E+03  0.00000000000E+00 0. -1.
         22    1    3    3    0    0  0.39443619729E+02 -0.33237221322E+02  0.78606399636E+02  0.94018498617E+02  0.00000000000E+00 0.  1.
         22    1    3    3    0    0  0.68038755262E+02  0.61020583778E+02  0.16090664492E+01  0.91407729197E+02  0.00000000000E+00 0.  1.
</event>
<event>
 7    1  0.6255318E-006  0.1031514E+03  0.7818608E-02  0.1425232E+00
          2   -1    0    0  502    0  0.00000000000E+00  0.00000000000E+00  0.21129824036E+04  0.21129824036E+04  0.00000000000E+00 0. -1.
          1   -1    0    0  501    0 -0.00000000000E+00 -0.00000000000E+00 -0.34025836038E+03  0.34025836038E+03  0.00000000000E+00 0. -1.
         25    2    1    2    0    0 -0.14016543257E+02 -0.94524138460E+02 -0.33696029846E+02  0.16091212288E+03  0.12500405044E+03 0.  0.
          2    1    1    2  501    0  0.27050991308E+02 -0.79502785301E+01 -0.24082960913E+03  0.24247445988E+03  0.00000000000E+00 0. -1.
          1    1    1    2  502    0 -0.13034448052E+02  0.10247441699E+03  0.20472496822E+04  0.20498541812E+04  0.00000000000E+00 0. -1.
         22    1    3    3    0    0  0.40359515601E+02 -0.51370739871E+02  0.25055440047E+02  0.69968696504E+02  0.00000000000E+00 0. -1.
         22    1    3    3    0    0 -0.54376058858E+02 -0.43153398589E+02 -0.58751469893E+02  0.90943426378E+02  0.00000000000E+00 0. -1.
</event>
<event>
 7    1  0.6255318E-006  0.2289109E+03  0.7818608E-02  0.1233202E+00
          2   -1    0    0  502    0  0.00000000000E+00  0.00000000000E+00  0.12033292061E+03  0.12033292061E+03  0.00000000000E+00 0. -1.
          1   -1    0    0  501    0 -0.00000000000E+00 -0.00000000000E+00 -0.18770552754E+04  0.18770552754E+04  0.00000000000E+00 0. -1.
         25    2    1    2    0    0 -0.28088235400E+03 -0.32647798714E+02 -0.64742338862E+03  0.71745802689E+03  0.12501280197E+03 0.  0.
          2    1    1    2  501    0  0.21346135540E+03  0.15459507559E+02 -0.11688899431E+04  0.11883216928E+04  0.00000000000E+00 0. -1.
          1    1    1    2  502    0  0.67420998600E+02  0.17188291155E+02  0.59590976893E+02  0.91608476312E+02  0.00000000000E+00 0. -1.
         22    1    3    3    0    0 -0.12457779166E+02 -0.38710937632E+02 -0.87613717901E+02  0.96591389464E+02  0.00000000000E+00 0.  1.
         22    1    3    3    0    0 -0.26842457483E+03  0.60631389176E+01 -0.55980967072E+03  0.62086663742E+03  0.00000000000E+00 0.  1.
</event>
<event>
 7    1  0.6255318E-006  0.8973659E+02  0.7818608E-02  0.1320968E+00
          2   -1    0    0  502    0  0.00000000000E+00  0.00000000000E+00  0.25802721379E+04  0.25802721379E+04  0.00000000000E+00 0. -1.
          1   -1    0    0  501    0 -0.00000000000E+00 -0.00000000000E+00 -0.13093846392E+03  0.13093846392E+03  0.00000000000E+00 0. -1.
         25    2    1    2    0    0  0.95802287280E+02 -0.11651447199E+03  0.38556981938E+03  0.43248465664E+03  0.12500076875E+03 0.  0.
          2    1    1    2  501    0 -0.76558822639E+02  0.42352599305E+02 -0.88880426400E+02  0.12471858798E+03  0.00000000000E+00 0. -1.
          1    1    1    2  502    0 -0.19243464641E+02  0.74161872680E+02  0.21526442810E+04  0.21540073572E+04  0.00000000000E+00 0. -1.
         22    1    3    3    0    0 -0.14668679021E+02 -0.29113509835E+02  0.18220416587E+03  0.18509760846E+03  0.00000000000E+00 0. -1.
         22    1    3    3    0    0  0.11047096630E+03 -0.87400962150E+02  0.20336565351E+03  0.24738704818E+03  0.00000000000E+00 0. -1.
</event>
<event>
 7    1  0.6255318E-006  0.5066100E+02  0.7818608E-02  0.1504063E+00
          2   -1    0    0  502    0  0.00000000000E+00  0.00000000000E+00  0.21145090225E+03  0.21145090225E+03  0.00000000000E+00 0. -1.
          1   -1    0    0  501    0 -0.00000000000E+00 -0.00000000000E+00 -0.33744572494E+03  0.33744572494E+03  0.00000000000E+00 0. -1.
         25    2    1    2    0    0 -0.14811937451E+02 -0.43379818403E+02  0.19215353888E+02  0.13452046877E+03  0.12500129822E+03 0.  0.
          2    1    1    2  501    0  0.43119252446E+02  0.27437512137E+02 -0.27544698965E+03  0.28014840908E+03  0.00000000000E+00 0. -1.
          1    1    1    2  502    0 -0.28307314995E+02  0.15942306266E+02  0.13023681307E+03  0.13422774933E+03  0.00000000000E+00 0. -1.
         22    1    3    3    0    0 -0.59749231925E+02  0.94956583870E+00 -0.16501851841E+02  0.61993415014E+02  0.00000000000E+00 0. -1.
         22    1    3    3    0    0  0.44937294474E+02 -0.44329384242E+02  0.35717205728E+02  0.72527053759E+02  0.00000000000E+00 0. -1.
</event>
<event>
 7    1  0.6255318E-006  0.1075096E+03  0.7818608E-02  0.1309666E+00
          2   -1    0    0  502    0  0.00000000000E+00  0.00000000000E+00  0.15856173478E+04  0.15856173478E+04  0.00000000000E+00 0. -1.
          1   -1    0    0  501    0 -0.00000000000E+00 -0.00000000000E+00 -0.83952804179E+03  0.83952804179E+03  0.00000000000E+00 0. -1.
         25    2    1    2    0    0  0.88745129730E+01  0.60326584257E+02  0.40548219459E+02  0.14486787934E+03  0.12499796244E+03 0.  0.
          2    1    1    2  501    0 -0.60705021302E+02  0.36432874618E+02 -0.78375276807E+03  0.78694399764E+03  0.00000000000E+00 0. -1.
          1    1    1    2  502    0  0.51830508329E+02 -0.96759458875E+02  0.14892938547E+04  0.14933335126E+04  0.00000000000E+00 0. -1.
         22    1    3    3    0    0 -0.52034502624E+02  0.46198760547E+02 -0.13586041177E+01  0.69597131727E+02  0.00000000000E+00 0. -1.
         22    1    3    3    0    0  0.60909015597E+02  0.14127823710E+02  0.41906823577E+02  0.75270747612E+02  0.00000000000E+00 0. -1.
</event>
<event>
 7    1  0.6255318E-006  0.5773802E+02  0.7818608E-02  0.1424213E+00
          2   -1    0    0  502    0  0.00000000000E+00  0.00000000000E+00  0.53859383384E+03  0.53859383384E+03  0.00000000000E+00 0. -1.
          1   -1    0    0  501    0 -0.00000000000E+00 -0.00000000000E+00 -0.71017362543E+03  0.71017362543E+03  0.00000000000E+00 0. -1.
         25    2    1    2    0    0  0.58851468905E+01 -0.56569689054E+01 -0.30747099870E+03  0.33200657457E+03  0.12499325686E+03 0.  0.
          2    1    1    2  501    0  0.49243411211E+02 -0.12335954269E+02 -0.38717550561E+03  0.39048938713E+03  0.00000000000E+00 0. -1.
          1    1    1    2  502    0 -0.55128558101E+02  0.17992923174E+02  0.52306671272E+03  0.52627149757E+03  0.00000000000E+00 0. -1.
         22    1    3    3    0    0  0.46232789972E+02  0.40579210946E+02 -0.18611374542E+03  0.19601650304E+03  0.00000000000E+00 0. -1.
         22    1    3    3    0    0 -0.40347643082E+02 -0.46236179851E+02 -0.12135725329E+03  0.13599007153E+03  0.00000000000E+00 0. -1.
</event>
<event>
 7    1  0.6255318E-006  0.8588665E+02  0.7818608E-02  0.1378258E+00
          2   -1    0    0  502    0  0.00000000000E+00  0.00000000000E+00  0.13566830957E+04  0.13566830957E+04  0.00000000000E+00 0. -1.
          1   -1    0    0  501    0 -0.00000000000E+00 -0.00000000000E+00 -0.53011701654E+02  0.53011701654E+02  0.00000000000E+00 0. -1.
         25    2    1    2    0    0  0.31638185192E+02 -0.77945775307E+02  0.39999736788E+03  0.42743357931E+03  0.12500020704E+03 0.  0.
          2    1    1    2  501    0 -0.48347725673E+02 -0.84321269186E+01 -0.21021235374E+02  0.53390033515E+02  0.00000000000E+00 0. -1.
          1    1    1    2  502    0  0.16709540481E+02  0.86377902226E+02  0.92469526152E+03  0.92887118451E+03  0.00000000000E+00 0. -1.
         22    1    3    3    0    0  0.47700700777E+02  0.18131487765E+02  0.10449593974E+03  0.11629062355E+03  0.00000000000E+00 0.  1.
         22    1    3    3    0    0 -0.16062515585E+02 -0.96077263072E+02  0.29550142814E+03  0.31114295576E+03  0.00000000000E+00 0.  1.
</event>
<event>
 7    1  0.6255318E-006  0.5371109E+02  0.7818608E-02  0.1451481E+00
          2   -1    0    0  502    0  0.00000000000E+00  0.00000000000E+00  0.19855353767E+04  0.19855353767E+04  0.00000000000E+00 0. -1.
          1   -1    0    0  501    0 -0.00000000000E+00 -0.00000000000E+00 -0.19489790936E+03  0.19489790936E+03  0.00000000000E+00 0. -1.
         25    2    1    2    0    0 -0.64082311047E+02 -0.21356632094E+02 -0.64458019379E+02  0.15601945296E+03  0.12499834046E+03 0.  0.
          2    1    1    2  501    0  0.49549331007E+02 -0.20684575920E+02 -0.75863680500E+02  0.92942379479E+02  0.00000000000E+00 0. -1.
          1    1    1    2  502    0  0.14532980040E+02  0.42041208014E+02  0.19309591673E+04  0.19314714537E+04  0.00000000000E+00 0. -1.
         22    1    3    3    0    0 -0.32428590810E+02  0.31748703888E+01 -0.98317980121E+02  0.10357663114E+03  0.00000000000E+00 0. -1.
         22    1    3    3    0    0 -0.31653720237E+02 -0.24531502483E+02  0.33859960742E+02  0.52442821819E+02  0.00000000000E+00 0. -1.
</event>
<event>
 7    1  0.6255318E-006  0.7760510E+02  0.7818608E-02  0.1359398E+00
          2   -1    0    0  502    0  0.00000000000E+00  0.00000000000E+00  0.14343413965E+04  0.14343413965E+04  0.00000000000E+00 0. -1.
          1   -1    0    0  501    0 -0.00000000000E+00 -0.00000000000E+00 -0.33560884701E+02  0.33560884701E+02  0.00000000000E+00 0. -1.
         25    2    1    2    0    0 -0.25975650553E+02  0.23835102158E+02  0.34622796771E+03  0.36978362450E+03  0.12499310703E+03 0.  0.
          2    1    1    2  501    0  0.89091011112E+02 -0.16764330390E+02  0.78257706950E+02  0.11976025940E+03  0.00000000000E+00 0. -1.
          1    1    1    2  502    0 -0.63115360558E+02 -0.70707717677E+01  0.97629483718E+03  0.97835839734E+03  0.00000000000E+00 0. -1.
         22    1    3    3    0    0 -0.44720922331E+02  0.52734525004E+02  0.31746472590E+03  0.32490728403E+03  0.00000000000E+00 0.  1.
         22    1    3    3    0    0  0.18745271778E+02 -0.28899422846E+02  0.28763241811E+02  0.44876340474E+02  0.00000000000E+00 0.  1.
</event>
<event>
 7    1  0.6255318E-006  0.1114619E+03  0.7818608E-02  0.1276164E+00
          2   -1    0    0  502    0  0.00000000000E+00  0.00000000000E+00  0.18888542584E+04  0.18888542584E+04  0.00000000000E+00 0. -1.
          1   -1    0    0  501    0 -0.00000000000E+00 -0.00000000000E+00 -0.33602075244E+03  0.33602075244E+03  0.00000000000E+00 0. -1.
         25    2    1    2    0    0  0.57164696702E+01 -0.27744976512E+02  0.34700774120E+03  0.36993634378E+03  0.12504424916E+03 0.  0.
          2    1    1    2  501    0 -0.86985051819E+02  0.73624522519E+02 -0.31307631215E+03  0.33317224792E+03  0.00000000000E+00 0. -1.
          1    1    1    2  502    0  0.81268582149E+02 -0.45879546007E+02  0.15189020769E+04  0.15217664192E+04  0.00000000000E+00 0. -1.
         22    1    3    3    0    0  0.60552194155E+02 -0.28218330658E+02  0.13066966782E+03  0.14675627582E+03  0.00000000000E+00 0.  1.
         22    1    3    3    0    0 -0.54835724484E+02  0.47335414562E+00  0.21633807338E+03  0.22318006796E+03  0.00000000000E+00 0.  1.
</event>
<event>
 7    1  0.6255318E-006  0.1145830E+03  0.7818608E-02  0.1264350E+00
          2   -1    0    0  502    0  0.00000000000E+00  0.00000000000E+00  0.20770653038E+04  0.20770653038E+04  0.00000000000E+00 0. -1.
          1   -1    0    0  501    0 -0.00000000000E+00 -0.00000000000E+00 -0.21076788577E+04  0.21076788577E+04  0.00000000000E+00 0. -1.
         25    2    1    2    0    0 -0.47891714961E+02  0.79262885634E+02  0.26563755166E+03  0.30783771373E+03  0.12499811096E+03 0.  0.
          2    1    1    2  501    0 -0.51072304219E+02 -0.10297054133E+03 -0.20835474115E+04  0.20867153923E+04  0.00000000000E+00 0. -1.
          1    1    1    2  502    0  0.98964019180E+02  0.23707655696E+02  0.17872963059E+04  0.17901910554E+04  0.00000000000E+00 0. -1.
         22    1    3    3    0    0 -0.88843004844E+01  0.10461806910E+03  0.14911692919E+03  0.18237250272E+03  0.00000000000E+00 0. -1.
         22    1    3    3    0    0 -0.39007414476E+02 -0.25355183470E+02  0.11652062247E+03  0.12546521101E+03  0.00000000000E+00 0. -1.
</event>
<event>
 7    1  0.6255318E-006  0.7799927E+02  0.7818608E-02  0.1380423E+00
          2   -1    0    0  502    0  0.00000000000E+00  0.00000000000E+00  0.21013947183E+03  0.21013947183E+03  0.00000000000E+00 0. -1.
          1   -1    0    0  501    0 -0.00000000000E+00 -0.00000000000E+00 -0.53801195283E+03  0.53801195283E+03  0.00000000000E+00 0. -1.
         25    2    1    2    0    0 -0.14753685543E+02 -0.41623079676E+02 -0.65004765606E+02  0.14765507415E+03  0.12500499739E+03 0.  0.
          2    1    1    2  501    0  0.38145115970E+02 -0.36931067262E+02 -0.41996242694E+03  0.42330531965E+03  0.00000000000E+00 0. -1.
          1    1    1    2  502    0 -0.23391430427E+02  0.78554146938E+02  0.15709471155E+03  0.17719103085E+03  0.00000000000E+00 0. -1.
         22    1    3    3    0    0  0.45392548615E+02  0.12431176546E+02 -0.43237172900E+02  0.63909864187E+02  0.00000000000E+00 0.  1.
         22    1    3    3    0    0 -0.60146234157E+02 -0.54054256223E+02 -0.21767592706E+02  0.83745209960E+02  0.00000000000E+00 0.  1.
</event>
<event>
 7    1  0.6255318E-006  0.2295229E+03  0.7818608E-02  0.1246833E+00
          2   -1    0    0  502    0  0.00000000000E+00  0.00000000000E+00  0.46506418537E+03  0.46506418537E+03  0.00000000000E+00 0. -1.
          1   -1    0    0  501    0 -0.00000000000E+00 -0.00000000000E+00 -0.72138307703E+03  0.72138307703E+03  0.00000000000E+00 0. -1.
         25    2    1    2    0    0  0.12781829013E+03 -0.14575635993E+03 -0.12528707862E+03  0.26249676197E+03  0.12500106490E+03 0.  0.
          2    1    1    2  501    0 -0.10127888971E+02 -0.59566838892E+02 -0.49015205357E+03  0.49386214479E+03  0.00000000000E+00 0. -1.
          1    1    1    2  502    0 -0.11769040116E+03  0.20532319882E+03  0.35912024053E+03  0.43008835564E+03  0.00000000000E+00 0. -1.
         22    1    3    3    0    0 -0.12855812159E+02 -0.65571820997E+02 -0.21613392016E+02  0.70228728663E+02  0.00000000000E+00 0. -1.
         22    1    3    3    0    0  0.14067410229E+03 -0.80184538931E+02 -0.10367368660E+03  0.19226803331E+03  0.00000000000E+00 0. -1.
</event>
<event>
 7    1  0.6255318E-006  0.2033638E+03  0.7818608E-02  0.1216115E+00
          2   -1    0    0  502    0  0.00000000000E+00  0.00000000000E+00  0.34698924681E+03  0.34698924681E+03  0.00000000000E+00 0. -1.
          1   -1    0    0  501    0 -0.00000000000E+00 -0.00000000000E+00 -0.20811689254E+04  0.20811689254E+04  0.00000000000E+00 0. -1.
         25    2    1    2    0    0 -0.12631940286E+03  0.18857682184E+03 -0.23656740561E+03  0.35086568957E+03  0.12499914178E+03 0.  0.
          2    1    1    2  501    0  0.92890207139E+02  0.11309648344E+02 -0.17506228642E+04  0.17531220469E+04  0.00000000000E+00 0. -1.
          1    1    1    2  502    0  0.33429195724E+02 -0.19988647018E+03  0.25301059125E+03  0.32417043569E+03  0.00000000000E+00 0. -1.
         22    1    3    3    0    0 -0.11458648585E+03  0.17215753839E+03 -0.13420851670E+03  0.24653642067E+03  0.00000000000E+00 0. -1.
         22    1    3    3    0    0 -0.11732917013E+02  0.16419283455E+02 -0.10235888890E+03  0.10432926890E+03  0.00000000000E+00 0. -1.
</event>
<event>
 7    1  0.6255318E-006  0.3875148E+02  0.7818608E-02  0.1543430E+00
          2   -1    0    0  502    0  0.00000000000E+00  0.00000000000E+00  0.10696369753E+04  0.10696369753E+04  0.00000000000E+00 0. -1.
          1   -1    0    0  501    0 -0.00000000000E+00 -0.00000000000E+00 -0.37971509239E+03  0.37971509239E+03  0.00000000000E+00 0. -1.
         25    2    1    2    0    0 -0.14239616093E+02 -0.16337787983E+01  0.21084513147E+03  0.24552980639E+03  0.12499512175E+03 0.  0.
          2    1    1    2  501    0 -0.65301768473E+01 -0.32025843035E+02 -0.36116960413E+03  0.36264553048E+03  0.00000000000E+00 0. -1.
          1    1    1    2  502    0  0.20769792941E+02  0.33659621833E+02  0.84024635561E+03  0.84117673087E+03  0.00000000000E+00 0. -1.
         22    1    3    3    0    0 -0.59202757365E+02 -0.22185449291E+02  0.17008717623E+03  0.18145745550E+03  0.00000000000E+00 0. -1.
         22    1    3    3    0    0  0.44963141272E+02  0.20551670493E+02  0.40757955242E+02  0.64072350890E+02  0.00000000000E+00 0. -1.
</event>
<event>
 7    1  0.6255318E-006  0.6936200E+02  0.7818608E-02  0.1469991E+00
          2   -1    0    0  502    0  0.00000000000E+00  0.00000000000E+00  0.99448037415E+03  0.99448037415E+03  0.00000000000E+00 0. -1.
          1   -1    0    0  501    0 -0.00000000000E+00 -0.00000000000E+00 -0.22137732875E+04  0.22137732875E+04  0.00000000000E+00 0. -1.
         25    2    1    2    0    0  0.44119735747E+02 -0.42308487515E+01 -0.94059648095E+02  0.16257458771E+03  0.12497530959E+03 0.  0.
          2    1    1    2  501    0  0.20262852942E+02 -0.22279682130E+02 -0.20840850477E+04  0.20843026301E+04  0.00000000000E+00 0. -1.
          1    1    1    2  502    0 -0.64382588689E+02  0.26510530881E+02  0.95885178251E+03  0.96137644385E+03  0.00000000000E+00 0. -1.
         22    1    3    3    0    0 -0.26154840822E+02 -0.25749922669E+02  0.72512405027E+01  0.37412761255E+02  0.00000000000E+00 0.  1.
         22    1    3    3    0    0  0.70274576569E+02  0.21519073918E+02 -0.10131088860E+03  0.12516182646E+03  0.00000000000E+00 0.  1.
</event>
<event>
 7    1  0.6255318E-006  0.6774877E+02  0.7818608E-02  0.1390720E+00
          2   -1    0    0  502    0  0.00000000000E+00  0.00000000000E+00  0.10430695904E+04  0.10430695904E+04  0.00000000000E+00 0. -1.
          1   -1    0    0  501    0 -0.00000000000E+00 -0.00000000000E+00 -0.14545178107E+03  0.14545178107E+03  0.00000000000E+00 0. -1.
         25    2    1    2    0    0 -0.40985282600E+02  0.36455027394E+01  0.54006392264E+03  0.55586556087E+03  0.12499759255E+03 0.  0.
          2    1    1    2  501    0  0.13628376998E+02 -0.66363864588E+02 -0.12665491862E+03  0.14363621964E+03  0.00000000000E+00 0. -1.
          1    1    1    2  502    0  0.27356905602E+02  0.62718361848E+02  0.48420880533E+03  0.48901959097E+03  0.00000000000E+00 0. -1.
         22    1    3    3    0    0 -0.52185057956E+02  0.34113557641E+02  0.12649682770E+03  0.14102646031E+03  0.00000000000E+00 0. -1.
         22    1    3    3    0    0  0.11199775357E+02 -0.30468054902E+02  0.41356709495E+03  0.41483910057E+03  0.00000000000E+00 0. -1.
</event>
<event>
 7    1  0.6255318E-006  0.9327809E+02  0.7818608E-02  0.1364066E+00
          2   -1    0    0  502    0  0.00000000000E+00  0.00000000000E+00  0.10699558984E+03  0.10699558984E+03  0.00000000000E+00 0. -1.
          1   -1    0    0  501    0 -0.00000000000E+00 -0.00000000000E+00 -0.42570439425E+03  0.42570439425E+03  0.00000000000E+00 0. -1.
         25    2    1    2    0    0 -0.48276271601E+02  0.32011040891E+02 -0.20915329704E+03  0.25044300661E+03  0.12498517016E+03 0.  0.
          2    1    1    2  501    0 -0.52004497242E+01  0.50544706310E+02 -0.16270412186E+03  0.17045363969E+03  0.00000000000E+00 0. -1.
          1    1    1    2  502    0  0.53476721325E+02 -0.82555747201E+02  0.53148614485E+02  0.11180333779E+03  0.00000000000E+00 0. -1.
         22    1    3    3    0    0 -0.34611358343E+01  0.73681185714E+02 -0.13893055269E+03  0.15729779102E+03  0.00000000000E+00 0. -1.
         22    1    3    3    0    0 -0.44815135766E+02 -0.41670144823E+02 -0.70222744345E+02  0.93145215587E+02  0.00000000000E+00 0. -1.
</event>
<event>
 7    1  0.6255318E-006  0.7198460E+02  0.7818608E-02  0.1507956E+00
          2   -1    0    0  502    0  0.00000000000E+00  0.00000000000E+00  0.12981897011E+03  0.12981897011E+03  0.00000000000E+00 0. -1.
          1   -1    0    0  501    0 -0.00000000000E+00 -0.00000000000E+00 -0.12574945696E+04  0.12574945696E+04  0.00000000000E+00 0. -1.
         25    2    1    2    0    0 -0.26481728698E+02 -0.71489457269E+02 -0.32220287888E+03  0.35391046321E+03  0.12500358538E+03 0.  0.
          2    1    1    2  501    0  0.42177352591E+01  0.71752899209E+02 -0.91693037658E+03  0.91974321598E+03  0.00000000000E+00 0. -1.
          1    1    1    2  502    0  0.22263993439E+02 -0.26344194026E+00  0.11145765600E+03  0.11365986049E+03  0.00000000000E+00 0. -1.
         22    1    3    3    0    0 -0.15635320213E+02 -0.10314030605E+03 -0.28687633826E+03  0.30525467961E+03  0.00000000000E+00 0. -1.
         22    1    3    3    0    0 -0.10846408485E+02  0.31650848784E+02 -0.35326540616E+02  0.48655783600E+02  0.00000000000E+00 0. -1.
</event>
<event>
 7    1  0.6255318E-006  0.1256786E+03  0.7818608E-02  0.1397348E+00
          2   -1    0    0  502    0  0.00000000000E+00  0.00000000000E+00  0.98772011922E+03  0.98772011922E+03  0.00000000000E+00 0. -1.
          1   -1    0    0  501    0 -0.00000000000E+00 -0.00000000000E+00 -0.13137909105E+04  0.13137909105E+04  0.00000000000E+00 0. -1.
         25    2    1    2    0    0  0.12641713884E+03  0.68915979763E+02  0.59756095801E+03  0.62724343061E+03  0.12499806977E+03 0.  0.
          2    1    1    2  501    0 -0.98934312725E+02 -0.77373903814E+02 -0.12953570683E+04  0.13014317706E+04  0.00000000000E+00 0. -1.
          1    1    1    2  502    0 -0.27482826117E+02  0.84579240506E+01  0.37172531900E+03  0.37283582848E+03  0.00000000000E+00 0. -1.
         22    1    3    3    0    0  0.15109470742E+02  0.58324484507E+02  0.95763982033E+02  0.11314054028E+03  0.00000000000E+00 0.  1.
         22    1    3    3    0    0  0.11130766810E+03  0.10591495256E+02  0.50179697598E+03  0.51410289033E+03  0.00000000000E+00 0.  1.
</event>
<event>
 7    1  0.6255318E-006  0.5103159E+02  0.7818608E-02  0.1442505E+00
          2   -1    0    0  502    0  0.00000000000E+00  0.00000000000E+00  0.51556149292E+03  0.51556149292E+03  0.00000000000E+00 0. -1.
          1   -1    0    0  501    0 -0.00000000000E+00 -0.00000000000E+00 -0.14914168533E+03  0.14914168533E+03  0.00000000000E+00 0. -1.
         25    2    1    2    0    0 -0.73895378461E+01  0.23771118578E+02  0.14694893269E+03  0.19452179608E+03  0.12500027594E+03 0.  0.
          2    1    1    2  501    0 -0.43516785602E+02 -0.27344592818E+02 -0.11808768022E+03  0.12878717950E+03  0.00000000000E+00 0. -1.
          1    1    1    2  502    0  0.50906323448E+02  0.35734742401E+01  0.33755855512E+03  0.34139420267E+03  0.00000000000E+00 0. -1.
         22    1    3    3    0    0  0.34598507174E+02  0.21067173580E+01  0.14296432974E+03  0.14710640548E+03  0.00000000000E+00 0.  1.
         22    1    3    3    0    0 -0.41988045020E+02  0.21664401220E+02  0.39846029470E+01  0.47415390597E+02  0.00000000000E+00 0.  1.
</event>
<event>
 7    1  0.6255318E-006  0.3945168E+02  0.7818608E-02  0.1573406E+00
          2   -1    0    0  502    0  0.00000000000E+00  0.00000000000E+00  0.15353916518E+03  0.15353916518E+03  0.00000000000E+00 0. -1.
          1   -1    0    0  501    0 -0.00000000000E+00 -0.00000000000E+00 -0.21940107984E+03  0.21940107984E+03  0.00000000000E+00 0. -1.
         25    2    1    2    0    0  0.47832249599E+02  0.43801186811E+02 -0.29937483189E+02  0.14397306375E+03  0.12500208845E+03 0.  0.
          2    1    1    2  501    0 -0.19289706002E+02 -0.18226196986E+02 -0.12721755183E+03  0.12995611762E+03  0.00000000000E+00 0. -1.
          1    1    1    2  502    0 -0.28542543597E+02 -0.25574989824E+02  0.91293120363E+02  0.99011063650E+02  0.00000000000E+00 0. -1.
         22    1    3    3    0    0  0.17361041416E+02  0.78365997043E+02  0.12615816578E+02  0.81251425092E+02  0.00000000000E+00 0.  1.
         22    1    3    3    0    0  0.30471208182E+02 -0.34564810233E+02 -0.42553299767E+02  0.62721638655E+02  0.00000000000E+00 0.  1.
</event>
<event>
 7    1  0.6255318E-006  0.3230206E+02  0.7818608E-02  0.1580154E+00
          2   -1    0    0  502    0  0.00000000000E+00  0.00000000000E+00  0.12444713425E+04  0.12444713425E+04  0.00000000000E+00 0. -1.
          1   -1    0    0  501    0 -0.00000000000E+00 -0.00000000000E+00 -0.22484781271E+03  0.22484781271E+03  0.00000000000E+00 0. -1.
         25    2    1    2    0    0 -0.23237595890E+02 -0.46269106763E+01  0.92055617582E+01  0.12755043852E+03  0.12499191108E+03 0.  0.
          2    1    1    2  501    0  0.81394681104E+01  0.31797999035E+02 -0.16384196616E+03  0.16709743732E+03  0.00000000000E+00 0. -1.
          1    1    1    2  502    0  0.15098127779E+02 -0.27171088359E+02  0.11742599342E+04  0.11746712794E+04  0.00000000000E+00 0. -1.
         22    1    3    3    0    0  0.37057911046E+02  0.36633260951E+02  0.15098980796E+02  0.54251855268E+02  0.00000000000E+00 0. -1.
         22    1    3    3    0    0 -0.60295506935E+02 -0.41260171627E+02 -0.58934190373E+01  0.73298583255E+02  0.00000000000E+00 0. -1.
</event>
<event>
 7    1  0.6255318E-006  0.5335117E+02  0.7818608E-02  0.1438538E+00
          2   -1    0    0  502    0  0.00000000000E+00  0.00000000000E+00  0.17961915125E+04  0.17961915125E+04  0.00000000000E+00 0. -1.
          1   -1    0    0  501    0 -0.00000000000E+00 -0.00000000000E+00 -0.65382353714E+03  0.65382353714E+03  0.00000000000E+00 0. -1.
         25    2    1    2    0    0 -0.84418745371E+02 -0.13485875834E+02  0.30364675404E+02  0.15445212525E+03  0.12500020826E+03 0.  0.
          2    1    1    2  501    0  0.48900737172E+02 -0.20699228293E+02 -0.59023105067E+03  0.59261491149E+03  0.00000000000E+00 0. -1.
          1    1    1    2  502    0  0.35518008200E+02  0.34185104128E+02  0.17022343506E+04  0.17029480129E+04  0.00000000000E+00 0. -1.
         22    1    3    3    0    0  0.79733062263E+01 -0.39459683801E+02 -0.21205503333E+02  0.45500699219E+02  0.00000000000E+00 0. -1.
         22    1    3    3    0    0 -0.92392051598E+02  0.25973807967E+02  0.51570178737E+02  0.10895142603E+03  0.00000000000E+00 0. -1.
</event>
<event>
 7    1  0.6255318E-006  0.6825549E+02  0.7818608E-02  0.1389339E+00
          2   -1    0    0  502    0  0.00000000000E+00  0.00000000000E+00  0.40844194642E+04  0.40844194642E+04  0.00000000000E+00 0. -1.
          1   -1    0    0  501    0 -0.00000000000E+00 -0.00000000000E+00 -0.12540388405E+02  0.12540388405E+02  0.00000000000E+00 0. -1.
         25    2    1    2    0    0  0.29762370661E+02  0.13595999176E+02  0.11681709622E+04  0.11752952847E+04  0.12499983793E+03 0.  0.
          2    1    1    2  501    0  0.39827025116E+02 -0.40001988747E+02  0.85374068529E+02  0.10234785103E+03  0.00000000000E+00 0. -1.
          1    1    1    2  502    0 -0.69589395777E+02  0.26405989571E+02  0.28183340451E+04  0.28193167169E+04  0.00000000000E+00 0. -1.
         22    1    3    3    0    0 -0.21067714308E+02 -0.21822835584E+02  0.83198951364E+02  0.88555915935E+02  0.00000000000E+00 0.  1.
         22    1    3    3    0    0  0.50830084969E+02  0.35418834760E+02  0.10849720108E+04  0.10867393688E+04  0.00000000000E+00 0.  1.
</event>
<event>
 7    1  0.6255318E-006  0.1977324E+03  0.7818608E-02  0.1167914E+00
          2   -1    0    0  502    0  0.00000000000E+00  0.00000000000E+00  0.37409974823E+03  0.37409974823E+03  0.00000000000E+00 0. -1.
          1   -1    0    0  501    0 -0.00000000000E+00 -0.00000000000E+00 -0.69205488290E+03  0.69205488290E+03  0.00000000000E+00 0. -1.
         25    2    1    2    0    0 -0.98115876249E+02  0.25561196794E+03 -0.14334863421E+03  0.33337310657E+03  0.12499837571E+03 0.  0.
          2    1    1    2  501    0 -0.63830214433E+02 -0.15068801404E+03 -0.40230442700E+03  0.43431558323E+03  0.00000000000E+00 0. -1.
          1    1    1    2  502    0  0.16194609068E+03 -0.10492395390E+03  0.22769792654E+03  0.29846594134E+03  0.00000000000E+00 0. -1.
         22    1    3    3    0    0 -0.72960584460E+02  0.95606692132E+02 -0.11970570618E+03  0.16968601167E+03  0.00000000000E+00 0. -1.
         22    1    3    3    0    0 -0.25155291789E+02  0.16000527581E+03 -0.23642928031E+02  0.16368709490E+03  0.00000000000E+00 0. -1.
</event>
<event>
 7    1  0.6255318E-006  0.1216287E+03  0.7818608E-02  0.1328500E+00
          2   -1    0    0  502    0  0.00000000000E+00  0.00000000000E+00  0.21515253099E+04  0.21515253099E+04  0.00000000000E+00 0. -1.
          1   -1    0    0  501    0 -0.00000000000E+00 -0.00000000000E+00 -0.18473321016E+04  0.18473321016E+04  0.00000000000E+00 0. -1.
         25    2    1    2    0    0 -0.51631415574E+02  0.46061830877E+02  0.22315506411E+03  0.26497295410E+03  0.12499995372E+03 0.  0.
          2    1    1    2  501    0  0.90956969252E+02 -0.81407439452E+02 -0.18240163714E+04  0.18280962953E+04  0.00000000000E+00 0. -1.
          1    1    1    2  502    0 -0.39325553678E+02  0.35345608576E+02  0.19050545157E+04  0.19057881621E+04  0.00000000000E+00 0. -1.
         22    1    3    3    0    0 -0.41475147173E+02  0.52084051225E+02  0.23734858038E+03  0.24651021243E+03  0.00000000000E+00 0.  1.
         22    1    3    3    0    0 -0.10156268401E+02 -0.60222203488E+01 -0.14193516272E+02  0.18462741668E+02  0.00000000000E+00 0.  1.
</event>
<event>
 7    1  0.6255318E-006  0.5809361E+02  0.7818608E-02  0.1452004E+00
          2   -1    0    0  502    0  0.00000000000E+00  0.00000000000E+00  0.56393927623E+03  0.56393927623E+03  0.00000000000E+00 0. -1.
          1   -1    0    0  501    0 -0.00000000000E+00 -0.00000000000E+00 -0.95975428347E+03  0.95975428347E+03  0.00000000000E+00 0. -1.
         25    2    1    2    0    0  0.24131657471E+02 -0.81884839463E+01  0.22666242560E+03  0.26011280782E+03  0.12503371327E+03 0.  0.
          2    1    1    2  501    0  0.28371970982E+02 -0.29554580494E+02 -0.93931711999E+03  0.94021013282E+03  0.00000000000E+00 0. -1.
          1    1    1    2  502    0 -0.52503628453E+02  0.37743064440E+02  0.31683968715E+03  0.32337061905E+03  0.00000000000E+00 0. -1.
         22    1    3    3    0    0  0.71299257682E+02  0.17007254999E+02  0.11620041761E+03  0.13738765563E+03  0.00000000000E+00 0. -1.
         22    1    3    3    0    0 -0.47167600211E+02 -0.25195738945E+02  0.11046200799E+03  0.12272515219E+03  0.00000000000E+00 0. -1.
</event>
<event>
 7    1  0.6255318E-006  0.2036048E+03  0.7818608E-02  0.1176053E+00
          2   -1    0    0  502    0  0.00000000000E+00  0.00000000000E+00  0.26256162441E+04  0.26256162441E+04  0.00000000000E+00 0. -1.
          1   -1    0    0  501    0 -0.00000000000E+00 -0.00000000000E+00 -0.76888623834E+03  0.76888623834E+03  0.00000000000E+00 0. -1.
         25    2    1    2    0    0  0.26562481660E+03 -0.19127496257E+03  0.15808236134E+03  0.38439175045E+03  0.12499732135E+03 0.  0.
          2    1    1    2  501    0 -0.14023961574E+03  0.36253438423E+02 -0.64344460545E+03  0.65954713395E+03  0.00000000000E+00 0. -1.
          1    1    1    2  502    0 -0.12538520086E+03  0.15502152415E+03  0.23420922499E+04  0.23505635981E+04  0.00000000000E+00 0. -1.
         22    1    3    3    0    0  0.28224864291E+02 -0.50368233152E+02  0.77807323497E+02  0.96889532277E+02  0.00000000000E+00 0.  1.
         22    1    3    3    0    0  0.23739995231E+03 -0.14090672942E+03  0.80275037847E+02  0.28750221817E+03  0.00000000000E+00 0.  1.
</event>
<event>
 7    1  0.6255318E-006  0.1032622E+03  0.7818608E-02  0.1323035E+00
          2   -1    0    0  502    0  0.00000000000E+00  0.00000000000E+00  0.28961288766E+04  0.28961288766E+04  0.00000000000E+00 0. -1.
          1   -1    0    0  501    0 -0.00000000000E+00 -0.00000000000E+00 -0.47643085152E+02  0.47643085152E+02  0.00000000000E+00 0. -1.
         25    2    1    2    0    0 -0.85572975355E+02  0.98511524661E+02  0.11955233764E+04  0.12091016603E+04  0.12499370735E+03 0.  0.
          2    1    1    2  501    0 -0.87164383894E+01 -0.64784002360E+02 -0.12202525146E+02  0.66496953914E+02  0.00000000000E+00 0. -1.
          1    1    1    2  502    0  0.94289413744E+02 -0.33727522301E+02  0.16651649403E+04  0.16681733476E+04  0.00000000000E+00 0. -1.
         22    1    3    3    0    0  0.32330430839E+02  0.12221899084E+02  0.22089639045E+03  0.22358409355E+03  0.00000000000E+00 0.  1.
         22    1    3    3    0    0 -0.11790340619E+03  0.86289625576E+02  0.97462698591E+03  0.98551756674E+03  0.00000000000E+00 0.  1.
</event>
<event>
 7    1  0.6255318E-006  0.6828928E+02  0.7818608E-02  0.1403342E+00
          2   -1    0    0  502    0  0.00000000000E+00  0.00000000000E+00  0.35104699732E+04  0.35104699732E+04  0.00000000000E+00 0. -1.
          1   -1    0    0  501    0 -0.00000000000E+00 -0.00000000000E+00 -0.71715396966E+02  0.71715396966E+02  0.00000000000E+00 0. -1.
         25    2    1    2    0    0  0.30677679313E+02  0.70208703904E+01  0.20465797616E+03  0.24186875482E+03  0.12500077890E+03 0.  0.
          2    1    1    2  501    0  0.29669285977E+02 -0.40826263020E+02 -0.40672267967E+02  0.64817309911E+02  0.00000000000E+00 0. -1.
          1    1    1    2  502    0 -0.60346965289E+02  0.33805392630E+02  0.32747688681E+04  0.32754993055E+04  0.00000000000E+00 0. -1.
         22    1    3    3    0    0  0.63541630926E+02  0.20092291139E+02  0.50256574241E+02  0.83468330991E+02  0.00000000000E+00 0.  1.
         22    1    3    3    0    0 -0.32863951613E+02 -0.13071420749E+02  0.15440140192E+03  0.15840042383E+03  0.00000000000E+00 0.  1.
</event>
<event>
 7    1  0.6255318E-006  0.1455307E+03  0.7818608E-02  0.1218124E+00
          2   -1    0    0  502    0  0.00000000000E+00  0.00000000000E+00  0.28587542359E+03  0.28587542359E+03  0.00000000000E+00 0. -1.
          1   -1    0    0  501    0 -0.00000000000E+00 -0.00000000000E+00 -0.14816169398E+04  0.14816169398E+04  0.00000000000E+00 0. -1.
         25    2    1    2    0    0 -0.11951531585E+03 -0.15421480838E+03 -0.33731289231E+03  0.40923577551E+03  0.12501125866E+03 0.  0.
          2    1    1    2  501    0  0.12769069818E+03  0.91882600157E+01 -0.10831428560E+04  0.10906822567E+04  0.00000000000E+00 0. -1.
          1    1    1    2  502    0 -0.81753823264E+01  0.14502654837E+03  0.22471423210E+03  0.26757433120E+03  0.00000000000E+00 0. -1.
         22    1    3    3    0    0 -0.98464436029E+02 -0.49182590788E+02 -0.99343407808E+02  0.14826761303E+03  0.00000000000E+00 0.  1.
         22    1    3    3    0    0 -0.21050879825E+02 -0.10503221760E+03 -0.23796948450E+03  0.26096816248E+03  0.00000000000E+00 0.  1.
</event>
<event>
 7    1  0.6255318E-006  0.8131017E+02  0.7818608E-02  0.1426203E+00
          2   -1    0    0  502    0  0.00000000000E+00  0.00000000000E+00  0.16279402453E+04  0.16279402453E+04  0.00000000000E+00 0. -1.
          1   -1    0    0  501    0 -0.00000000000E+00 -0.00000000000E+00 -0.24636798154E+03  0.24636798154E+03  0.00000000000E+00 0. -1.
         25    2    1    2    0    0 -0.53941948216E+02  0.53516335603E+02  0.47096995802E+03  0.49316498440E+03  0.12500107411E+03 0.  0.
          2    1    1    2  501    0  0.77048248523E+02 -0.26559357154E+02 -0.22792776864E+03  0.24205970290E+03  0.00000000000E+00 0. -1.
          1    1    1    2  502    0 -0.23106300307E+02 -0.26956978448E+02  0.11385300744E+04  0.11390835395E+04  0.00000000000E+00 0. -1.
         22    1    3    3    0    0  0.30269638264E+02 -0.18234100510E+02  0.12836372789E+03  0.13313895019E+03  0.00000000000E+00 0. -1.
         22    1    3    3    0    0 -0.84211586480E+02  0.71750436113E+02  0.34260623014E+03  0.36002603421E+03  0.00000000000E+00 0. -1.
</event>
<event>
 7    1  0.6255318E-006  0.1392829E+03  0.7818608E-02  0.1324984E+00
          2   -1    0    0  502    0  0.00000000000E+00  0.00000000000E+00  0.63364831379E+03  0.63364831379E+03  0.00000000000E+00 0. -1.
          1   -1    0    0  501    0 -0.00000000000E+00 -0.00000000000E+00 -0.58223830544E+03  0.58223830544E+03  0.00000000000E+00 0. -1.
         25    2    1    2    0    0  0.86817793530E+02 -0.11294476623E+03  0.30001435612E+03  0.35486010434E+03  0.12499292094E+03 0.  0.
          2    1    1    2  501    0 -0.43015500097E+02 -0.20454628682E+02 -0.53761181754E+03  0.53971769606E+03  0.00000000000E+00 0. -1.
          1    1    1    2  502    0 -0.43802293433E+02  0.13339939491E+03  0.28900746977E+03  0.32130881882E+03  0.00000000000E+00 0. -1.
         22    1    3    3    0    0  0.37083166278E+02 -0.39349774218E+02  0.24384113970E+03  0.24976402335E+03  0.00000000000E+00 0.  1.
         22    1    3    3    0    0  0.49734627252E+02 -0.73594992010E+02  0.56173216424E+02  0.10509608099E+03  0.00000000000E+00 0.  1.
</event>
<event>
 7    1  0.6255318E-006  0.3976339E+02  0.7818608E-02  0.1529605E+00
          2   -1    0    0  502    0  0.00000000000E+00  0.00000000000E+00  0.60034402140E+03  0.60034402140E+03  0.00000000000E+00 0. -1.
          1   -1    0    0  501    0 -0.00000000000E+00 -0.00000000000E+00 -0.25144507539E+04  0.25144507539E+04  0.00000000000E+00 0. -1.
         25    2    1    2    0    0 -0.78614527957E+01  0.47542806761E+02 -0.58036398840E+03  0.59562624946E+03  0.12500459632E+03 0.  0.
          2    1    1    2  501    0  0.31281845252E+02 -0.15400167458E+02 -0.19256305073E+04  0.19259461492E+04  0.00000000000E+00 0. -1.
          1    1    1    2  502    0 -0.23420392456E+02 -0.32142639303E+02  0.59188776315E+03  0.59322237669E+03  0.00000000000E+00 0. -1.
         22    1    3    3    0    0 -0.23067948311E+02  0.85192090037E+02 -0.46558582684E+03  0.47387760508E+03  0.00000000000E+00 0. -1.
         22    1    3    3    0    0  0.15206495515E+02 -0.37649283276E+02 -0.11477816156E+03  0.12174864438E+03  0.00000000000E+00 0. -1.
</event>
<event>
 7    1  0.6255318E-006  0.4365943E+02  0.7818608E-02  0.1591246E+00
          2   -1    0    0  502    0  0.00000000000E+00  0.00000000000E+00  0.12696329000E+04  0.12696329000E+04  0.00000000000E+00 0. -1.
          1   -1    0    0  501    0 -0.00000000000E+00 -0.00000000000E+00 -0.45713336717E+02  0.45713336717E+02  0.00000000000E+00 0. -1.
         25    2    1    2    0    0 -0.14342134140E+02 -0.18064637091E+02  0.45186701124E+03  0.46941589378E+03  0.12504182323E+03 0.  0.
          2    1    1    2  501    0  0.23514824215E+02  0.37494879769E+02 -0.23484458606E+02  0.50103221082E+02  0.00000000000E+00 0. -1.
          1    1    1    2  502    0 -0.91726900745E+01 -0.19430242678E+02  0.79553701066E+03  0.79582712187E+03  0.00000000000E+00 0. -1.
         22    1    3    3    0    0 -0.50518264697E+02  0.34290230531E+02  0.26734551084E+03  0.27422898670E+03  0.00000000000E+00 0. -1.
         22    1    3    3    0    0  0.36176130556E+02 -0.52354867622E+02  0.18452150040E+03  0.19518690708E+03  0.00000000000E+00 0. -1.
</event>
<event>
 7    1  0.6255318E-006  0.1534484E+03  0.7818608E-02  0.1238449E+00
          2   -1    0    0  502    0  0.00000000000E+00  0.00000000000E+00  0.23908572562E+03  0.23908572562E+03  0.00000000000E+00 0. -1.
          1   -1    0    0  501    0 -0.00000000000E+00 -0.00000000000E+00 -0.13132021319E+04  0.13132021319E+04  0.00000000000E+00 0. -1.
         25    2    1    2    0    0  0.68562844765E+01  0.74359535360E+02 -0.10617463094E+03  0.18020431957E+03  0.12499678155E+03 0.  0.
          2    1    1    2  501    0 -0.65396526019E+02 -0.15341677904E+03 -0.11516672834E+04  0.11636799153E+04  0.00000000000E+00 0. -1.
          1    1    1    2  502    0  0.58540241543E+02  0.79057243680E+02  0.18372550800E+03  0.20840362268E+03  0.00000000000E+00 0. -1.
         22    1    3    3    0    0 -0.10269680820E+02  0.85557346537E+02 -0.15882818444E+02  0.87622998193E+02  0.00000000000E+00 0.  1.
         22    1    3    3    0    0  0.17125965297E+02 -0.11197811177E+02 -0.90291812500E+02  0.92581321373E+02  0.00000000000E+00 0.  1.
</event>
<event>
 7    1  0.6255318E-006  0.3882643E+02  0.7818608E-02  0.1606415E+00
          2   -1    0    0  502    0  0.00000000000E+00  0.00000000000E+00  0.15805582498E+04  0.15805582498E+04  0.00000000000E+00 0. -1.
          1   -1    0    0  501    0 -0.00000000000E+00 -0.00000000000E+00 -0.91455136291E+01  0.91455136291E+01  0.00000000000E+00 0. -1.
         25    2    1    2    0    0 -0.68061183952E+01  0.23869258083E+02  0.76385392427E+03  0.77441287677E+03  0.12500568533E+03 0.  0.
          2    1    1    2  501    0  0.27838699574E+02 -0.30492223276E+02  0.11176479053E+03  0.11914754415E+03  0.00000000000E+00 0. -1.
          1    1    1    2  502    0 -0.21032581178E+02  0.66229651922E+01  0.69579402133E+03  0.69614334247E+03  0.00000000000E+00 0. -1.
         22    1    3    3    0    0  0.40137129869E+02 -0.31713752115E+02  0.22970461306E+03  0.23533159696E+03  0.00000000000E+00 0.  1.
         22    1    3    3    0    0 -0.46943248264E+02  0.55583010198E+02  0.53414931121E+03  0.53908127982E+03  0.00000000000E+00 0.  1.
</event>
<event>
 7    1  0.6255318E-006  0.5890275E+02  0.7818608E-02  0.1481660E+00
          2   -1    0    0  502    0  0.00000000000E+00  0.00000000000E+00  0.31007664711E+03  0.31007664711E+03  0.00000000000E+00 0. -1.
          1   -1    0    0  501    0 -0.00000000000E+00 -0.00000000000E+00 -0.20082374478E+03  0.20082374478E+03  0.00000000000E+00 0. -1.
         25    2    1    2    0    0 -0.51445781371E+02 -0.22954293561E+02  0.15122349951E+03  0.20412465392E+03  0.12499903808E+03 0.  0.
          2    1    1    2  501    0 -0.94658902045E+01  0.31239241021E+02 -0.16555743915E+03  0.16874465596E+03  0.00000000000E+00 0. -1.
          1    1    1    2  502    0  0.60911671575E+02 -0.82849474597E+01  0.12358684198E+03  0.13803108200E+03  0.00000000000E+00 0. -1.
         22    1    3    3    0    0  0.48975602070E+01 -0.29640646158E+02 -0.11210705801E+02  0.32066086840E+02  0.00000000000E+00 0. -1.
         22    1    3    3    0    0 -0.56343341578E+02  0.66863525971E+01  0.16243420531E+03  0.17205856708E+03  0.00000000000E+00 0. -1.
</event>
<event>
 7    1  0.6255318E-006  0.1751960E+03  0.7818608E-02  0.1392102E+00
          2   -1    0    0  502    0  0.00000000000E+00  0.00000000000E+00  0.29610761700E+03  0.29610761700E+03  0.00000000000E+00 0. -1.
          1   -1    0    0  501    0 -0.00000000000E+00 -0.00000000000E+00 -0.76850685775E+03  0.76850685775E+03  0.00000000000E+00 0. -1.
         25    2    1    2    0    0  0.15200763896E+03 -0.46064030745E+02  0.21451300516E+03  0.29473609187E+03  0.12500126896E+03 0.  0.
          2    1    1    2  501    0 -0.17181753843E+03  0.37684200266E+02 -0.71396630417E+03  0.73531574779E+03  0.00000000000E+00 0. -1.
          1    1    1    2  502    0  0.19809899472E+02  0.83798304790E+01  0.27054058264E+02  0.34562635092E+02  0.00000000000E+00 0. -1.
         22    1    3    3    0    0  0.10368079172E+03  0.18378388135E+02  0.17683195836E+03  0.20580819523E+03  0.00000000000E+00 0. -1.
         22    1    3    3    0    0  0.48326847234E+02 -0.64442418880E+02  0.37681046790E+02  0.88927896646E+02  0.00000000000E+00 0. -1.
</event>
<event>
 7    1  0.6255318E-006  0.8152062E+02  0.7818608E-02  0.1396711E+00
          2   -1    0    0  502    0  0.00000000000E+00  0.00000000000E+00  0.41296222501E+03  0.41296222501E+03  0.00000000000E+00 0. -1.
          1   -1    0    0  501    0 -0.00000000000E+00 -0.00000000000E+00 -0.31765905995E+03  0.31765905995E+03  0.00000000000E+00 0. -1.
         25    2    1    2    0    0 -0.58500045681E+02 -0.10386192392E+03 -0.13111827265E+03  0.21685541859E+03  0.12499886626E+03 0.  0.
          2    1    1    2  501    0  0.35836010505E+02  0.26476569157E+02 -0.13567279598E+03  0.14280173644E+03  0.00000000000E+00 0. -1.
          1    1    1    2  502    0  0.22664035176E+02  0.77385354760E+02  0.36209423369E+03  0.37096412993E+03  0.00000000000E+00 0. -1.
         22    1    3    3    0    0 -0.20913642893E+02 -0.11888566312E+03 -0.59474076604E+02  0.13456725880E+03  0.00000000000E+00 0. -1.
         22    1    3    3    0    0 -0.37586402788E+02  0.15023739201E+02 -0.71644196049E+02  0.82288159790E+02  0.00000000000E+00 0. -1.
</event>
<event>
 7    1  0.6255318E-006  0.5160061E+02  0.7818608E-02  0.1456316E+00
          2   -1    0    0  502    0  0.00000000000E+00  0.00000000000E+00  0.10754117638E+02  0.10754117638E+02  0.00000000000E+00 0. -1.
          1   -1    0    0  501    0 -0.00000000000E+00 -0.00000000000E+00 -0.19188533694E+04  0.19188533694E+04  0.00000000000E+00 0. -1.
         25    2    1    2    0    0  0.79434268015E+02 -0.29127189842E+02 -0.92388319495E+03  0.93613232972E+03  0.12500153879E+03 0.  0.
          2    1    1    2  501    0 -0.32044454618E+02  0.31150558612E+02 -0.84909834651E+03  0.85027360680E+03  0.00000000000E+00 0. -1.
          1    1    1    2  502    0 -0.47389813397E+02 -0.20233687708E+01 -0.13511771026E+03  0.14320155048E+03  0.00000000000E+00 0. -1.
         22    1    3    3    0    0  0.33347954450E+02 -0.20060177591E+01 -0.80594865452E+03  0.80664077748E+03  0.00000000000E+00 0.  1.
         22    1    3    3    0    0  0.46086313565E+02 -0.27121172082E+02 -0.11793454043E+03  0.12949155223E+03  0.00000000000E+00 0.  1.
</event>
<event>
 7    1  0.6255318E-006  0.9212680E+02  0.7818608E-02  0.1307810E+00
          2   -1    0    0  502    0  0.00000000000E+00  0.00000000000E+00  0.23856246945E+03  0.23856246945E+03  0.00000000000E+00 0. -1.
          1   -1    0    0  501    0 -0.00000000000E+00 -0.00000000000E+00 -0.82001837511E+03  0.82001837511E+03  0.00000000000E+00 0. -1.
         25    2    1    2    0    0  0.63886916609E+01 -0.23184290835E+02 -0.17526491162E+02  0.12849354412E+03  0.12500034506E+03 0.  0.
          2    1    1    2  501    0  0.58016514329E+02  0.77151407424E+02 -0.73403768969E+03  0.74035774156E+03  0.00000000000E+00 0. -1.
          1    1    1    2  502    0 -0.64405205990E+02 -0.53967116589E+02  0.17010827518E+03  0.18972955889E+03  0.00000000000E+00 0. -1.
         22    1    3    3    0    0 -0.40220318879E+02  0.16261100984E+02  0.28606081588E+02  0.51965424657E+02  0.00000000000E+00 0.  1.
         22    1    3    3    0    0  0.46609010540E+02 -0.39445391819E+02 -0.46132572750E+02  0.76528119458E+02  0.00000000000E+00 0.  1.
</event>
<event>
 7    1  0.6255318E-006  0.8227024E+02  0.7818608E-02  0.1353249E+00
          2   -1    0    0  502    0  0.00000000000E+00  0.00000000000E+00  0.59085454713E+03  0.59085454713E+03  0.00000000000E+00 0. -1.
          1   -1    0    0  501    0 -0.00000000000E+00 -0.00000000000E+00 -0.71992449585E+03  0.71992449585E+03  0.00000000000E+00 0. -1.
         25    2    1    2    0    0 -0.11846269847E+03  0.81432429513E+02  0.32900575376E+02  0.19335560512E+03  0.12505714960E+03 0.  0.
          2    1    1    2  501    0  0.64269507700E+02 -0.49102353616E+02 -0.63503690471E+03  0.64016676038E+03  0.00000000000E+00 0. -1.
          1    1    1    2  502    0  0.54193190765E+02 -0.32330075897E+02  0.47306638061E+03  0.47725667748E+03  0.00000000000E+00 0. -1.
         22    1    3    3    0    0 -0.10494699548E+03 -0.21128435352E+01  0.86801607305E+01  0.10532654536E+03  0.00000000000E+00 0.  1.
         22    1    3    3    0    0 -0.13515702989E+02  0.83545273049E+02  0.24220414646E+02  0.88029059757E+02  0.00000000000E+00 0.  1.
</event>
<event>
 7    1  0.6255318E-006  0.9372843E+02  0.7818608E-02  0.1434367E+00
          2   -1    0    0  502    0  0.00000000000E+00  0.00000000000E+00  0.22559353946E+04  0.22559353946E+04  0.00000000000E+00 0. -1.
          1   -1    0    0  501    0 -0.00000000000E+00 -0.00000000000E+00 -0.20655556841E+03  0.20655556841E+03  0.00000000000E+00 0. -1.
         25    2    1    2    0    0  0.70565116624E+02 -0.43961845881E+02  0.60860404144E+03  0.62683922239E+03  0.12496580289E+03 0.  0.
          2    1    1    2  501    0 -0.91012771116E+02  0.23463822313E+02 -0.18611623703E+03  0.20850210826E+03  0.00000000000E+00 0. -1.
          1    1    1    2  502    0  0.20447654493E+02  0.20498023567E+02  0.16268920218E+04  0.16271496323E+04  0.00000000000E+00 0. -1.
         22    1    3    3    0    0 -0.27810992948E+02 -0.93883218807E+01  0.45392610952E+02  0.54056276653E+02  0.00000000000E+00 0.  1.
         22    1    3    3    0    0  0.98376109572E+02 -0.34573524000E+02  0.56321143049E+03  0.57278294574E+03  0.00000000000E+00 0.  1.
</event>
<event>
 7    1  0.6255318E-006  0.2601637E+03  0.7818608E-02  0.1133242E+00
          2   -1    0    0  502    0  0.00000000000E+00  0.00000000000E+00  0.17298753927E+04  0.17298753927E+04  0.00000000000E+00 0. -1.
          1   -1    0    0  501    0 -0.00000000000E+00 -0.00000000000E+00 -0.81798076527E+03  0.81798076527E+03  0.00000000000E+00 0. -1.
         25    2    1    2    0    0 -0.39902239789E+03  0.15154037878E+03  0.35708936084E+03  0.57036948147E+03  0.12500069339E+03 0.  0.
          2    1    1    2  501    0  0.24952177557E+03 -0.38383226900E+02 -0.68164890654E+03  0.72689725572E+03  0.00000000000E+00 0. -1.
          1    1    1    2  502    0  0.14950062233E+03 -0.11315715188E+03  0.12364541731E+04  0.12505894207E+04  0.00000000000E+00 0. -1.
         22    1    3    3    0    0 -0.23313720061E+03  0.13276822859E+03  0.27550818264E+03  0.38455833827E+03  0.00000000000E+00 0.  1.
         22    1    3    3    0    0 -0.16588519728E+03  0.18772150185E+02  0.81581178195E+02  0.18581114320E+03  0.00000000000E+00 0.  1.
</event>
<event>
 7    1  0.6255318E-006  0.1534608E+03  0.7818608E-02  0.1278631E+00
          2   -1    0    0  502    0  0.00000000000E+00  0.00000000000E+00  0.14708284481E+04  0.14708284481E+04  0.00000000000E+00 0. -1.
          1   -1    0    0  501    0 -0.00000000000E+00 -0.00000000000E+00 -0.19285638574E+04  0.19285638574E+04  0.00000000000E+00 0. -1.
         25    2    1    2    0    0  0.82198775322E+02 -0.35133322442E+02 -0.13561467551E+03  0.20495547393E+03  0.12499766826E+03 0.  0.
          2    1    1    2  501    0  0.64416869077E+02 -0.15282380528E+02 -0.17534678588E+04  0.17547172468E+04  0.00000000000E+00 0. -1.
          1    1    1    2  502    0 -0.14661564440E+03  0.50415702970E+02  0.14313471251E+04  0.14397195847E+04  0.00000000000E+00 0. -1.
         22    1    3    3    0    0  0.11322223676E+03 -0.29186548730E+02 -0.12609831249E+03  0.17196486251E+03  0.00000000000E+00 0.  1.
         22    1    3    3    0    0 -0.31023461436E+02 -0.59467737116E+01 -0.95163630169E+01  0.32990611424E+02  0.00000000000E+00 0.  1.
</event>
<event>
 7    1  0.6255318E-006  0.1651013E+03  0.7818608E-02  0.1208898E+00
          2   -1    0    0  502    0  0.00000000000E+00  0.00000000000E+00  0.17266855699E+04  0.17266855699E+04  0.00000000000E+00 0. -1.
          1   -1    0    0  501    0 -0.00000000000E+00 -0.00000000000E+00 -0.48223817785E+03  0.48223817785E+03  0.00000000000E+00 0. -1.
         25    2    1    2    0    0 -0.63370608747E+02 -0.28114279248E+02  0.49565599770E+02  0.15128980997E+03  0.12500244466E+03 0.  0.
          2    1    1    2  501    0  0.18518046577E+03  0.25901464372E+01 -0.40897624881E+03  0.44895443627E+03  0.00000000000E+00 0. -1.
          1    1    1    2  502    0 -0.12180985702E+03  0.25524132810E+02  0.16038580411E+04  0.16086795016E+04  0.00000000000E+00 0. -1.
         22    1    3    3    0    0 -0.19383366413E+02 -0.55165000490E+02  0.73875024480E+02  0.94214709119E+02  0.00000000000E+00 0.  1.
         22    1    3    3    0    0 -0.43987242334E+02  0.27050721242E+02 -0.24309424710E+02  0.57075100855E+02  0.00000000000E+00 0.  1.
</event>
<event>
 7    1  0.6255318E-006  0.1085928E+03  0.7818608E-02  0.1291588E+00
          2   -1    0    0  502    0  0.00000000000E+00  0.00000000000E+00  0.73895970407E+03  0.73895970407E+03  0.00000000000E+00 0. -1.
          1   -1    0    0  501    0 -0.00000000000E+00 -0.00000000000E+00 -0.35035103600E+03  0.35035103600E+03  0.00000000000E+00 0. -1.
         25    2    1    2    0    0 -0.10479549868E+03 -0.15409268851E+03  0.42356403527E+02  0.22834672027E+03  0.12498602540E+03 0.  0.
          2    1    1    2  501    0  0.37370317958E+02  0.73874880148E+02 -0.24597682841E+03  0.25953542860E+03  0.00000000000E+00 0. -1.
          1    1    1    2  502    0  0.67425180721E+02  0.80217808358E+02  0.59222909295E+03  0.60142859120E+03  0.00000000000E+00 0. -1.
         22    1    3    3    0    0 -0.11799511745E+03 -0.16363966061E+03  0.53368013753E+02  0.20868380666E+03  0.00000000000E+00 0. -1.
         22    1    3    3    0    0  0.13199618773E+02  0.95469721085E+01 -0.11011610226E+02  0.19662913618E+02  0.00000000000E+00 0. -1.
</event>
<event>
 7    1  0.6255318E-006  0.5941776E+02  0.7818608E-02  0.1401564E+00
          2   -1    0    0  502    0  0.00000000000E+00  0.00000000000E+00  0.53808402846E+03  0.53808402846E+03  0.00000000000E+00 0. -1.
          1   -1    0    0  501    0 -0.00000000000E+00 -0.00000000000E+00 -0.21068105009E+04  0.21068105009E+04  0.00000000000E+00 0. -1.
         25    2    1    2    0    0 -0.65486825409E+01  0.23452294100E+02 -0.39095453650E+02  0.13321351349E+03  0.12499796134E+03 0.  0.
          2    1    1    2  501    0 -0.53344684564E+02 -0.26168957813E+02 -0.20183870436E+04  0.20192614312E+04  0.00000000000E+00 0. -1.
          1    1    1    2  502    0  0.59893367105E+02  0.27166637128E+01  0.48875602476E+03  0.49241958473E+03  0.00000000000E+00 0. -1.
         22    1    3    3    0    0  0.15541436885E+02 -0.27707006915E+02  0.30512395023E+02  0.44047936872E+02  0.00000000000E+00 0. -1.
         22    1    3    3    0    0 -0.22090119426E+02  0.51159301015E+02 -0.69607848673E+02  0.89165576618E+02  0.00000000000E+00 0. -1.
</event>
<event>
 7    1  0.6255318E-006  0.4484665E+02  0.7818608E-02  0.1579188E+00
          2   -1    0    0  502    0  0.00000000000E+00  0.00000000000E+00  0.58001273753E+03  0.58001273753E+03  0.00000000000E+00 0. -1.
          1   -1    0    0  501    0 -0.00000000000E+00 -0.00000000000E+00 -0.83710324302E+03  0.83710324302E+03  0.00000000000E+00 0. -1.
         25    2    1    2    0    0 -0.47124725631E+02 -0.54332729118E+01  0.10589704638E+03  0.17055620316E+03  0.12499989514E+03 0.  0.
          2    1    1    2  501    0  0.36904730390E+02  0.25504240892E+02 -0.80386081287E+03  0.80511156488E+03  0.00000000000E+00 0. -1.
          1    1    1    2  502    0  0.10219995241E+02 -0.20070967980E+02  0.44087326101E+03  0.44144821251E+03  0.00000000000E+00 0. -1.
         22    1    3    3    0    0 -0.48901067898E+02  0.40369482690E+02  0.10736822691E+03  0.12469541180E+03  0.00000000000E+00 0.  1.
         22    1    3    3    0    0  0.17763422666E+01 -0.45802755602E+02 -0.14711805276E+01  0.45860791366E+02  0.00000000000E+00 0.  1.
</event>
<event>
 7    1  0.6255318E-006  0.5149469E+02  0.7818608E-02  0.1438687E+00
          2   -1    0    0  502    0  0.00000000000E+00  0.00000000000E+00  0.73403822867E+03  0.73403822867E+03  0.00000000000E+00 0. -1.
          1   -1    0    0  501    0 -0.00000000000E+00 -0.00000000000E+00 -0.64213531913E+03  0.64213531913E+03  0.00000000000E+00 0. -1.
         25    2    1    2    0    0 -0.11130903992E+02 -0.68979301998E+02 -0.98229001296E+02  0.17365412548E+03  0.12499910989E+03 0.  0.
          2    1    1    2  501    0  0.42722527145E+02  0.28921007935E+02 -0.50394057387E+03  0.50657451674E+03  0.00000000000E+00 0. -1.
          1    1    1    2  502    0 -0.31591623154E+02  0.40058294064E+02  0.69407248470E+03  0.69594490558E+03  0.00000000000E+00 0. -1.
         22    1    3    3    0    0 -0.16486568028E+02 -0.10223522575E+03 -0.50440494263E+02  0.11518720315E+03  0.00000000000E+00 0. -1.
         22    1    3    3    0    0  0.53556640368E+01  0.33255923749E+02 -0.47788507033E+02  0.58466922325E+02  0.00000000000E+00 0. -1.
</event>
<event>
 7    1  0.6255318E-006  0.8119180E+02  0.7818608E-02  0.1406891E+00
          2   -1    0    0  502    0  0.00000000000E+00  0.00000000000E+00  0.14583900275E+03  0.14583900275E+03  0.00000000000E+00 0. -1.
          1   -1    0    0  501    0 -0.00000000000E+00 -0.00000000000E+00 -0.22735461187E+04  0.22735461187E+04  0.00000000000E+00 0. -1.
         25    2    1    2    0    0 -0.22252772577E+02  0.81132990844E+02 -0.87823605355E+02  0.17440372354E+03  0.12500370009E+03 0.  0.
          2    1    1    2  501    0  0.56664356762E+02 -0.58330848945E+02 -0.21374733278E+04  0.21390197671E+04  0.00000000000E+00 0. -1.
          1    1    1    2  502    0 -0.34411584186E+02 -0.22802141899E+02  0.97589817128E+02  0.10596163083E+03  0.00000000000E+00 0. -1.
         22    1    3    3    0    0  0.17465570286E+02 -0.16208578228E+02 -0.61602543782E+02  0.66050265359E+02  0.00000000000E+00 0.  1.
         22    1    3    3    0    0 -0.39718342862E+02  0.97341569072E+02 -0.26221061573E+02  0.10835345818E+03  0.00000000000E+00 0.  1.
</event>
<event>
 7    1  0.6255318E-006  0.1295585E+03  0.7818608E-02  0.1338908E+00
          2   -1    0    0  502    0  0.00000000000E+00  0.00000000000E+00  0.56191730339E+03  0.56191730339E+03  0.00000000000E+00 0. -1.
          1   -1    0    0  501    0 -0.00000000000E+00 -0.00000000000E+00 -0.35907158225E+03  0.35907158225E+03  0.00000000000E+00 0. -1.
         25    2    1    2    0    0  0.28162708719E+02  0.85773369444E+02  0.26023841257E+02  0.15637917968E+03  0.12500799357E+03 0.  0.
          2    1    1    2  501    0  0.99652166866E+01  0.44210723997E+02 -0.28230346573E+03  0.28591806593E+03  0.00000000000E+00 0. -1.
          1    1    1    2  502    0 -0.38127925405E+02 -0.12998409344E+03  0.45912534562E+03  0.47869164003E+03  0.00000000000E+00 0. -1.
         22    1    3    3    0    0  0.20035269177E+02 -0.30631063922E+02 -0.95150034115E+00  0.36613924139E+02  0.00000000000E+00 0. -1.
         22    1    3    3    0    0  0.81274395414E+01  0.11640443337E+03  0.26975341598E+02  0.11976525554E+03  0.00000000000E+00 0. -1.
</event>
<event>
 7    1  0.6255318E-006  0.4008895E+02  0.7818608E-02  0.1574738E+00
          2   -1    0    0  502    0  0.00000000000E+00  0.00000000000E+00  0.28103783533E+04  0.28103783533E+04  0.00000000000E+00 0. -1.
          1   -1    0    0  501    0 -0.00000000000E+00 -0.00000000000E+00 -0.44233197690E+03  0.44233197690E+03  0.00000000000E+00 0. -1.
         25    2    1    2    0    0  0.11472892489E+02 -0.19032861631E+02  0.48267486874E+03  0.49909245175E+03  0.12499747759E+03 0.  0.
          2    1    1    2  501    0  0.25739251791E+02  0.28890203504E+01 -0.43355932894E+03  0.43433230047E+03  0.00000000000E+00 0. -1.
          1    1    1    2  502    0 -0.37212144280E+02  0.16143841280E+02  0.23189308366E+04  0.23192855779E+04  0.00000000000E+00 0. -1.
         22    1    3    3    0    0  0.39070035879E+02  0.20035396784E+02  0.63526839359E+02  0.77223986861E+02  0.00000000000E+00 0.  1.
         22    1    3    3    0    0 -0.27597143390E+02 -0.39068258414E+02  0.41914802938E+03  0.42186846489E+03  0.00000000000E+00 0.  1.
</event>
<event>
 7    1  0.6255318E-006  0.4141531E+02  0.7818608E-02  0.1520028E+00
          2   -1    0    0  502    0  0.00000000000E+00  0.00000000000E+00  0.49845810684E+03  0.49845810684E+03  0.00000000000E+00 0. -1.
          1   -1    0    0  501    0 -0.00000000000E+00 -0.00000000000E+00 -0.10751868946E+04  0.10751868946E+04  0.00000000000E+00 0. -1.
         25    2    1    2    0    0  0.27116494264E+02  0.42947902748E+02 -0.53644683935E+03  0.55315486483E+03  0.12500106568E+03 0.  0.
          2    1    1    2  501    0 -0.40571528223E+02 -0.99068936623E+01 -0.52891258380E+03  0.53055887208E+03  0.00000000000E+00 0. -1.
          1    1    1    2  502    0  0.13455033959E+02 -0.33041009085E+02  0.48863063534E+03  0.48993126458E+03  0.00000000000E+00 0. -1.
         22    1    3    3    0    0 -0.14986347806E+02 -0.19979409244E+02 -0.22358968048E+02  0.33521498571E+02  0.00000000000E+00 0. -1.
         22    1    3    3    0    0  0.42102842070E+02  0.62927311992E+02 -0.51408787131E+03  0.51963336626E+03  0.00000000000E+00 0. -1.
</event>
<event>
 7    1  0.6255318E-006  0.1259830E+03  0.7818608E-02  0.1284886E+00
          2   -1    0    0  502    0  0.00000000000E+00  0.00000000000E+00  0.14017805709E+04  0.14017805709E+04  0.00000000000E+00 0. -1.
          1   -1    0    0  501    0 -0.00000000000E+00 -0.00000000000E+00 -0.15786868238E+03  0.15786868238E+03  0.00000000000E+00 0. -1.
         25    2    1    2    0    0 -0.74935367326E+02 -0.28324709259E+02  0.78405534168E+03  0.79798910714E+03  0.12500495139E+03 0.  0.
          2    1    1    2  501    0  0.12469502546E+03 -0.29116821082E+02 -0.12080816685E+03  0.17604332371E+03  0.00000000000E+00 0. -1.
          1    1    1    2  502    0 -0.49759658138E+02  0.57441530340E+02  0.58066471372E+03  0.58561682246E+03  0.00000000000E+00 0. -1.
         22    1    3    3    0    0 -0.53018783903E+02 -0.54710202678E+02  0.73003181734E+03  0.73399635697E+03  0.00000000000E+00 0. -1.
         22    1    3    3    0    0 -0.21916583423E+02  0.26385493420E+02  0.54023524341E+02  0.63992750169E+02  0.00000000000E+00 0. -1.
</event>
<event>
 7    1  0.6255318E-006  0.1559812E+03  0.7818608E-02  0.1251403E+00
          2   -1    0    0  502    0  0.00000000000E+00  0.00000000000E+00  0.30767270632E+03  0.30767270632E+03  0.00000000000E+00 0. -1.
          1   -1    0    0  501    0 -0.00000000000E+00 -0.00000000000E+00 -0.78085051737E+03  0.78085051737E+03  0.00000000000E+00 0. -1.
         25    2    1    2    0    0  0.88639458876E+02  0.69339538371E+02  0.94920587292E+02  0.19313196495E+03  0.12500045097E+03 0.  0.
          2    1    1    2  501    0 -0.15823136518E+03 -0.20644271225E+02 -0.71125406770E+03  0.72893463334E+03  0.00000000000E+00 0. -1.
          1    1    1    2  502    0  0.69591906302E+02 -0.48695267146E+02  0.14315566936E+03  0.16645662539E+03  0.00000000000E+00 0. -1.
         22    1    3    3    0    0 -0.23900396533E+02  0.96751485990E+01  0.53160441356E+02  0.59083584691E+02  0.00000000000E+00 0.  1.
         22    1    3    3    0    0  0.11253985541E+03  0.59664389772E+02  0.41760145936E+02  0.13404838026E+03  0.00000000000E+00 0.  1.
</event>
<event>
 7    1  0.6255318E-006  0.1300646E+03  0.7818608E-02  0.1243887E+00
          2   -1    0    0  502    0  0.00000000000E+00  0.00000000000E+00  0.25365520246E+04  0.25365520246E+04  0.00000000000E+00 0. -1.
          1   -1    0    0  501    0 -0.00000000000E+00 -0.00000000000E+00 -0.47910217940E+03  0.47910217940E+03  0.00000000000E+00 0. -1.
         25    2    1    2    0    0  0.58612327021E+02  0.13889009766E+02  0.50555936220E+03  0.52425602781E+03  0.12500321802E+03 0.  0.
          2    1    1    2  501    0  0.87379210595E+02 -0.66546577378E+02 -0.46030448046E+03  0.47322699430E+03  0.00000000000E+00 0. -1.
          1    1    1    2  502    0 -0.14599153762E+03  0.52657567612E+02  0.20121949634E+04  0.20181711819E+04  0.00000000000E+00 0. -1.
         22    1    3    3    0    0  0.82975355013E+02  0.36930101411E+02  0.45223234472E+03  0.46126221994E+03  0.00000000000E+00 0. -1.
         22    1    3    3    0    0 -0.24363027992E+02 -0.23041091644E+02  0.53327017478E+02  0.62993807872E+02  0.00000000000E+00 0. -1.
</event>
<event>
 7    1  0.6255318E-006  0.2051434E+03  0.7818608E-02  0.1263005E+00
          2   -1    0    0  502    0  0.00000000000E+00  0.00000000000E+00  0.16460631466E+04  0.16460631466E+04  0.00000000000E+00 0. -1.
          1   -1    0    0  501    0 -0.00000000000E+00 -0.00000000000E+00 -0.12459622618E+03  0.12459622618E+03  0.00000000000E+00 0. -1.
         25    2    1    2    0    0 -0.14379592166E+03  0.18573679466E+03  0.43198555923E+03  0.50735721309E+03  0.12499757725E+03 0.  0.
          2    1    1    2  501    0  0.86600147969E+02 -0.17898820113E+03  0.28629411171E+02  0.20088804085E+03  0.00000000000E+00 0. -1.
          1    1    1    2  502    0  0.57195773691E+02 -0.67485935330E+01  0.10608519500E+04  0.10624141188E+04  0.00000000000E+00 0. -1.
         22    1    3    3    0    0 -0.40631576106E+02  0.50045941729E+02  0.24929962236E+03  0.25749917081E+03  0.00000000000E+00 0.  1.
         22    1    3    3    0    0 -0.10316434555E+03  0.13569085293E+03  0.18268593687E+03  0.24985804228E+03  0.00000000000E+00 0.  1.
</event>
<event>
 7    1  0.6255318E-006  0.7552814E+02  0.7818608E-02  0.1458650E+00
          2   -1    0    0  502    0  0.00000000000E+00  0.00000000000E+00  0.31110480200E+04  0.31110480200E+04  0.00000000000E+00 0. -1.
          1   -1    0    0  501    0 -0.00000000000E+00 -0.00000000000E+00 -0.88524777788E+03  0.88524777788E+03  0.00000000000E+00 0. -1.
         25    2    1    2    0    0  0.15701374218E+02 -0.48595809699E+02  0.69777999369E+03  0.71072576635E+03  0.12500443787E+03 0.  0.
          2    1    1    2  501    0 -0.76983771677E+01 -0.29013100278E+02 -0.87788601753E+03  0.87839904643E+03  0.00000000000E+00 0. -1.
          1    1    1    2  502    0 -0.80029970502E+01  0.77608909978E+02  0.24059062660E+04  0.24071709851E+04  0.00000000000E+00 0. -1.
         22    1    3    3    0    0  0.56711915419E+02 -0.11015915027E+02  0.54646949516E+03  0.54951478676E+03  0.00000000000E+00 0. -1.
         22    1    3    3    0    0 -0.41010541201E+02 -0.37579894672E+02  0.15131049853E+03  0.16121097959E+03  0.00000000000E+00 0. -1.
</event>
<event>
 7    1  0.6255318E-006  0.6082777E+02  0.7818608E-02  0.1489783E+00
          2   -1    0    0  502    0  0.00000000000E+00  0.00000000000E+00  0.79080236692E+03  0.79080236692E+03  0.00000000000E+00 0. -1.
          1   -1    0    0  501    0 -0.00000000000E+00 -0.00000000000E+00 -0.73100334546E+02  0.73100334546E+02  0.00000000000E+00 0. -1.
         25    2    1    2    0    0 -0.75051948266E+02 -0.82076392799E+01  0.19134439405E+03  0.24070274511E+03  0.12499989636E+03 0.  0.
          2    1    1    2  501    0  0.52914156330E+02  0.28245826488E+02 -0.29290005936E+02  0.66750573794E+02  0.00000000000E+00 0. -1.
          1    1    1    2  502    0  0.22137791936E+02 -0.20038187208E+02  0.55564764426E+03  0.55644938256E+03  0.00000000000E+00 0. -1.
         22    1    3    3    0    0 -0.13973284470E+02  0.55457431474E+02  0.86201863016E+02  0.10344825070E+03  0.00000000000E+00 0. -1.
         22    1    3    3    0    0 -0.61078663796E+02 -0.63665070754E+02  0.10514253103E+03  0.13725449441E+03  0.00000000000E+00 0. -1.
</event>
<event>
 7    1  0.6255318E-006  0.1108114E+03  0.7818608E-02  0.1360496E+00
          2   -1    0    0  502    0  0.00000000000E+00  0.00000000000E+00  0.69476191740E+03  0.69476191740E+03  0.00000000000E+00 0. -1.
          1   -1    0    0  501    0 -0.00000000000E+00 -0.00000000000E+00 -0.35843222692E+03  0.35843222692E+03  0.00000000000E+00 0. -1.
         25    2    1    2    0    0 -0.74306290791E+02  0.63922857721E+02  0.22071784707E+02  0.16037356950E+03  0.12499984609E+03 0.  0.
          2    1    1    2  501    0  0.50769923297E+02 -0.10118124820E+03 -0.27735524576E+03  0.29956829347E+03  0.00000000000E+00 0. -1.
          1    1    1    2  502    0  0.23536367494E+02  0.37258390481E+02  0.59161315154E+03  0.59325228136E+03  0.00000000000E+00 0. -1.
         22    1    3    3    0    0 -0.36733594604E+02 -0.36400444870E+02  0.65864936721E+01  0.52131864135E+02  0.00000000000E+00 0. -1.
         22    1    3    3    0    0 -0.37572696187E+02  0.10032330259E+03  0.15485291035E+02  0.10824170536E+03  0.00000000000E+00 0. -1.
</event>
<event>
 7    1  0.6255318E-006  0.6590967E+02  0.7818608E-02  0.1386547E+00
          2   -1    0    0  502    0  0.00000000000E+00  0.00000000000E+00  0.64726259666E+03  0.64726259666E+03  0.00000000000E+00 0. -1.
          1   -1    0    0  501    0 -0.00000000000E+00 -0.00000000000E+00 -0.34150553661E+03  0.34150553661E+03  0.00000000000E+00 0. -1.
         25    2    1    2    0    0 -0.10816890014E+03  0.49629227728E+02  0.30341210520E+02  0.17524064853E+03  0.12500049856E+03 0.  0.
          2    1    1    2  501    0  0.63269262144E+02 -0.10151519041E+02 -0.26356408295E+03  0.27124173479E+03  0.00000000000E+00 0. -1.
          1    1    1    2  502    0  0.44899637993E+02 -0.39477708687E+02  0.53897993248E+03  0.54228574995E+03  0.00000000000E+00 0. -1.
         22    1    3    3    0    0 -0.11356152462E+03  0.56599823912E+02  0.62822202101E+02  0.14158527119E+03  0.00000000000E+00 0.  1.
         22    1    3    3    0    0  0.53926244819E+01 -0.69705961841E+01 -0.32480991581E+02  0.33655377342E+02  0.00000000000E+00 0.  1.
</event>
<event>
 7    1  0.6255318E-006  0.5683925E+02  0.7818608E-02  0.1446978E+00
          2   -1    0    0  502    0  0.00000000000E+00  0.00000000000E+00  0.50884061303E+02  0.50884061303E+02  0.00000000000E+00 0. -1.
          1   -1    0    0  501    0 -0.00000000000E+00 -0.00000000000E+00 -0.10126714530E+04  0.10126714530E+04  0.00000000000E+00 0. -1.
         25    2    1    2    0    0  0.56181406452E+02  0.70305091018E+02 -0.19308084152E+03  0.24700687879E+03  0.12503211809E+03 0.  0.
          2    1    1    2  501    0 -0.16131935508E+02 -0.53444934494E+02 -0.77101518092E+03  0.77303364065E+03  0.00000000000E+00 0. -1.
          1    1    1    2  502    0 -0.40049470944E+02 -0.16860156524E+02  0.23086307554E+01  0.43514994851E+02  0.00000000000E+00 0. -1.
         22    1    3    3    0    0 -0.15979659045E+01 -0.17507913396E+02  0.86035571368E+01  0.19572984492E+02  0.00000000000E+00 0.  1.
         22    1    3    3    0    0  0.57779372357E+02  0.87813004414E+02 -0.20168439865E+03  0.22743389430E+03  0.00000000000E+00 0.  1.
</event>
<event>
 7    1  0.6255318E-006  0.9105824E+02  0.7818608E-02  0.1454910E+00
          2   -1    0    0  502    0  0.00000000000E+00  0.00000000000E+00  0.72871692567E+03  0.72871692567E+03  0.00000000000E+00 0. -1.
          1   -1    0    0  501    0 -0.00000000000E+00 -0.00000000000E+00 -0.18174001298E+04  0.18174001298E+04  0.00000000000E+00 0. -1.
         25    2    1    2    0    0 -0.60021634779E+02 -0.71568704761E+02 -0.33774026230E+03  0.37204603910E+03  0.12500037717E+03 0.  0.
          2    1    1    2  501    0  0.75432767780E+02  0.51143943090E+02 -0.14608564941E+04  0.14636965197E+04  0.00000000000E+00 0. -1.
          1    1    1    2  502    0 -0.15411133002E+02  0.20424761671E+02  0.70991355224E+03  0.71037449670E+03  0.00000000000E+00 0. -1.
         22    1    3    3    0    0 -0.23307244572E+02 -0.74335185739E+02 -0.79909260187E+02  0.11159945050E+03  0.00000000000E+00 0.  1.
         22    1    3    3    0    0 -0.36714390207E+02  0.27664809783E+01 -0.25783100211E+03  0.26044658860E+03  0.00000000000E+00 0.  1.
</event>
<event>
 7    1  0.6255318E-006  0.3707745E+02  0.7818608E-02  0.1543433E+00
          2   -1    0    0  502    0  0.00000000000E+00  0.00000000000E+00  0.38663504560E+03  0.38663504560E+03  0.00000000000E+00 0. -1.
          1   -1    0    0  501    0 -0.00000000000E+00 -0.00000000000E+00 -0.25529402691E+03  0.25529402691E+03  0.00000000000E+00 0. -1.
         25    2    1    2    0    0  0.33328028423E+02  0.36372639260E+02  0.14023466492E+03  0.19422518855E+03  0.12499574495E+03 0.  0.
          2    1    1    2  501    0 -0.37010849653E+02 -0.24118826935E+01 -0.22544463712E+03  0.22847517277E+03  0.00000000000E+00 0. -1.
          1    1    1    2  502    0  0.36828212297E+01 -0.33960756567E+02  0.21655099087E+03  0.21922871118E+03  0.00000000000E+00 0. -1.
         22    1    3    3    0    0  0.64557058000E+02  0.55705933359E+02  0.55144720574E+02  0.10154656546E+03  0.00000000000E+00 0. -1.
         22    1    3    3    0    0 -0.31229029577E+02 -0.19333294099E+02  0.85089944349E+02  0.92678623092E+02  0.00000000000E+00 0. -1.
</event>
<event>
 7    1  0.6255318E-006  0.8524674E+02  0.7818608E-02  0.1340569E+00
          2   -1    0    0  502    0  0.00000000000E+00  0.00000000000E+00  0.18822356489E+04  0.18822356489E+04  0.00000000000E+00 0. -1.
          1   -1    0    0  501    0 -0.00000000000E+00 -0.00000000000E+00 -0.70597137438E+02  0.70597137438E+02  0.00000000000E+00 0. -1.
         25    2    1    2    0    0 -0.13849937912E+03 -0.14716110491E+02  0.27929977211E+03  0.33619463447E+03  0.12497930877E+03 0.  0.
          2    1    1    2  501    0  0.63957311204E+02 -0.22779378177E+02 -0.12934314343E+02  0.69113921999E+02  0.00000000000E+00 0. -1.
          1    1    1    2  502    0  0.74542067918E+02  0.37495488668E+02  0.15452730537E+04  0.15475242299E+04  0.00000000000E+00 0. -1.
         22    1    3    3    0    0 -0.10547189586E+03 -0.31330524249E+02  0.86708034859E+02  0.14008642288E+03  0.00000000000E+00 0.  1.
         22    1    3    3    0    0 -0.33027483260E+02  0.16614413758E+02  0.19259173725E+03  0.19610821158E+03  0.00000000000E+00 0.  1.
</event>
<event>
 7    1  0.6255318E-006  0.4421630E+02  0.7818608E-02  0.1524468E+00
          2   -1    0    0  502    0  0.00000000000E+00  0.00000000000E+00  0.60875581080E+02  0.60875581080E+02  0.00000000000E+00 0. -1.
          1   -1    0    0  501    0 -0.00000000000E+00 -0.00000000000E+00 -0.79984321200E+03  0.79984321200E+03  0.00000000000E+00 0. -1.
         25    2    1    2    0    0 -0.31077248868E+02  0.63554287310E+02 -0.52605244521E+03  0.54530767108E+03  0.12499735278E+03 0.  0.
          2    1    1    2  501    0  0.24455261536E+02 -0.31796461114E+02 -0.25731475395E+03  0.26042265139E+03  0.00000000000E+00 0. -1.
          1    1    1    2  502    0  0.66219873322E+01 -0.31757826196E+02  0.44399568232E+02  0.54988470611E+02  0.00000000000E+00 0. -1.
         22    1    3    3    0    0  0.43323030485E+02  0.42959009710E+02 -0.30822006751E+03  0.31420052753E+03  0.00000000000E+00 0. -1.
         22    1    3    3    0    0 -0.74400279353E+02  0.20595277600E+02 -0.21783237769E+03  0.23110714355E+03  0.00000000000E+00 0. -1.
</event>
<event>
 7    1  0.6255318E-006  0.6857236E+02  0.7818608E-02  0.1498970E+00
          2   -1    0    0  502    0  0.00000000000E+00  0.00000000000E+00  0.27563085676E+02  0.27563085676E+02  0.00000000000E+00 0. -1.
          1   -1    0    0  501    0 -0.00000000000E+00 -0.00000000000E+00 -0.23694053544E+04  0.23694053544E+04  0.00000000000E+00 0. -1.
         25    2    1    2    0    0  0.45651430746E+02 -0.45961729009E+00 -0.34490636810E+03  0.36968249164E+03  0.12498190865E+03 0.  0.
          2    1    1    2  501    0 -0.69198727992E+02  0.84155969135E+01 -0.20009024857E+04  0.20021163911E+04  0.00000000000E+00 0. -1.
          1    1    1    2  502    0  0.23547297246E+02 -0.79559796234E+01  0.39665850807E+01  0.25169557337E+02  0.00000000000E+00 0. -1.
         22    1    3    3    0    0 -0.34308448832E+02  0.77953640387E+01 -0.20773119809E+03  0.21068955366E+03  0.00000000000E+00 0. -1.
         22    1    3    3    0    0  0.79959879578E+02 -0.82549813288E+01 -0.13717517001E+03  0.15899293798E+03  0.00000000000E+00 0. -1.
</event>
<event>
 7    1  0.6255318E-006  0.4907918E+02  0.7818608E-02  0.1490844E+00
          2   -1    0    0  502    0  0.00000000000E+00  0.00000000000E+00  0.18787307592E+03  0.18787307592E+03  0.00000000000E+00 0. -1.
          1   -1    0    0  501    0 -0.00000000000E+00 -0.00000000000E+00 -0.52696963056E+03  0.52696963056E+03  0.00000000000E+00 0. -1.
         25    2    1    2    0    0 -0.32123980419E+02 -0.31413706533E+02 -0.37181421353E+03  0.39482837939E+03  0.12499947488E+03 0.  0.
          2    1    1    2  501    0  0.32120877367E+02 -0.17825169738E+02 -0.13775710593E+03  0.14257106184E+03  0.00000000000E+00 0. -1.
          1    1    1    2  502    0  0.31030518528E-02  0.49238876271E+02  0.17047476481E+03  0.17744326525E+03  0.00000000000E+00 0. -1.
         22    1    3    3    0    0  0.56387119598E+00  0.27023030369E+02 -0.27941330103E+03  0.28071757143E+03  0.00000000000E+00 0.  1.
         22    1    3    3    0    0 -0.32687851614E+02 -0.58436736902E+02 -0.92400912500E+02  0.11411080796E+03  0.00000000000E+00 0.  1.
</event>
<event>
 7    1  0.6255318E-006  0.1109123E+03  0.7818608E-02  0.1364588E+00
          2   -1    0    0  502    0  0.00000000000E+00  0.00000000000E+00  0.56862585097E+03  0.56862585097E+03  0.00000000000E+00 0. -1.
          1   -1    0    0  501    0 -0.00000000000E+00 -0.00000000000E+00 -0.11151603583E+03  0.11151603583E+03  0.00000000000E+00 0. -1.
         25    2    1    2    0    0  0.63306340554E+02 -0.69688758109E+02  0.41498268199E+02  0.16189753954E+03  0.12499796513E+03 0.  0.
          2    1    1    2  501    0 -0.57012193228E+02  0.11176765506E+03  0.28323066893E+02  0.12862579451E+03  0.00000000000E+00 0. -1.
          1    1    1    2  502    0 -0.62941473263E+01 -0.42078896954E+02  0.38728848005E+03  0.38961855274E+03  0.00000000000E+00 0. -1.
         22    1    3    3    0    0  0.38419396405E+02 -0.13691617180E+02  0.79810406560E+02  0.89628184163E+02  0.00000000000E+00 0. -1.
         22    1    3    3    0    0  0.24886944149E+02 -0.55997140930E+02 -0.38312138361E+02  0.72269355381E+02  0.00000000000E+00 0. -1.
</event>
<event>
 7    1  0.6255318E-006  0.5776972E+02  0.7818608E-02  0.1437406E+00
          2   -1    0    0  502    0  0.00000000000E+00  0.00000000000E+00  0.64160727020E+02  0.64160727020E+02  0.00000000000E+00 0. -1.
          1   -1    0    0  501    0 -0.00000000000E+00 -0.00000000000E+00 -0.33866167050E+03  0.33866167050E+03  0.00000000000E+00 0. -1.
         25    2    1    2    0    0 -0.49074664518E+02 -0.85113640203E+02 -0.15765837830E+03  0.22390633044E+03  0.12500090447E+03 0.  0.
          2    1    1    2  501    0  0.22891397845E+02  0.39800448552E+02 -0.11794899078E+03  0.12657036077E+03  0.00000000000E+00 0. -1.
          1    1    1    2  502    0  0.26183266673E+02  0.45313191652E+02  0.11064255928E+01  0.52345706308E+02  0.00000000000E+00 0. -1.
         22    1    3    3    0    0 -0.39287876924E+02 -0.92811451788E+02 -0.17536314703E+03  0.20226155392E+03  0.00000000000E+00 0. -1.
         22    1    3    3    0    0 -0.97867875940E+01  0.76978115846E+01  0.17704768739E+02  0.21644776522E+02  0.00000000000E+00 0. -1.
</event>
<event>
 7    1  0.6255318E-006  0.1561522E+03  0.7818608E-02  0.1249727E+00
          2   -1    0    0  502    0  0.00000000000E+00  0.00000000000E+00  0.95731002499E+02  0.95731002499E+02  0.00000000000E+00 0. -1.
          1   -1    0    0  501    0 -0.00000000000E+00 -0.00000000000E+00 -0.15384914760E+04  0.15384914760E+04  0.00000000000E+00 0. -1.
         25    2    1    2    0    0 -0.67391894182E+02  0.10147477902E+03 -0.31123171504E+03  0.35683209261E+03  0.12500065476E+03 0.  0.
          2    1    1    2  501    0  0.52725704489E+02  0.68288031266E+02 -0.11008865570E+04  0.11042619556E+04  0.00000000000E+00 0. -1.
          1    1    1    2  502    0  0.14666189694E+02 -0.16976281029E+03 -0.30642201466E+02  0.17312843033E+03  0.00000000000E+00 0. -1.
         22    1    3    3    0    0 -0.27254769762E+00 -0.19688427192E+02 -0.43868614868E+01  0.20173076147E+02  0.00000000000E+00 0.  1.
         22    1    3    3    0    0 -0.67119346485E+02  0.12116320622E+03 -0.30684485356E+03  0.33665901647E+03  0.00000000000E+00 0.  1.
</event>
<event>
 7    1  0.6255318E-006  0.6298844E+02  0.7818608E-02  0.1390942E+00
          2   -1    0    0  502    0  0.00000000000E+00  0.00000000000E+00  0.78894378449E+03  0.78894378449E+03  0.00000000000E+00 0. -1.
          1   -1    0    0  501    0 -0.00000000000E+00 -0.00000000000E+00 -0.58956830781E+03  0.58956830781E+03  0.00000000000E+00 0. -1.
         25    2    1    2    0    0 -0.45413869990E+02 -0.10272068577E+03 -0.30273465726E+02  0.17075164373E+03  0.12500272893E+03 0.  0.
          2    1    1    2  501    0 -0.48547834321E+00  0.60382922962E+02 -0.48582671141E+03  0.48956503816E+03  0.00000000000E+00 0. -1.
          1    1    1    2  502    0  0.45899348333E+02  0.42337762804E+02  0.71547565381E+03  0.71819541040E+03  0.00000000000E+00 0. -1.
         22    1    3    3    0    0 -0.25842950782E+02 -0.68445828402E+01 -0.62297532783E+02  0.67791511344E+02  0.00000000000E+00 0.  1.
         22    1    3    3    0    0 -0.19570919207E+02 -0.95876102927E+02  0.32024067057E+02  0.10296013239E+03  0.00000000000E+00 0.  1.
</event>
<event>
 7    1  0.6255318E-006  0.5322359E+02  0.7818608E-02  0.1515444E+00
          2   -1    0    0  502    0  0.00000000000E+00  0.00000000000E+00  0.16853576454E+03  0.16853576454E+03  0.00000000000E+00 0. -1.
          1   -1    0    0  501    0 -0.00000000000E+00 -0.00000000000E+00 -0.95826454500E+03  0.95826454500E+03  0.00000000000E+00 0. -1.
         25    2    1    2    0    0  0.13259201274E+02  0.69354157925E+02 -0.57582626410E+03  0.59345349740E+03  0.12500144603E+03 0.  0.
          2    1    1    2  501    0  0.77263431392E+01 -0.49883167042E+02 -0.37061718491E+03  0.37403893444E+03  0.00000000000E+00 0. -1.
          1    1    1    2  502    0 -0.20985544413E+02 -0.19470990883E+02  0.15671466854E+03  0.15930787770E+03  0.00000000000E+00 0. -1.
         22    1    3    3    0    0  0.55800929023E+02  0.68052927557E+02 -0.48783073430E+03  0.49570532573E+03  0.00000000000E+00 0. -1.
         22    1    3    3    0    0 -0.42541727749E+02  0.13012303680E+01 -0.87995529797E+02  0.97748171669E+02  0.00000000000E+00 0. -1.
</event>
<event>
 7    1  0.6255318E-006  0.8094501E+02  0.7818608E-02  0.1383139E+00
          2   -1    0    0  502    0  0.00000000000E+00  0.00000000000E+00  0.73545588579E+02  0.73545588579E+02  0.00000000000E+00 0. -1.
          1   -1    0    0  501    0 -0.00000000000E+00 -0.00000000000E+00 -0.33468190973E+03  0.33468190973E+03  0.00000000000E+00 0. -1.
         25    2    1    2    0    0 -0.48977381391E+01 -0.86929629394E+02 -0.74045858615E+02  0.16937579531E+03  0.12499849020E+03 0.  0.
          2    1    1    2  501    0 -0.45395688474E+02  0.21062237479E+02 -0.12694609613E+03  0.13645401314E+03  0.00000000000E+00 0. -1.
          1    1    1    2  502    0  0.50293426613E+02  0.65867391915E+02 -0.60144366402E+02  0.10239768986E+03  0.00000000000E+00 0. -1.
         22    1    3    3    0    0  0.49149688486E+02 -0.71059454296E+02 -0.14860541885E+02  0.87669684773E+02  0.00000000000E+00 0.  1.
         22    1    3    3    0    0 -0.54047426625E+02 -0.15870175098E+02 -0.59185316730E+02  0.81706110535E+02  0.00000000000E+00 0.  1.
</event>
<event>
 7    1  0.6255318E-006  0.9064976E+02  0.7818608E-02  0.1389308E+00
          2   -1    0    0  502    0  0.00000000000E+00  0.00000000000E+00  0.13032053120E+04  0.13032053120E+04  0.00000000000E+00 0. -1.
          1   -1    0    0  501    0 -0.00000000000E+00 -0.00000000000E+00 -0.84104356487E+02  0.84104356487E+02  0.00000000000E+00 0. -1.
         25    2    1    2    0    0 -0.71729509459E+02 -0.10228813415E+03  0.34160216361E+03  0.38460921091E+03  0.12499688802E+03 0.  0.
          2    1    1    2  501    0  0.85570623264E+01  0.41643109484E+02 -0.53082314081E+02  0.68008116805E+02  0.00000000000E+00 0. -1.
          1    1    1    2  502    0  0.63172447132E+02  0.60645024666E+02  0.93058110594E+03  0.93469234073E+03  0.00000000000E+00 0. -1.
         22    1    3    3    0    0  0.22833712280E+02 -0.54937375657E+02  0.19478716061E+03  0.20367015393E+03  0.00000000000E+00 0.  1.
         22    1    3    3    0    0 -0.94563221739E+02 -0.47350758493E+02  0.14681500300E+03  0.18093905698E+03  0.00000000000E+00 0.  1.
</event>
<event>
 7    1  0.6255318E-006  0.6466411E+02  0.7818608E-02  0.1519857E+00
          2   -1    0    0  502    0  0.00000000000E+00  0.00000000000E+00  0.66030768552E+03  0.66030768552E+03  0.00000000000E+00 0. -1.
          1   -1    0    0  501    0 -0.00000000000E+00 -0.00000000000E+00 -0.10873767725E+04  0.10873767725E+04  0.00000000000E+00 0. -1.
         25    2    1    2    0    0 -0.41923813057E+02 -0.76057612698E+02  0.52373953733E+02  0.16096574350E+03  0.12499829199E+03 0.  0.
          2    1    1    2  501    0  0.27521105267E+02  0.58285828986E+02 -0.10318385254E+04  0.10338497916E+04  0.00000000000E+00 0. -1.
          1    1    1    2  502    0  0.14402707790E+02  0.17771783712E+02  0.55239548475E+03  0.55286892285E+03  0.00000000000E+00 0. -1.
         22    1    3    3    0    0 -0.81914623332E+02 -0.39788535697E+02  0.55913394402E+02  0.10686178345E+03  0.00000000000E+00 0. -1.
         22    1    3    3    0    0  0.39990810275E+02 -0.36269077001E+02 -0.35394406698E+01  0.54103960051E+02  0.00000000000E+00 0. -1.
</event>
<event>
 7    1  0.6255318E-006  0.8234796E+02  0.7818608E-02  0.1407590E+00
          2   -1    0    0  502    0  0.00000000000E+00  0.00000000000E+00  0.69939504741E+03  0.69939504741E+03  0.00000000000E+00 0. -1.
          1   -1    0    0  501    0 -0.00000000000E+00 -0.00000000000E+00 -0.35039565186E+03  0.35039565186E+03  0.00000000000E+00 0. -1.
         25    2    1    2    0    0 -0.75205170794E+02  0.87415574752E+02  0.15610499618E+03  0.23084824842E+03  0.12499937418E+03 0.  0.
          2    1    1    2  501    0  0.36372093957E+02 -0.17764821323E+02 -0.30855144650E+03  0.31119529758E+03  0.00000000000E+00 0. -1.
          1    1    1    2  502    0  0.38833076836E+02 -0.69650753428E+02  0.50144584587E+03  0.50774715327E+03  0.00000000000E+00 0. -1.
         22    1    3    3    0    0 -0.31309214646E+01  0.68745866784E+02  0.13718718483E+02  0.70171219926E+02  0.00000000000E+00 0. -1.
         22    1    3    3    0    0 -0.72074249329E+02  0.18669707968E+02  0.14238627769E+03  0.16067702850E+03  0.00000000000E+00 0. -1.
</event>
<event>
 7    1  0.6255318E-006  0.1231418E+03  0.7818608E-02  0.1357492E+00
          2   -1    0    0  502    0  0.00000000000E+00  0.00000000000E+00  0.26462256919E+03  0.26462256919E+03  0.00000000000E+00 0. -1.
          1   -1    0    0  501    0 -0.00000000000E+00 -0.00000000000E+00 -0.22967203804E+03  0.22967203804E+03  0.00000000000E+00 0. -1.
         25    2    1    2    0    0  0.35797419448E+02  0.13910615160E+03 -0.24700716568E+02  0.19201199556E+03  0.12500601741E+03 0.  0.
          2    1    1    2  501    0 -0.55066265090E+02 -0.10328786547E+03 -0.89715557186E+02  0.14747731319E+03  0.00000000000E+00 0. -1.
          1    1    1    2  502    0  0.19268845642E+02 -0.35818286133E+02  0.14936680490E+03  0.15480529849E+03  0.00000000000E+00 0. -1.
         22    1    3    3    0    0  0.91661802855E+01  0.54817485595E+02  0.51150401979E+02  0.75533695862E+02  0.00000000000E+00 0. -1.
         22    1    3    3    0    0  0.26631239162E+02  0.84288666004E+02 -0.75851118547E+02  0.11647829970E+03  0.00000000000E+00 0. -1.
</event>
<event>
 7    1  0.6255318E-006  0.9941412E+02  0.7818608E-02  0.1296350E+00
          2   -1    0    0  502    0  0.00000000000E+00  0.00000000000E+00  0.18942431843E+03  0.18942431843E+03  0.00000000000E+00 0. -1.
          1   -1    0    0  501    0 -0.00000000000E+00 -0.00000000000E+00 -0.71198064583E+03  0.71198064583E+03  0.00000000000E+00 0. -1.
         25    2    1    2    0    0  0.93022001908E+02 -0.70528017684E+02 -0.72071100282E+02  0.18559833851E+03  0.12500082257E+03 0.  0.
          2    1    1    2  501    0 -0.81039354094E+02 -0.30283492719E+02 -0.55990213328E+03  0.56654643737E+03  0.00000000000E+00 0. -1.
          1    1    1    2  502    0 -0.11982647815E+02  0.10081151040E+03  0.10941690617E+03  0.14926018837E+03  0.00000000000E+00 0. -1.
         22    1    3    3    0    0  0.68062118546E+02 -0.10087884707E+03 -0.79835386297E+02  0.14554271769E+03  0.00000000000E+00 0. -1.
         22    1    3    3    0    0  0.24959883363E+02  0.30350829387E+02  0.77642860146E+01  0.40055620820E+02  0.00000000000E+00 0. -1.
</event>
<event>
 7    1  0.6255318E-006  0.6957860E+02  0.7818608E-02  0.1372172E+00
          2   -1    0    0  502    0  0.00000000000E+00  0.00000000000E+00  0.30595361989E+04  0.30595361989E+04  0.00000000000E+00 0. -1.
          1   -1    0    0  501    0 -0.00000000000E+00 -0.00000000000E+00 -0.57058869339E+02  0.57058869339E+02  0.00000000000E+00 0. -1.
         25    2    1    2    0    0 -0.31641848036E+02  0.22856505994E+02  0.79727209878E+03  0.80795502571E+03  0.12499959066E+03 0.  0.
          2    1    1    2  501    0 -0.10798371153E+02 -0.70340204891E+02 -0.26565366202E+02  0.75960963166E+02  0.00000000000E+00 0. -1.
          1    1    1    2  502    0  0.42440219189E+02  0.47483698897E+02  0.22317705970E+04  0.22326790794E+04  0.00000000000E+00 0. -1.
         22    1    3    3    0    0  0.28142184659E+01 -0.49972024698E+02  0.27797263988E+03  0.28244275809E+03  0.00000000000E+00 0.  1.
         22    1    3    3    0    0 -0.34456066502E+02  0.72828530693E+02  0.51929945890E+03  0.52551226762E+03  0.00000000000E+00 0.  1.
</event>
<event>
 7    1  0.6255318E-006  0.7189167E+02  0.7818608E-02  0.1495051E+00
          2   -1    0    0  502    0  0.00000000000E+00  0.00000000000E+00  0.10710481216E+04  0.10710481216E+04  0.00000000000E+00 0. -1.
          1   -1    0    0  501    0 -0.00000000000E+00 -0.00000000000E+00 -0.10157847562E+04  0.10157847562E+04  0.00000000000E+00 0. -1.
         25    2    1    2    0    0  0.80257813061E+02 -0.15343930294E+02  0.97969145241E+03  0.99100806352E+03  0.12499954914E+03 0.  0.
          2    1    1    2  501    0 -0.71502979489E+02 -0.73854425881E+01 -0.10070884063E+04  0.10096505727E+04  0.00000000000E+00 0. -1.
          1    1    1    2  502    0 -0.87548335720E+01  0.22729372882E+02  0.82660319325E+02  0.86174241473E+02  0.00000000000E+00 0. -1.
         22    1    3    3    0    0 -0.44323238420E+00 -0.13084461771E+02  0.69413861936E+03  0.69426207046E+03  0.00000000000E+00 0.  1.
         22    1    3    3    0    0  0.80701045445E+02 -0.22594685229E+01  0.28555283305E+03  0.29674599306E+03  0.00000000000E+00 0.  1.
</event>
<event>
 7    1  0.6255318E-006  0.1467254E+03  0.7818608E-02  0.1379752E+00
          2   -1    0    0  502    0  0.00000000000E+00  0.00000000000E+00  0.22438609680E+04  0.22438609680E+04  0.00000000000E+00 0. -1.
          1   -1    0    0  501    0 -0.00000000000E+00 -0.00000000000E+00 -0.57482710294E+03  0.57482710294E+03  0.00000000000E+00 0. -1.
         25    2    1    2    0    0  0.17941204239E+01  0.17095526468E+03  0.44438782548E+03  0.49228022495E+03  0.12502143439E+03 0.  0.
          2    1    1    2  501    0 -0.78252992395E+01 -0.27279311488E+02 -0.54760116160E+03  0.54833605419E+03  0.00000000000E+00 0. -1.
          1    1    1    2  502    0  0.60311788156E+01 -0.14367595319E+03  0.17722472011E+04  0.17780717917E+04  0.00000000000E+00 0. -1.
         22    1    3    3    0    0  0.19452931697E+02  0.17594373444E+03  0.43870336147E+03  0.47307003034E+03  0.00000000000E+00 0. -1.
         22    1    3    3    0    0 -0.17658811273E+02 -0.49884697596E+01  0.56844640126E+01  0.19210194617E+02  0.00000000000E+00 0. -1.
</event>
<event>
 7    1  0.6255318E-006  0.6675841E+02  0.7818608E-02  0.1403543E+00
          2   -1    0    0  502    0  0.00000000000E+00  0.00000000000E+00  0.58294418869E+03  0.58294418869E+03  0.00000000000E+00 0. -1.
          1   -1    0    0  501    0 -0.00000000000E+00 -0.00000000000E+00 -0.27873571680E+04  0.27873571680E+04  0.00000000000E+00 0. -1.
         25    2    1    2    0    0 -0.10247497967E+03  0.57280369532E+02 -0.10855649721E+02  0.17182969627E+03  0.12500174878E+03 0.  0.
          2    1    1    2  501    0  0.54811092014E+02 -0.37661185074E+02 -0.26942812229E+04  0.26951018401E+04  0.00000000000E+00 0. -1.
          1    1    1    2  502    0  0.47663887654E+02 -0.19619184458E+02  0.50072389333E+03  0.50336982025E+03  0.00000000000E+00 0. -1.
         22    1    3    3    0    0  0.74107222948E+00  0.52140480451E+02  0.30622648471E+02  0.60472518461E+02  0.00000000000E+00 0.  1.
         22    1    3    3    0    0 -0.10321605190E+03  0.51398890815E+01 -0.41478298192E+02  0.11135717781E+03  0.00000000000E+00 0.  1.
</event>
<event>
 7    1  0.6255318E-006  0.7327411E+02  0.7818608E-02  0.1479490E+00
          2   -1    0    0  502    0  0.00000000000E+00  0.00000000000E+00  0.92570115380E+02  0.92570115380E+02  0.00000000000E+00 0. -1.
          1   -1    0    0  501    0 -0.00000000000E+00 -0.00000000000E+00 -0.98954921341E+03  0.98954921341E+03  0.00000000000E+00 0. -1.
         25    2    1    2    0    0  0.11340844206E+02 -0.69371375253E+02 -0.20000816032E+03  0.24610570239E+03  0.12499500031E+03 0.  0.
          2    1    1    2  501    0  0.15145067484E+02  0.72276505148E+02 -0.76208730215E+03  0.76565679150E+03  0.00000000000E+00 0. -1.
          1    1    1    2  502    0 -0.26485911690E+02 -0.29051298946E+01  0.65116364448E+02  0.70356834897E+02  0.00000000000E+00 0. -1.
         22    1    3    3    0    0  0.53757383581E+02 -0.12338646081E+02 -0.32202446434E+02  0.63867801222E+02  0.00000000000E+00 0. -1.
         22    1    3    3    0    0 -0.42416539375E+02 -0.57032729172E+02 -0.16780571389E+03  0.18223790117E+03  0.00000000000E+00 0. -1.
</event>
<event>
 7    1  0.6255318E-006  0.1118410E+03  0.7818608E-02  0.1400174E+00
          2   -1    0    0  502    0  0.00000000000E+00  0.00000000000E+00  0.21849492098E+04  0.21849492098E+04  0.00000000000E+00 0. -1.
          1   -1    0    0  501    0 -0.00000000000E+00 -0.00000000000E+00 -0.13025220895E+04  0.13025220895E+04  0.00000000000E+00 0. -1.
         25    2    1    2    0    0  0.65062910919E+02 -0.51526221946E+02  0.77473797981E+02  0.16887610345E+03  0.12501525914E+03 0.  0.
          2    1    1    2  501    0 -0.95790618174E+02  0.58883766602E+02 -0.12541845898E+04  0.12592148846E+04  0.00000000000E+00 0. -1.
          1    1    1    2  502    0  0.30727707255E+02 -0.73575446552E+01  0.20591379121E+04  0.20593803113E+04  0.00000000000E+00 0. -1.
         22    1    3    3    0    0 -0.65161104887E+01  0.30100701382E+02 -0.66798480477E+01  0.31514001484E+02  0.00000000000E+00 0.  1.
         22    1    3    3    0    0  0.71579021408E+02 -0.81626923328E+02  0.84153646029E+02  0.13736210197E+03  0.00000000000E+00 0.  1.
</event>
<event>
 7    1  0.6255318E-006  0.9456034E+02  0.7818608E-02  0.1405983E+00
          2   -1    0    0  502    0  0.00000000000E+00  0.00000000000E+00  0.17773576486E+04  0.17773576486E+04  0.00000000000E+00 0. -1.
          1   -1    0    0  501    0 -0.00000000000E+00 -0.00000000000E+00 -0.32662310572E+02  0.32662310572E+02  0.00000000000E+00 0. -1.
         25    2    1    2    0    0  0.57769895995E+02  0.31111575431E+02  0.51201125964E+03  0.53111915239E+03  0.12500693189E+03 0.  0.
          2    1    1    2  501    0  0.27180923668E+02  0.23141757993E+02 -0.59342909767E+01  0.36187834749E+02  0.00000000000E+00 0. -1.
          1    1    1    2  502    0 -0.84950819663E+02 -0.54253333423E+02  0.12386183693E+04  0.12427129720E+04  0.00000000000E+00 0. -1.
         22    1    3    3    0    0 -0.28432944052E+02 -0.25317131203E+02  0.13033394342E+03  0.13578043396E+03  0.00000000000E+00 0.  1.
         22    1    3    3    0    0  0.86202840047E+02  0.56428706634E+02  0.38167731623E+03  0.39533871843E+03  0.00000000000E+00 0.  1.
</event>
<event>
 7    1  0.6255318E-006  0.4176424E+02  0.7818608E-02  0.1557400E+00
          2   -1    0    0  502    0  0.00000000000E+00  0.00000000000E+00  0.86413144204E+02  0.86413144204E+02  0.00000000000E+00 0. -1.
          1   -1    0    0  501    0 -0.00000000000E+00 -0.00000000000E+00 -0.39813642539E+03  0.39813642539E+03  0.00000000000E+00 0. -1.
         25    2    1    2    0    0  0.22697478847E+02 -0.13949048986E+02  0.26563727881E+02  0.13053843208E+03  0.12499959639E+03 0.  0.
          2    1    1    2  501    0 -0.13239624184E+02  0.40011767472E+02 -0.31498989133E+03  0.31779688612E+03  0.00000000000E+00 0. -1.
          1    1    1    2  502    0 -0.94578546632E+01 -0.26062718485E+02 -0.23297117740E+02  0.36214251403E+02  0.00000000000E+00 0. -1.
         22    1    3    3    0    0 -0.33062711692E+02 -0.14292612277E+02  0.56685482116E+02  0.67161488614E+02  0.00000000000E+00 0.  1.
         22    1    3    3    0    0  0.55760190539E+02  0.34356329087E+00 -0.30121754235E+02  0.63376943464E+02  0.00000000000E+00 0.  1.
</event>
<event>
 7    1  0.6255318E-006  0.2168561E+03  0.7818608E-02  0.1224785E+00
          2   -1    0    0  502    0  0.00000000000E+00  0.00000000000E+00  0.68126122206E+03  0.68126122206E+03  0.00000000000E+00 0. -1.
          1   -1    0    0  501    0 -0.00000000000E+00 -0.00000000000E+00 -0.20878917944E+04  0.20878917944E+04  0.00000000000E+00 0. -1.
         25    2    1    2    0    0  0.12392926207E+03  0.61158783648E+02 -0.12072153885E+04  0.12215106215E+04  0.12498137971E+03 0.  0.
          2    1    1    2  501    0  0.75379693090E+02  0.27164971435E+02 -0.85397924216E+03  0.85772989912E+03  0.00000000000E+00 0. -1.
          1    1    1    2  502    0 -0.19930895516E+03 -0.88323755084E+02  0.65456405840E+03  0.68991249580E+03  0.00000000000E+00 0. -1.
         22    1    3    3    0    0  0.19101525023E+01  0.55336470548E+02 -0.22428535143E+03  0.23101881421E+03  0.00000000000E+00 0.  1.
         22    1    3    3    0    0  0.12201910956E+03  0.58223131006E+01 -0.98293003712E+03  0.99049180728E+03  0.00000000000E+00 0.  1.
</event>
<event>
 7    1  0.6255318E-006  0.4473667E+02  0.7818608E-02  0.1588105E+00
          2   -1    0    0  502    0  0.00000000000E+00  0.00000000000E+00  0.22639273113E+04  0.22639273113E+04  0.00000000000E+00 0. -1.
          1   -1    0    0  501    0 -0.00000000000E+00 -0.00000000000E+00 -0.52638050803E+02  0.52638050803E+02  0.00000000000E+00 0. -1.
         25    2    1    2    0    0 -0.35237677408E+02 -0.54544539917E+01  0.11249945316E+04  0.11324791522E+04  0.12499955602E+03 0.  0.
          2    1    1    2  501    0  0.42383540348E+02 -0.14690367393E+02 -0.38484721468E+02  0.59103681552E+02  0.00000000000E+00 0. -1.
          1    1    1    2  502    0 -0.71458629394E+01  0.20144821385E+02  0.11247794503E+04  0.11249825284E+04  0.00000000000E+00 0. -1.
         22    1    3    3    0    0 -0.80486839681E+02 -0.16084434681E+02  0.63438516095E+03  0.63967286392E+03  0.00000000000E+00 0. -1.
         22    1    3    3    0    0  0.45249162272E+02  0.10629980689E+02  0.49060937067E+03  0.49280628827E+03  0.00000000000E+00 0. -1.
</event>
<event>
 7    1  0.6255318E-006  0.5541031E+02  0.7818608E-02  0.1520817E+00
          2   -1    0    0  502    0  0.00000000000E+00  0.00000000000E+00  0.52574824982E+03  0.52574824982E+03  0.00000000000E+00 0. -1.
          1   -1    0    0  501    0 -0.00000000000E+00 -0.00000000000E+00 -0.14188128165E+04  0.14188128165E+04  0.00000000000E+00 0. -1.
         25    2    1    2    0    0  0.12025629701E+02  0.34796192936E+02  0.19045836906E+03  0.23076784640E+03  0.12499607104E+03 0.  0.
          2    1    1    2  501    0 -0.37937542663E+02 -0.40464283066E+02 -0.13975488220E+04  0.13986491072E+04  0.00000000000E+00 0. -1.
          1    1    1    2  502    0  0.25911912962E+02  0.56680901296E+01  0.31402588628E+03  0.31514411265E+03  0.00000000000E+00 0. -1.
         22    1    3    3    0    0 -0.84393564419E+01 -0.44603016102E+02  0.45782093140E+02  0.64472101214E+02  0.00000000000E+00 0.  1.
         22    1    3    3    0    0  0.20464986143E+02  0.79399209039E+02  0.14467627592E+03  0.16629574519E+03  0.00000000000E+00 0.  1.
</event>
<event>
 7    1  0.6255318E-006  0.3665571E+02  0.7818608E-02  0.1556549E+00
          2   -1    0    0  502    0  0.00000000000E+00  0.00000000000E+00  0.94782253237E+03  0.94782253237E+03  0.00000000000E+00 0. -1.
          1   -1    0    0  501    0 -0.00000000000E+00 -0.00000000000E+00 -0.13001804570E+04  0.13001804570E+04  0.00000000000E+00 0. -1.
         25    2    1    2    0    0  0.52629585873E+02  0.11234851738E+02  0.76966773372E+02  0.15634694816E+03  0.12499755515E+03 0.  0.
          2    1    1    2  501    0 -0.33734939387E+02  0.14295042534E+02 -0.12599205396E+04  0.12604531567E+04  0.00000000000E+00 0. -1.
          1    1    1    2  502    0 -0.18894646486E+02 -0.25529894272E+02  0.83059584154E+03  0.83120288447E+03  0.00000000000E+00 0. -1.
         22    1    3    3    0    0  0.28052667305E+02  0.59228625494E+02  0.78680403453E+02  0.10239916068E+03  0.00000000000E+00 0. -1.
         22    1    3    3    0    0  0.24576918568E+02 -0.47993773756E+02 -0.17136300811E+01  0.53947787477E+02  0.00000000000E+00 0. -1.
</event>
<event>
 7    1  0.6255318E-006  0.1133160E+03  0.7818608E-02  0.1370189E+00
          2   -1    0    0  502    0  0.00000000000E+00  0.00000000000E+00  0.28687970088E+03  0.28687970088E+03  0.00000000000E+00 0. -1.
          1   -1    0    0  501    0 -0.00000000000E+00 -0.00000000000E+00 -0.13026960036E+04  0.13026960036E+04  0.00000000000E+00 0. -1.
         25    2    1    2    0    0 -0.11467692187E+03 -0.97531088107E+02 -0.13512453324E+03  0.23779695639E+03  0.12500257369E+03 0.  0.
          2    1    1    2  501    0  0.88249350987E+02  0.67837707693E+02 -0.11117589855E+04  0.11173172979E+04  0.00000000000E+00 0. -1.
          1    1    1    2  502    0  0.26427570882E+02  0.29693380414E+02  0.23106721594E+03  0.23446145019E+03  0.00000000000E+00 0. -1.
         22    1    3    3    0    0 -0.17740319143E+02  0.30155950475E+02 -0.18732064405E+02  0.39686150093E+02  0.00000000000E+00 0. -1.
         22    1    3    3    0    0 -0.96936602726E+02 -0.12768703858E+03 -0.11639246884E+03  0.19811080630E+03  0.00000000000E+00 0. -1.
</event>
<event>
 7    1  0.6255318E-006  0.2681852E+02  0.7818608E-02  0.1669405E+00
          2   -1    0    0  502    0  0.00000000000E+00  0.00000000000E+00  0.20040489051E+02  0.20040489051E+02  0.00000000000E+00 0. -1.
          1   -1    0    0  501    0 -0.00000000000E+00 -0.00000000000E+00 -0.20421210637E+04  0.20421210637E+04  0.00000000000E+00 0. -1.
         25    2    1    2    0    0  0.14999393015E+02  0.46278137523E+02 -0.91779722628E+03  0.92754761193E+03  0.12500470397E+03 0.  0.
          2    1    1    2  501    0 -0.50883441650E+01 -0.21654787650E+02 -0.11076364957E+04  0.11078598412E+04  0.00000000000E+00 0. -1.
          1    1    1    2  502    0 -0.99110488496E+01 -0.24623349873E+02  0.33531473817E+01  0.26754099604E+02  0.00000000000E+00 0. -1.
         22    1    3    3    0    0  0.21847904601E+02  0.82592365192E+02 -0.43323526736E+03  0.44157856222E+03  0.00000000000E+00 0.  1.
         22    1    3    3    0    0 -0.68485115868E+01 -0.36314227669E+02 -0.48456195892E+03  0.48596904971E+03  0.00000000000E+00 0.  1.
</event>
<event>
 7    1  0.6255318E-006  0.1279310E+03  0.7818608E-02  0.1370445E+00
          2   -1    0    0  502    0  0.00000000000E+00  0.00000000000E+00  0.75161019116E+03  0.75161019116E+03  0.00000000000E+00 0. -1.
          1   -1    0    0  501    0 -0.00000000000E+00 -0.00000000000E+00 -0.65951472911E+03  0.65951472911E+03  0.00000000000E+00 0. -1.
         25    2    1    2    0    0  0.68250406256E+02  0.14545532557E+03 -0.12890944483E+03  0.24095513525E+03  0.12500545005E+03 0.  0.
          2    1    1    2  501    0 -0.66243944906E+01 -0.34504829384E+02 -0.46812935365E+03  0.46944601138E+03  0.00000000000E+00 0. -1.
          1    1    1    2  502    0 -0.61626011765E+02 -0.11095049619E+03  0.68913426052E+03  0.70072377365E+03  0.00000000000E+00 0. -1.
         22    1    3    3    0    0 -0.70832250848E+01  0.72480310787E+02 -0.11363068244E+03  0.13496480845E+03  0.00000000000E+00 0.  1.
         22    1    3    3    0    0  0.75333631340E+02  0.72975014783E+02 -0.15278762398E+02  0.10599032679E+03  0.00000000000E+00 0.  1.
</event>
<event>
 7    1  0.6255318E-006  0.9608726E+02  0.7818608E-02  0.1364364E+00
          2   -1    0    0  502    0  0.00000000000E+00  0.00000000000E+00  0.10821207622E+04  0.10821207622E+04  0.00000000000E+00 0. -1.
          1   -1    0    0  501    0 -0.00000000000E+00 -0.00000000000E+00 -0.26690719296E+04  0.26690719296E+04  0.00000000000E+00 0. -1.
         25    2    1    2    0    0  0.10669709764E+03 -0.97652988913E+02  0.36143775751E+03  0.40888010497E+03  0.12500124318E+03 0.  0.
          2    1    1    2  501    0 -0.74671555317E+02  0.60298894619E+02 -0.26436104193E+04  0.26453521216E+04  0.00000000000E+00 0. -1.
          1    1    1    2  502    0 -0.32025542326E+02  0.37354094294E+02  0.69522149444E+03  0.69696046520E+03  0.00000000000E+00 0. -1.
         22    1    3    3    0    0  0.46201531298E+02 -0.11827493572E+03  0.22986552405E+03  0.26260559983E+03  0.00000000000E+00 0.  1.
         22    1    3    3    0    0  0.60495566345E+02  0.20621946804E+02  0.13157223346E+03  0.14627450514E+03  0.00000000000E+00 0.  1.
</event>
<event>
 7    1  0.6255318E-006  0.1757138E+03  0.7818608E-02  0.1218230E+00
          2   -1    0    0  502    0  0.00000000000E+00  0.00000000000E+00  0.68041636500E+03  0.68041636500E+03  0.00000000000E+00 0. -1.
          1   -1    0    0  501    0 -0.00000000000E+00 -0.00000000000E+00 -0.39173300596E+03  0.39173300596E+03  0.00000000000E+00 0. -1.
         25    2    1    2    0    0  0.84567269305E+02  0.41009002053E+02  0.78307255604E+02  0.17489921120E+03  0.12499738602E+03 0.  0.
          2    1    1    2  501    0 -0.19045205846E+03 -0.38624089659E+02 -0.31018133126E+03  0.36602768357E+03  0.00000000000E+00 0. -1.
          1    1    1    2  502    0  0.10588478915E+03 -0.23849123945E+01  0.52055743470E+03  0.53122247618E+03  0.00000000000E+00 0. -1.
         22    1    3    3    0    0 -0.45569625485E+00  0.67018897440E+02  0.40301554605E+02  0.78204575165E+02  0.00000000000E+00 0.  1.
         22    1    3    3    0    0  0.85022965560E+02 -0.26009895386E+02  0.38005700999E+02  0.96694636040E+02  0.00000000000E+00 0.  1.
</event>
<event>
 7    1  0.6255318E-006  0.1700573E+03  0.7818608E-02  0.1394590E+00
          2   -1    0    0  502    0  0.00000000000E+00  0.00000000000E+00  0.67389222993E+03  0.67389222993E+03  0.00000000000E+00 0. -1.
          1   -1    0    0  501    0 -0.00000000000E+00 -0.00000000000E+00 -0.80526329639E+03  0.80526329639E+03  0.00000000000E+00 0. -1.
         25    2    1    2    0    0 -0.12904242717E+03 -0.91910608620E+02 -0.74543197131E+02  0.21513477861E+03  0.12500710676E+03 0.  0.
          2    1    1    2  501    0  0.10986639681E+01 -0.21695003630E+02 -0.64811309634E+03  0.64847703574E+03  0.00000000000E+00 0. -1.
          1    1    1    2  502    0  0.12794376320E+03  0.11360561225E+03  0.59128522700E+03  0.61554371197E+03  0.00000000000E+00 0. -1.
         22    1    3    3    0    0 -0.12952341364E+03 -0.55874285278E+02 -0.98332121223E+02  0.17195190171E+03  0.00000000000E+00 0. -1.
         22    1    3    3    0    0  0.48098647214E+00 -0.36036323342E+02  0.23788924092E+02  0.43182876901E+02  0.00000000000E+00 0. -1.
</event>
<event>
 7    1  0.6255318E-006  0.4091120E+02  0.7818608E-02  0.1562168E+00
          2   -1    0    0  502    0  0.00000000000E+00  0.00000000000E+00  0.19515597764E+04  0.19515597764E+04  0.00000000000E+00 0. -1.
          1   -1    0    0  501    0 -0.00000000000E+00 -0.00000000000E+00 -0.63118572693E+03  0.63118572693E+03  0.00000000000E+00 0. -1.
         25    2    1    2    0    0 -0.18568273613E+02 -0.35912585883E+02  0.14886803992E+02  0.13222455607E+03  0.12500888642E+03 0.  0.
          2    1    1    2  501    0  0.37675966717E+02  0.16189329041E+02 -0.57168200585E+03  0.57315084285E+03  0.00000000000E+00 0. -1.
          1    1    1    2  502    0 -0.19107693104E+02  0.19723256842E+02  0.18771692513E+04  0.18773701044E+04  0.00000000000E+00 0. -1.
         22    1    3    3    0    0  0.27756021729E+02 -0.35916645839E+02  0.54743263042E+02  0.71114183108E+02  0.00000000000E+00 0.  1.
         22    1    3    3    0    0 -0.46324295341E+02  0.40599566752E-02 -0.39856459050E+02  0.61110372960E+02  0.00000000000E+00 0.  1.
</event>
<event>
 7    1  0.6255318E-006  0.8551508E+02  0.7818608E-02  0.1488640E+00
          2   -1    0    0  502    0  0.00000000000E+00  0.00000000000E+00  0.18523365445E+03  0.18523365445E+03  0.00000000000E+00 0. -1.
          1   -1    0    0  501    0 -0.00000000000E+00 -0.00000000000E+00 -0.27649450335E+03  0.27649450335E+03  0.00000000000E+00 0. -1.
         25    2    1    2    0    0 -0.93202970444E+02  0.29018564833E+02  0.86325213274E+02  0.18057027149E+03  0.12499883878E+03 0.  0.
          2    1    1    2  501    0  0.84356243372E+02 -0.95221322444E+01 -0.21881279688E+03  0.23470340193E+03  0.00000000000E+00 0. -1.
          1    1    1    2  502    0  0.88467270720E+01 -0.19496432589E+02  0.41226734713E+02  0.46454484377E+02  0.00000000000E+00 0. -1.
         22    1    3    3    0    0 -0.89123010627E+02  0.51343057565E+02  0.12830586716E+02  0.10365155348E+03  0.00000000000E+00 0. -1.
         22    1    3    3    0    0 -0.40799598166E+01 -0.22324492732E+02  0.73494626559E+02  0.76918718013E+02  0.00000000000E+00 0. -1.
</event>
<event>
 7    1  0.6255318E-006  0.4805862E+02  0.7818608E-02  0.1494703E+00
          2   -1    0    0  502    0  0.00000000000E+00  0.00000000000E+00  0.68479344251E+03  0.68479344251E+03  0.00000000000E+00 0. -1.
          1   -1    0    0  501    0 -0.00000000000E+00 -0.00000000000E+00 -0.24223688115E+03  0.24223688115E+03  0.00000000000E+00 0. -1.
         25    2    1    2    0    0  0.65876792725E+02 -0.47421048568E+02 -0.27827362506E+02  0.15160805177E+03  0.12498852584E+03 0.  0.
          2    1    1    2  501    0 -0.41648556015E+02  0.20089694454E+02 -0.14846351435E+03  0.15549795219E+03  0.00000000000E+00 0. -1.
          1    1    1    2  502    0 -0.24228236710E+02  0.27331354114E+02  0.61884743821E+03  0.61992431970E+03  0.00000000000E+00 0. -1.
         22    1    3    3    0    0  0.57534025370E+02  0.22724466886E+02  0.21456798253E+02  0.65474878097E+02  0.00000000000E+00 0. -1.
         22    1    3    3    0    0  0.83427673551E+01 -0.70145515454E+02 -0.49284160759E+02  0.86133173674E+02  0.00000000000E+00 0. -1.
</event>
<event>
 7    1  0.6255318E-006  0.1215133E+03  0.7818608E-02  0.1378056E+00
          2   -1    0    0  502    0  0.00000000000E+00  0.00000000000E+00  0.15192482531E+04  0.15192482531E+04  0.00000000000E+00 0. -1.
          1   -1    0    0  501    0 -0.00000000000E+00 -0.00000000000E+00 -0.71890037856E+03  0.71890037856E+03  0.00000000000E+00 0. -1.
         25    2    1    2    0    0  0.62084770995E+02  0.69616843462E+02  0.10497518817E+03  0.18800458676E+03  0.12499964331E+03 0.  0.
          2    1    1    2  501    0 -0.96236897582E+02 -0.76012379428E+02 -0.67161257582E+03  0.68271727258E+03  0.00000000000E+00 0. -1.
          1    1    1    2  502    0  0.34152126587E+02  0.63955359657E+01  0.13669852622E+04  0.13674267724E+04  0.00000000000E+00 0. -1.
         22    1    3    3    0    0  0.46132547631E+02  0.99681586850E+02  0.10773862371E+03  0.15385786215E+03  0.00000000000E+00 0.  1.
         22    1    3    3    0    0  0.15952223364E+02 -0.30064743388E+02 -0.27634355372E+01  0.34146724604E+02  0.00000000000E+00 0.  1.
</event>
<event>
 7    1  0.6255318E-006  0.5983555E+02  0.7818608E-02  0.1409915E+00
          2   -1    0    0  502    0  0.00000000000E+00  0.00000000000E+00  0.27836917454E+04  0.27836917454E+04  0.00000000000E+00 0. -1.
          1   -1    0    0  501    0 -0.00000000000E+00 -0.00000000000E+00 -0.70206665991E+03  0.70206665991E+03  0.00000000000E+00 0. -1.
         25    2    1    2    0    0  0.89188547350E+01  0.74308478070E+02  0.17798149108E+03  0.23000784285E+03  0.12499960289E+03 0.  0.
          2    1    1    2  501    0 -0.47907671432E+02 -0.35935247632E+02 -0.67443648886E+03  0.67709014504E+03  0.00000000000E+00 0. -1.
          1    1    1    2  502    0  0.38988816697E+02 -0.38373230438E+02  0.25780800832E+04  0.25786604174E+04  0.00000000000E+00 0. -1.
         22    1    3    3    0    0  0.64886061475E+02  0.22453807821E+02  0.72838095650E+02  0.10009876441E+03  0.00000000000E+00 0.  1.
         22    1    3    3    0    0 -0.55967206740E+02  0.51854670249E+02  0.10514339543E+03  0.12990907843E+03  0.00000000000E+00 0.  1.
</event>
<event>
 7    1  0.6255318E-006  0.6934884E+02  0.7818608E-02  0.1412173E+00
          2   -1    0    0  502    0  0.00000000000E+00  0.00000000000E+00  0.10257302129E+03  0.10257302129E+03  0.00000000000E+00 0. -1.
          1   -1    0    0  501    0 -0.00000000000E+00 -0.00000000000E+00 -0.82046439239E+03  0.82046439239E+03  0.00000000000E+00 0. -1.
         25    2    1    2    0    0  0.58852559128E+02  0.29774389706E+02 -0.10298514285E+03  0.17488154677E+03  0.12500991062E+03 0.  0.
          2    1    1    2  501    0 -0.29625625543E+02  0.35681919480E+02 -0.66119842832E+03  0.66282293162E+03  0.00000000000E+00 0. -1.
          1    1    1    2  502    0 -0.29226933585E+02 -0.65456309186E+02  0.46292200071E+02  0.85332935297E+02  0.00000000000E+00 0. -1.
         22    1    3    3    0    0 -0.10248784873E+02 -0.20377217518E+02 -0.84495392330E+02  0.87519940071E+02  0.00000000000E+00 0. -1.
         22    1    3    3    0    0  0.69101344001E+02  0.50151607224E+02 -0.18489750525E+02  0.87361606695E+02  0.00000000000E+00 0. -1.
</event>
<event>
 7    1  0.6255318E-006  0.5387806E+02  0.7818608E-02  0.1483822E+00
          2   -1    0    0  502    0  0.00000000000E+00  0.00000000000E+00  0.49284514797E+02  0.49284514797E+02  0.00000000000E+00 0. -1.
          1   -1    0    0  501    0 -0.00000000000E+00 -0.00000000000E+00 -0.40053209946E+03  0.40053209946E+03  0.00000000000E+00 0. -1.
         25    2    1    2    0    0 -0.81714979481E+01  0.53440466706E+02 -0.16600850253E+03  0.21473110404E+03  0.12501186851E+03 0.  0.
          2    1    1    2  501    0 -0.31822191864E+02 -0.14922967274E+02 -0.17516123978E+03  0.17865275472E+03  0.00000000000E+00 0. -1.
          1    1    1    2  502    0  0.39993689812E+02 -0.38517499432E+02 -0.10077842354E+02  0.56432755504E+02  0.00000000000E+00 0. -1.
         22    1    3    3    0    0  0.72935675791E+01  0.33444558757E+02 -0.18175432606E+03  0.18494964093E+03  0.00000000000E+00 0. -1.
         22    1    3    3    0    0 -0.15465065527E+02  0.19995907949E+02  0.15745823525E+02  0.29781463109E+02  0.00000000000E+00 0. -1.
</event>
<event>
 7    1  0.6255318E-006  0.4251350E+02  0.7818608E-02  0.1535951E+00
          2   -1    0    0  502    0  0.00000000000E+00  0.00000000000E+00  0.59268098660E+03  0.59268098660E+03  0.00000000000E+00 0. -1.
          1   -1    0    0  501    0 -0.00000000000E+00 -0.00000000000E+00 -0.58171163161E+03  0.58171163161E+03  0.00000000000E+00 0. -1.
         25    2    1    2    0    0 -0.10211578793E+02 -0.39023556080E+02 -0.64756648930E+02  0.14644510082E+03  0.12500251879E+03 0.  0.
          2    1    1    2  501    0  0.31219242969E+02  0.19418362998E+01 -0.47477246871E+03  0.47580175379E+03  0.00000000000E+00 0. -1.
          1    1    1    2  502    0 -0.21007664176E+02  0.37081719780E+02  0.55049847263E+03  0.55214576360E+03  0.00000000000E+00 0. -1.
         22    1    3    3    0    0 -0.21203448743E+02 -0.73076184494E+02 -0.77358386926E+02  0.10850822552E+03  0.00000000000E+00 0. -1.
         22    1    3    3    0    0  0.10991869950E+02  0.34052628414E+02  0.12601737996E+02  0.37936875298E+02  0.00000000000E+00 0. -1.
</event>
<event>
 7    1  0.6255318E-006  0.6934519E+02  0.7818608E-02  0.1377941E+00
          2   -1    0    0  502    0  0.00000000000E+00  0.00000000000E+00  0.23285902419E+04  0.23285902419E+04  0.00000000000E+00 0. -1.
          1   -1    0    0  501    0 -0.00000000000E+00 -0.00000000000E+00 -0.86129522446E+02  0.86129522446E+02  0.00000000000E+00 0. -1.
         25    2    1    2    0    0  0.28916956821E+02  0.65364240275E+02  0.29972358773E+03  0.33251884338E+03  0.12500351142E+03 0.  0.
          2    1    1    2  501    0 -0.60876668754E+02 -0.28287294875E+01 -0.55681074107E+02  0.82549091593E+02  0.00000000000E+00 0. -1.
          1    1    1    2  502    0  0.31959711933E+02 -0.62535510787E+02  0.19984182058E+04  0.19996518293E+04  0.00000000000E+00 0. -1.
         22    1    3    3    0    0  0.29326662056E+02  0.85568772744E+02  0.11318742675E+03  0.14489120591E+03  0.00000000000E+00 0. -1.
         22    1    3    3    0    0 -0.40970523577E+00 -0.20204532470E+02  0.18653616098E+03  0.18762763748E+03  0.00000000000E+00 0. -1.
</event>
<event>
 7    1  0.6255318E-006  0.8099271E+02  0.7818608E-02  0.1376418E+00
          2   -1    0    0  502    0  0.00000000000E+00  0.00000000000E+00  0.10214917606E+04  0.10214917606E+04  0.00000000000E+00 0. -1.
          1   -1    0    0  501    0 -0.00000000000E+00 -0.00000000000E+00 -0.77378015659E+03  0.77378015659E+03  0.00000000000E+00 0. -1.
         25    2    1    2    0    0 -0.53327424615E+02  0.10243517686E+03 -0.11941998651E+03  0.20790093457E+03  0.12499954297E+03 0.  0.
          2    1    1    2  501    0  0.61580675696E+02 -0.50250526322E+02 -0.60681212573E+03  0.61199530304E+03  0.00000000000E+00 0. -1.
          1    1    1    2  502    0 -0.82532510819E+01 -0.52184650540E+02  0.97394371623E+03  0.97537567956E+03  0.00000000000E+00 0. -1.
         22    1    3    3    0    0 -0.41403278959E+02  0.12058460086E+03 -0.53090013654E+02  0.13810657849E+03  0.00000000000E+00 0. -1.
         22    1    3    3    0    0 -0.11924145656E+02 -0.18149423997E+02 -0.66329972859E+02  0.69794356079E+02  0.00000000000E+00 0. -1.
</event>
<event>
 7    1  0.6255318E-006  0.1488041E+03  0.7818608E-02  0.1325514E+00
          2   -1    0    0  502    0  0.00000000000E+00  0.00000000000E+00  0.31193542220E+04  0.31193542220E+04  0.00000000000E+00 0. -1.
          1   -1    0    0  501    0 -0.00000000000E+00 -0.00000000000E+00 -0.34247407991E+03  0.34247407991E+03  0.00000000000E+00 0. -1.
         25    2    1    2    0    0 -0.13671725753E+03 -0.99239871939E+02  0.28252936376E+03  0.35211877058E+03  0.12499850605E+03 0.  0.
          2    1    1    2  501    0 -0.67760665944E+00  0.44369716055E+02 -0.30411516433E+03  0.30733558861E+03  0.00000000000E+00 0. -1.
          1    1    1    2  502    0  0.13739486419E+03  0.54870155884E+02  0.27984659426E+04  0.28023739427E+04  0.00000000000E+00 0. -1.
         22    1    3    3    0    0 -0.15642085617E+03 -0.90637402028E+02  0.27546190432E+03  0.32948730419E+03  0.00000000000E+00 0.  1.
         22    1    3    3    0    0  0.19703598637E+02 -0.86024699114E+01  0.70674594409E+01  0.22631466386E+02  0.00000000000E+00 0.  1.
</event>
<event>
 7    1  0.6255318E-006  0.1415744E+03  0.7818608E-02  0.1239091E+00
          2   -1    0    0  502    0  0.00000000000E+00  0.00000000000E+00  0.10283149926E+04  0.10283149926E+04  0.00000000000E+00 0. -1.
          1   -1    0    0  501    0 -0.00000000000E+00 -0.00000000000E+00 -0.55918887560E+03  0.55918887560E+03  0.00000000000E+00 0. -1.
         25    2    1    2    0    0 -0.17466585635E+03 -0.92278889480E+02  0.35791214808E+03  0.42750418123E+03  0.12504065103E+03 0.  0.
          2    1    1    2  501    0  0.40425679701E+02  0.97911589861E+02 -0.51180784294E+03  0.52265493694E+03  0.00000000000E+00 0. -1.
          1    1    1    2  502    0  0.13424017664E+03 -0.56327003807E+01  0.62302181186E+03  0.63734475003E+03  0.00000000000E+00 0. -1.
         22    1    3    3    0    0 -0.14476727102E+03 -0.25535912662E+02  0.16389928083E+03  0.22016498326E+03  0.00000000000E+00 0.  1.
         22    1    3    3    0    0 -0.29898585321E+02 -0.66742976818E+02  0.19401286725E+03  0.20733919797E+03  0.00000000000E+00 0.  1.
</event>
<event>
 7    1  0.6255318E-006  0.8054627E+02  0.7818608E-02  0.1375965E+00
          2   -1    0    0  502    0  0.00000000000E+00  0.00000000000E+00  0.89598062382E+03  0.89598062382E+03  0.00000000000E+00 0. -1.
          1   -1    0    0  501    0 -0.00000000000E+00 -0.00000000000E+00 -0.10413822133E+04  0.10413822133E+04  0.00000000000E+00 0. -1.
         25    2    1    2    0    0  0.55333645667E+02 -0.62794280224E+02  0.28304706491E+03  0.32053940533E+03  0.12499974177E+03 0.  0.
          2    1    1    2  501    0 -0.50229497665E+01  0.80465242670E+02 -0.10198456108E+04  0.10230273482E+04  0.00000000000E+00 0. -1.
          1    1    1    2  502    0 -0.50310695900E+02 -0.17670962446E+02  0.59139695632E+03  0.59379608367E+03  0.00000000000E+00 0. -1.
         22    1    3    3    0    0  0.81301551490E+02 -0.39925855177E+02  0.26784468931E+03  0.28274510389E+03  0.00000000000E+00 0. -1.
         22    1    3    3    0    0 -0.25967905824E+02 -0.22868425047E+02  0.15202375607E+02  0.37794301437E+02  0.00000000000E+00 0. -1.
</event>
<event>
 7    1  0.6255318E-006  0.8450277E+02  0.7818608E-02  0.1329425E+00
          2   -1    0    0  502    0  0.00000000000E+00  0.00000000000E+00  0.24614755996E+03  0.24614755996E+03  0.00000000000E+00 0. -1.
          1   -1    0    0  501    0 -0.00000000000E+00 -0.00000000000E+00 -0.12708252834E+04  0.12708252834E+04  0.00000000000E+00 0. -1.
         25    2    1    2    0    0  0.64448313865E+02 -0.82594399937E+02 -0.64016286850E+02  0.17520905456E+03  0.12499883103E+03 0.  0.
          2    1    1    2  501    0 -0.75465196122E+02 -0.18733538965E+01 -0.11403819894E+04  0.11428777655E+04  0.00000000000E+00 0. -1.
          1    1    1    2  502    0  0.11016882257E+02  0.84467753833E+02  0.17972055281E+03  0.19888602323E+03  0.00000000000E+00 0. -1.
         22    1    3    3    0    0  0.88009328832E+02 -0.92890124670E+02 -0.28054968759E+02  0.13100113929E+03  0.00000000000E+00 0.  1.
         22    1    3    3    0    0 -0.23561014967E+02  0.10295724734E+02 -0.35961318091E+02  0.44207915274E+02  0.00000000000E+00 0.  1.
</event>
<event>
 7    1  0.6255318E-006  0.8189860E+02  0.7818608E-02  0.1408008E+00
          2   -1    0    0  502    0  0.00000000000E+00  0.00000000000E+00  0.26496485399E+04  0.26496485399E+04  0.00000000000E+00 0. -1.
          1   -1    0    0  501    0 -0.00000000000E+00 -0.00000000000E+00 -0.74619099810E+03  0.74619099810E+03  0.00000000000E+00 0. -1.
         25    2    1    2    0    0  0.35081318659E+01 -0.10000328408E+03 -0.96346688300E+02  0.18686950991E+03  0.12499826228E+03 0.  0.
          2    1    1    2  501    0 -0.34339420248E+02  0.73636954642E+02 -0.60169422557E+03  0.60715528323E+03  0.00000000000E+00 0. -1.
          1    1    1    2  502    0  0.30831288382E+02  0.26366329434E+02  0.26014984557E+04  0.26018147449E+04  0.00000000000E+00 0. -1.
         22    1    3    3    0    0  0.34046755499E+01  0.28345504724E+02 -0.41735191580E+01  0.28852689924E+02  0.00000000000E+00 0.  1.
         22    1    3    3    0    0  0.10345631591E+00 -0.12834878880E+03 -0.92173169142E+02  0.15801681999E+03  0.00000000000E+00 0.  1.
</event>
<event>
 7    1  0.6255318E-006  0.1428464E+03  0.7818608E-02  0.1234033E+00
          2   -1    0    0  502    0  0.00000000000E+00  0.00000000000E+00  0.73019733315E+03  0.73019733315E+03  0.00000000000E+00 0. -1.
          1   -1    0    0  501    0 -0.00000000000E+00 -0.00000000000E+00 -0.17493928319E+04  0.17493928319E+04  0.00000000000E+00 0. -1.
         25    2    1    2    0    0 -0.68360335835E+02 -0.14111290792E+02 -0.12743863007E+03  0.19167495832E+03  0.12500568454E+03 0.  0.
          2    1    1    2  501    0 -0.53873910791E+02  0.96535322593E+02 -0.15800993141E+04  0.15839619027E+04  0.00000000000E+00 0. -1.
          1    1    1    2  502    0  0.12223424663E+03 -0.82424031801E+02  0.68834244544E+03  0.70395330403E+03  0.00000000000E+00 0. -1.
         22    1    3    3    0    0 -0.13388042753E+02  0.47823164078E+02 -0.85433296590E+02  0.98818737481E+02  0.00000000000E+00 0.  1.
         22    1    3    3    0    0 -0.54972293082E+02 -0.61934454870E+02 -0.42005333485E+02  0.92856220836E+02  0.00000000000E+00 0.  1.
</event>
<event>
 7    1  0.6255318E-006  0.6876579E+02  0.7818608E-02  0.1427171E+00
          2   -1    0    0  502    0  0.00000000000E+00  0.00000000000E+00  0.79196879789E+03  0.79196879789E+03  0.00000000000E+00 0. -1.
          1   -1    0    0  501    0 -0.00000000000E+00 -0.00000000000E+00 -0.19345730098E+03  0.19345730098E+03  0.00000000000E+00 0. -1.
         25    2    1    2    0    0  0.97128471468E+02 -0.32208142928E+02  0.10998578134E+03  0.19545969064E+03  0.12504524832E+03 0.  0.
          2    1    1    2  501    0 -0.29680575234E+02  0.29252409857E+02 -0.14601442652E+03  0.15184483126E+03  0.00000000000E+00 0. -1.
          1    1    1    2  502    0 -0.67447896234E+02  0.29557330706E+01  0.63454014209E+03  0.63812157696E+03  0.00000000000E+00 0. -1.
         22    1    3    3    0    0  0.46698724475E+02 -0.79586880361E+02  0.59308347437E+02  0.10969194350E+03  0.00000000000E+00 0. -1.
         22    1    3    3    0    0  0.50429746993E+02  0.47378737433E+02  0.50677433906E+02  0.85767747142E+02  0.00000000000E+00 0. -1.
</event>
<event>
 7    1  0.6255318E-006  0.4625557E+02  0.7818608E-02  0.1500387E+00
          2   -1    0    0  502    0  0.00000000000E+00  0.00000000000E+00  0.29315873450E+04  0.29315873450E+04  0.00000000000E+00 0. -1.
          1   -1    0    0  501    0 -0.00000000000E+00 -0.00000000000E+00 -0.95162298502E+02  0.95162298502E+02  0.00000000000E+00 0. -1.
         25    2    1    2    0    0 -0.60416327230E+02  0.54141139919E+02  0.44015406399E+03  0.46469482321E+03  0.12499713213E+03 0.  0.
          2    1    1    2  501    0  0.29185179642E+02 -0.35270675028E+02 -0.76426159641E+02  0.89088456632E+02  0.00000000000E+00 0. -1.
          1    1    1    2  502    0  0.31231147587E+02 -0.18870464891E+02  0.24726971421E+04  0.24729663637E+04  0.00000000000E+00 0. -1.
         22    1    3    3    0    0 -0.72321623175E+02  0.43351054310E+02  0.13533848061E+03  0.15945606110E+03  0.00000000000E+00 0. -1.
         22    1    3    3    0    0  0.11905295945E+02  0.10790085609E+02  0.30481558338E+03  0.30523876211E+03  0.00000000000E+00 0. -1.
</event>
<event>
 7    1  0.6255318E-006  0.7000544E+02  0.7818608E-02  0.1365815E+00
          2   -1    0    0  502    0  0.00000000000E+00  0.00000000000E+00  0.49770707699E+03  0.49770707699E+03  0.00000000000E+00 0. -1.
          1   -1    0    0  501    0 -0.00000000000E+00 -0.00000000000E+00 -0.28045958914E+03  0.28045958914E+03  0.00000000000E+00 0. -1.
         25    2    1    2    0    0 -0.11212339551E+03  0.60620110472E+02  0.66617658924E+02  0.19055369233E+03  0.12500537415E+03 0.  0.
          2    1    1    2  501    0  0.65674664920E+02 -0.11779730889E+02 -0.21020333778E+03  0.22053881039E+03  0.00000000000E+00 0. -1.
          1    1    1    2  502    0  0.46448730593E+02 -0.48840379582E+02  0.36083316671E+03  0.36707416342E+03  0.00000000000E+00 0. -1.
         22    1    3    3    0    0 -0.84527769269E+02  0.14824175469E+02  0.96631837836E+02  0.12923781196E+03  0.00000000000E+00 0. -1.
         22    1    3    3    0    0 -0.27595626243E+02  0.45795935003E+02 -0.30014178912E+02  0.61315880376E+02  0.00000000000E+00 0. -1.
</event>
<event>
 7    1  0.6255318E-006  0.9909688E+02  0.7818608E-02  0.1417183E+00
          2   -1    0    0  502    0  0.00000000000E+00  0.00000000000E+00  0.14285773503E+03  0.14285773503E+03  0.00000000000E+00 0. -1.
          1   -1    0    0  501    0 -0.00000000000E+00 -0.00000000000E+00 -0.63686377367E+03  0.63686377367E+03  0.00000000000E+00 0. -1.
         25    2    1    2    0    0 -0.11382156812E+03 -0.49681253327E+02  0.41710172809E+02  0.18107671976E+03  0.12500185448E+03 0.  0.
          2    1    1    2  501    0  0.95004362487E+02  0.24770206676E+02 -0.55388776483E+03  0.56252204229E+03  0.00000000000E+00 0. -1.
          1    1    1    2  502    0  0.18817205632E+02  0.24911046651E+02  0.18171553384E+02  0.36122746648E+02  0.00000000000E+00 0. -1.
         22    1    3    3    0    0 -0.37576760438E+02 -0.56528387570E+02 -0.31788480301E+02  0.74953178760E+02  0.00000000000E+00 0.  1.
         22    1    3    3    0    0 -0.76244807680E+02  0.68471342433E+01  0.73498653110E+02  0.10612354100E+03  0.00000000000E+00 0.  1.
</event>
<event>
 7    1  0.6255318E-006  0.7408837E+02  0.7818608E-02  0.1419990E+00
          2   -1    0    0  502    0  0.00000000000E+00  0.00000000000E+00  0.39406367370E+03  0.39406367370E+03  0.00000000000E+00 0. -1.
          1   -1    0    0  501    0 -0.00000000000E+00 -0.00000000000E+00 -0.12270338928E+04  0.12270338928E+04  0.00000000000E+00 0. -1.
         25    2    1    2    0    0  0.62591809538E+02  0.17323069160E+02 -0.20968965877E+02  0.14241787571E+03  0.12500132177E+03 0.  0.
          2    1    1    2  501    0 -0.12746277636E+02  0.38825173880E+02 -0.11407421576E+04  0.11414738420E+04  0.00000000000E+00 0. -1.
          1    1    1    2  502    0 -0.49845531902E+02 -0.56148243040E+02  0.32874090440E+03  0.33720584882E+03  0.00000000000E+00 0. -1.
         22    1    3    3    0    0 -0.29728608888E+01  0.60968667370E+02 -0.17830599048E+02  0.63592032246E+02  0.00000000000E+00 0. -1.
         22    1    3    3    0    0  0.65564670427E+02 -0.43645598210E+02 -0.31383668291E+01  0.78825843463E+02  0.00000000000E+00 0. -1.
</event>
<event>
 7    1  0.6255318E-006  0.7114113E+02  0.7818608E-02  0.1383944E+00
          2   -1    0    0  502    0  0.00000000000E+00  0.00000000000E+00  0.56276297835E+03  0.56276297835E+03  0.00000000000E+00 0. -1.
          1   -1    0    0  501    0 -0.00000000000E+00 -0.00000000000E+00 -0.30410676571E+03  0.30410676571E+03  0.00000000000E+00 0. -1.
         25    2    1    2    0    0  0.10985322220E+03  0.28225419125E+02  0.46597010053E+02  0.17510186668E+03  0.12499991062E+03 0.  0.
          2    1    1    2  501    0 -0.40967944587E+02 -0.39009359327E+02 -0.23377115110E+03  0.24051830219E+03  0.00000000000E+00 0. -1.
          1    1    1    2  502    0 -0.68885277618E+02  0.10783940201E+02  0.44583035369E+03  0.45124957519E+03  0.00000000000E+00 0. -1.
         22    1    3    3    0    0  0.75012896582E+02 -0.21666518152E+02 -0.24202537651E+02  0.81744330025E+02  0.00000000000E+00 0.  1.
         22    1    3    3    0    0  0.34840325623E+02  0.49891937278E+02  0.70799547704E+02  0.93357536653E+02  0.00000000000E+00 0.  1.
</event>
<event>
 7    1  0.6255318E-006  0.3704779E+02  0.7818608E-02  0.1541639E+00
          2   -1    0    0  502    0  0.00000000000E+00  0.00000000000E+00  0.23048762475E+04  0.23048762475E+04  0.00000000000E+00 0. -1.
          1   -1    0    0  501    0 -0.00000000000E+00 -0.00000000000E+00 -0.95959437861E+01  0.95959437861E+01  0.00000000000E+00 0. -1.
         25    2    1    2    0    0 -0.26045896744E+01 -0.28054890027E+01  0.14032730069E+04  0.14088345733E+04  0.12500027356E+03 0.  0.
          2    1    1    2  501    0  0.28678497870E+02  0.25531053257E+02  0.50595917947E+02  0.63515650302E+02  0.00000000000E+00 0. -1.
          1    1    1    2  502    0 -0.26073908195E+02 -0.22725564254E+02  0.84141137890E+03  0.84212196771E+03  0.00000000000E+00 0. -1.
         22    1    3    3    0    0 -0.42432883511E+02  0.34313285242E+02  0.35706864839E+03  0.36121457724E+03  0.00000000000E+00 0.  1.
         22    1    3    3    0    0  0.39828293837E+02 -0.37118774245E+02  0.10462043585E+04  0.10476199960E+04  0.00000000000E+00 0.  1.
</event>
<event>
 7    1  0.6255318E-006  0.6129788E+02  0.7818608E-02  0.1442511E+00
          2   -1    0    0  502    0  0.00000000000E+00  0.00000000000E+00  0.64495184248E+02  0.64495184248E+02  0.00000000000E+00 0. -1.
          1   -1    0    0  501    0 -0.00000000000E+00 -0.00000000000E+00 -0.30594992516E+04  0.30594992516E+04  0.00000000000E+00 0. -1.
         25    2    1    2    0    0  0.17771955327E+02 -0.21224762580E+02 -0.15936346972E+03  0.20442107358E+03  0.12499970760E+03 0.  0.
          2    1    1    2  501    0 -0.59274595706E+02  0.17708096616E+02 -0.28668557743E+04  0.28675231620E+04  0.00000000000E+00 0. -1.
          1    1    1    2  502    0  0.41502640379E+02  0.35166659645E+01  0.31215176597E+02  0.52050200268E+02  0.00000000000E+00 0. -1.
         22    1    3    3    0    0 -0.15044647025E+02 -0.67335413565E+02 -0.10700467918E+03  0.12732007183E+03  0.00000000000E+00 0. -1.
         22    1    3    3    0    0  0.32816602352E+02  0.46110650985E+02 -0.52358790540E+02  0.77101001751E+02  0.00000000000E+00 0. -1.
</event>
<event>
 7    1  0.6255318E-006  0.9645583E+02  0.7818608E-02  0.1336645E+00
          2   -1    0    0  502    0  0.00000000000E+00  0.00000000000E+00  0.30923911978E+04  0.30923911978E+04  0.00000000000E+00 0. -1.
          1   -1    0    0  501    0 -0.00000000000E+00 -0.00000000000E+00 -0.52778910065E+03  0.52778910065E+03  0.00000000000E+00 0. -1.
         25    2    1    2    0    0  0.67500220886E+02 -0.61816395495E+02  0.45244547513E+03  0.47823470012E+03  0.12499589536E+03 0.  0.
          2    1    1    2  501    0 -0.15332180136E+02  0.95472286248E+02 -0.50998404750E+03  0.51907009343E+03  0.00000000000E+00 0. -1.
          1    1    1    2  502    0 -0.52168040750E+02 -0.33655890754E+02  0.26221406695E+04  0.26228755049E+04  0.00000000000E+00 0. -1.
         22    1    3    3    0    0  0.69867548059E+02 -0.94604670926E+02  0.39400210361E+03  0.41118022288E+03  0.00000000000E+00 0.  1.
         22    1    3    3    0    0 -0.23673271732E+01  0.32788275431E+02  0.58443371517E+02  0.67054477240E+02  0.00000000000E+00 0.  1.
</event>
<event>
 7    1  0.6255318E-006  0.1047466E+03  0.7818608E-02  0.1307430E+00
          2   -1    0    0  502    0  0.00000000000E+00  0.00000000000E+00  0.14413722650E+04  0.14413722650E+04  0.00000000000E+00 0. -1.
          1   -1    0    0  501    0 -0.00000000000E+00 -0.00000000000E+00 -0.61755524995E+03  0.61755524995E+03  0.00000000000E+00 0. -1.
         25    2    1    2    0    0 -0.69921548473E+02  0.97640582039E+02  0.32588430545E+03  0.36911851627E+03  0.12500076924E+03 0.  0.
          2    1    1    2  501    0 -0.38909075817E+01 -0.10479986881E+03 -0.59005232131E+03  0.59929950238E+03  0.00000000000E+00 0. -1.
          1    1    1    2  502    0  0.73812456054E+02  0.71592867708E+01  0.10879850309E+04  0.10905094963E+04  0.00000000000E+00 0. -1.
         22    1    3    3    0    0  0.81372215830E+01  0.61068731111E+01  0.17886742232E+03  0.17915653223E+03  0.00000000000E+00 0.  1.
         22    1    3    3    0    0 -0.78058770056E+02  0.91533708928E+02  0.14701688313E+03  0.18996198404E+03  0.00000000000E+00 0.  1.
</event>
<event>
 7    1  0.6255318E-006  0.1934963E+03  0.7818608E-02  0.1259226E+00
          2   -1    0    0  502    0  0.00000000000E+00  0.00000000000E+00  0.17954147719E+04  0.17954147719E+04  0.00000000000E+00 0. -1.
          1   -1    0    0  501    0 -0.00000000000E+00 -0.00000000000E+00 -0.48377420964E+02  0.48377420964E+02  0.00000000000E+00 0. -1.
         25    2    1    2    0    0 -0.46736180801E+02  0.14756427056E+03  0.23501706040E+03  0.30792229233E+03  0.12499453943E+03 0.  0.
          2    1    1    2  501    0  0.31624532602E+02  0.54909376312E+02  0.26795819733E+03  0.27534840872E+03  0.00000000000E+00 0. -1.
          1    1    1    2  502    0  0.15111648199E+02 -0.20247364688E+03  0.12440620932E+04  0.12605214919E+04  0.00000000000E+00 0. -1.
         22    1    3    3    0    0 -0.78458533297E+02  0.13922802131E+03  0.21981856984E+03  0.27177267525E+03  0.00000000000E+00 0. -1.
         22    1    3    3    0    0  0.31722352496E+02  0.83362492551E+01  0.15198490563E+02  0.36149617078E+02  0.00000000000E+00 0. -1.
</event>
<event>
 7    1  0.6255318E-006  0.1360503E+03  0.7818608E-02  0.1321714E+00
          2   -1    0    0  502    0  0.00000000000E+00  0.00000000000E+00  0.13949971550E+04  0.13949971550E+04  0.00000000000E+00 0. -1.
          1   -1    0    0  501    0 -0.00000000000E+00 -0.00000000000E+00 -0.67304619575E+03  0.67304619575E+03  0.00000000000E+00 0. -1.
         25    2    1    2    0    0  0.78946502190E+01 -0.16965797148E+03 -0.37265086692E+03  0.42818213231E+03  0.12500046809E+03 0.  0.
          2    1    1    2  501    0 -0.10576426837E+02  0.11952871118E+03 -0.25893802771E+03  0.28539074231E+03  0.00000000000E+00 0. -1.
          1    1    1    2  502    0  0.26817766182E+01  0.50129260300E+02  0.13535398539E+04  0.13544704761E+04  0.00000000000E+00 0. -1.
         22    1    3    3    0    0 -0.32024547778E+02 -0.16789720917E+03 -0.30211749558E+03  0.34711673202E+03  0.00000000000E+00 0.  1.
         22    1    3    3    0    0  0.39919197997E+02 -0.17607623119E+01 -0.70533371335E+02  0.81065400292E+02  0.00000000000E+00 0.  1.
</event>
<event>
 7    1  0.6255318E-006  0.9684097E+02  0.7818608E-02  0.1323445E+00
          2   -1    0    0  502    0  0.00000000000E+00  0.00000000000E+00  0.39970902473E+03  0.39970902473E+03  0.00000000000E+00 0. -1.
          1   -1    0    0  501    0 -0.00000000000E+00 -0.00000000000E+00 -0.68160557082E+03  0.68160557082E+03  0.00000000000E+00 0. -1.
         25    2    1    2    0    0  0.14944428668E+03 -0.42972887372E+02 -0.29615380039E+03  0.35709070330E+03  0.12500573199E+03 0.  0.
          2    1    1    2  501    0 -0.81163851892E+02  0.30288130368E+02 -0.34633465650E+03  0.35700509238E+03  0.00000000000E+00 0. -1.
          1    1    1    2  502    0 -0.68280434790E+02  0.12684757004E+02  0.36059191080E+03  0.36721879986E+03  0.00000000000E+00 0. -1.
         22    1    3    3    0    0  0.14068767105E+03 -0.78812040783E+02 -0.22344928469E+03  0.27556113911E+03  0.00000000000E+00 0.  1.
         22    1    3    3    0    0  0.87566156293E+01  0.35839153412E+02 -0.72704515703E+02  0.81529564197E+02  0.00000000000E+00 0.  1.
</event>
<event>
 7    1  0.6255318E-006  0.1087457E+03  0.7818608E-02  0.1314261E+00
          2   -1    0    0  502    0  0.00000000000E+00  0.00000000000E+00  0.28065308151E+03  0.28065308151E+03  0.00000000000E+00 0. -1.
          1   -1    0    0  501    0 -0.00000000000E+00 -0.00000000000E+00 -0.17782094902E+04  0.17782094902E+04  0.00000000000E+00 0. -1.
         25    2    1    2    0    0 -0.14422222461E+03  0.78597424438E+02  0.19201898607E+02  0.20729680376E+03  0.12500258692E+03 0.  0.
          2    1    1    2  501    0  0.49947299135E+02 -0.44873096572E+02 -0.16684547237E+04  0.16698052260E+04  0.00000000000E+00 0. -1.
          1    1    1    2  502    0  0.94274925477E+02 -0.33724327865E+02  0.15169641644E+03  0.18176054199E+03  0.00000000000E+00 0. -1.
         22    1    3    3    0    0 -0.10339102746E+03  0.88966535760E+02  0.59671167858E+02  0.14888047998E+03  0.00000000000E+00 0. -1.
         22    1    3    3    0    0 -0.40831197148E+02 -0.10369111322E+02 -0.40469269251E+02  0.58416323779E+02  0.00000000000E+00 0. -1.
</event>
<event>
 7    1  0.6255318E-006  0.8773875E+02  0.7818608E-02  0.1343372E+00
          2   -1    0    0  502    0  0.00000000000E+00  0.00000000000E+00  0.25231738978E+04  0.25231738978E+04  0.00000000000E+00 0. -1.
          1   -1    0    0  501    0 -0.00000000000E+00 -0.00000000000E+00 -0.22389397801E+03  0.22389397801E+03  0.00000000000E+00 0. -1.
         25    2    1    2    0    0  0.14959758731E+02 -0.38787294060E+02  0.47938628892E+03  0.49715604185E+03  0.12499866951E+03 0.  0.
          2    1    1    2  501    0  0.31992117159E+02  0.82846801285E+02 -0.20530494485E+03  0.22368998284E+03  0.00000000000E+00 0. -1.
          1    1    1    2  502    0 -0.46951875890E+02 -0.44059507225E+02  0.20251985757E+04  0.20262218511E+04  0.00000000000E+00 0. -1.
         22    1    3    3    0    0 -0.45160538879E+02 -0.43052012533E+02  0.33389807727E+03  0.33967760606E+03  0.00000000000E+00 0. -1.
         22    1    3    3    0    0  0.60120297609E+02  0.42647184729E+01  0.14548821165E+03  0.15747843579E+03  0.00000000000E+00 0. -1.
</event>
<event>
 7    1  0.6255318E-006  0.2978900E+02  0.7818608E-02  0.1627580E+00
          2   -1    0    0  502    0  0.00000000000E+00  0.00000000000E+00  0.31708145593E+03  0.31708145593E+03  0.00000000000E+00 0. -1.
          1   -1    0    0  501    0 -0.00000000000E+00 -0.00000000000E+00 -0.16038212980E+04  0.16038212980E+04  0.00000000000E+00 0. -1.
         25    2    1    2    0    0  0.35424514742E+02 -0.11744462698E+01 -0.12613742691E+03  0.18112025920E+03  0.12505047883E+03 0.  0.
          2    1    1    2  501    0 -0.14954340268E+02 -0.20498438999E+02 -0.14493138719E+04  0.14495359663E+04  0.00000000000E+00 0. -1.
          1    1    1    2  502    0 -0.20470174473E+02  0.21672885269E+02  0.28871145676E+03  0.29024652842E+03  0.00000000000E+00 0. -1.
         22    1    3    3    0    0 -0.15492536939E+01  0.19837078153E+02 -0.13601380853E+03  0.13746150722E+03  0.00000000000E+00 0.  1.
         22    1    3    3    0    0  0.36973768436E+02 -0.21011524423E+02  0.98763816126E+01  0.43658751982E+02  0.00000000000E+00 0.  1.
</event>
<event>
 7    1  0.6255318E-006  0.5992991E+02  0.7818608E-02  0.1468778E+00
          2   -1    0    0  502    0  0.00000000000E+00  0.00000000000E+00  0.56105980447E+02  0.56105980447E+02  0.00000000000E+00 0. -1.
          1   -1    0    0  501    0 -0.00000000000E+00 -0.00000000000E+00 -0.13509432552E+04  0.13509432552E+04  0.00000000000E+00 0. -1.
         25    2    1    2    0    0 -0.31355961791E+02 -0.87077441432E+02 -0.56581558355E+03  0.58680687697E+03  0.12501743532E+03 0.  0.
          2    1    1    2  501    0  0.19156802091E+02  0.29482985454E+02 -0.75505342573E+03  0.75587161953E+03  0.00000000000E+00 0. -1.
          1    1    1    2  502    0  0.12199159700E+02  0.57594455978E+02  0.26031734520E+02  0.64370739151E+02  0.00000000000E+00 0. -1.
         22    1    3    3    0    0 -0.15846504330E+02 -0.61727526739E+01 -0.41174534697E+03  0.41209640295E+03  0.00000000000E+00 0.  1.
         22    1    3    3    0    0 -0.15509457461E+02 -0.80904688758E+02 -0.15407023658E+03  0.17471047402E+03  0.00000000000E+00 0.  1.
</event>
<event>
 7    1  0.6255318E-006  0.7288171E+02  0.7818608E-02  0.1353267E+00
          2   -1    0    0  502    0  0.00000000000E+00  0.00000000000E+00  0.15227227818E+03  0.15227227818E+03  0.00000000000E+00 0. -1.
          1   -1    0    0  501    0 -0.00000000000E+00 -0.00000000000E+00 -0.12371555668E+04  0.12371555668E+04  0.00000000000E+00 0. -1.
         25    2    1    2    0    0  0.38706099236E+02 -0.12875916495E+02 -0.11159214494E+03  0.17245779808E+03  0.12499973585E+03 0.  0.
          2    1    1    2  501    0  0.85343364406E+01  0.72380304347E+02 -0.10819398883E+04  0.10843918412E+04  0.00000000000E+00 0. -1.
          1    1    1    2  502    0 -0.47240435677E+02 -0.59504387852E+02  0.10864874458E+03  0.13257820574E+03  0.00000000000E+00 0. -1.
         22    1    3    3    0    0 -0.10282669824E+01 -0.46864555163E+02  0.25125702977E+01  0.46943123811E+02  0.00000000000E+00 0. -1.
         22    1    3    3    0    0  0.39734366219E+02  0.33988638668E+02 -0.11410471524E+03  0.12551467427E+03  0.00000000000E+00 0. -1.
</event>
<event>
 7    1  0.6255318E-006  0.1363053E+03  0.7818608E-02  0.1405669E+00
          2   -1    0    0  502    0  0.00000000000E+00  0.00000000000E+00  0.18302135541E+04  0.18302135541E+04  0.00000000000E+00 0. -1.
          1   -1    0    0  501    0 -0.00000000000E+00 -0.00000000000E+00 -0.51158299681E+03  0.51158299681E+03  0.00000000000E+00 0. -1.
         25    2    1    2    0    0  0.39477308006E+02  0.15025872706E+03  0.10264406033E+03  0.22427013969E+03  0.12500059812E+03 0.  0.
          2    1    1    2  501    0 -0.21159060344E+02 -0.13350221668E+03 -0.44054188785E+03  0.46081200358E+03  0.00000000000E+00 0. -1.
          1    1    1    2  502    0 -0.18318247662E+02 -0.16756510381E+02  0.16565283848E+04  0.16567144076E+04  0.00000000000E+00 0. -1.
         22    1    3    3    0    0  0.19140559818E+01  0.25354936999E+02  0.89659775445E+02  0.93195556618E+02  0.00000000000E+00 0. -1.
         22    1    3    3    0    0  0.37563252024E+02  0.12490379006E+03  0.12984284889E+02  0.13107458307E+03  0.00000000000E+00 0. -1.
</event>
<event>
 7    1  0.6255318E-006  0.5312879E+02  0.7818608E-02  0.1452166E+00
          2   -1    0    0  502    0  0.00000000000E+00  0.00000000000E+00  0.16132657012E+04  0.16132657012E+04  0.00000000000E+00 0. -1.
          1   -1    0    0  501    0 -0.00000000000E+00 -0.00000000000E+00 -0.77438539288E+02  0.77438539288E+02  0.00000000000E+00 0. -1.
         25    2    1    2    0    0 -0.47238935519E+02 -0.48031633390E+02  0.25760265458E+03  0.29414738976E+03  0.12500001770E+03 0.  0.
          2    1    1    2  501    0 -0.58260668169E+01  0.44363083128E+02 -0.50097747870E+02  0.67170012214E+02  0.00000000000E+00 0. -1.
          1    1    1    2  502    0  0.53065002336E+02  0.36685502614E+01  0.13283222552E+04  0.13293868385E+04  0.00000000000E+00 0. -1.
         22    1    3    3    0    0  0.39058607364E+02 -0.30655390464E+02  0.60399544901E+02  0.78188444146E+02  0.00000000000E+00 0. -1.
         22    1    3    3    0    0 -0.86297542883E+02 -0.17376242925E+02  0.19720310968E+03  0.21595894562E+03  0.00000000000E+00 0. -1.
</event>
<event>
 7    1  0.6255318E-006  0.7400436E+02  0.7818608E-02  0.1356604E+00
          2   -1    0    0  502    0  0.00000000000E+00  0.00000000000E+00  0.94458727496E+02  0.94458727496E+02  0.00000000000E+00 0. -1.
          1   -1    0    0  501    0 -0.00000000000E+00 -0.00000000000E+00 -0.42057566296E+04  0.42057566296E+04  0.00000000000E+00 0. -1.
         25    2    1    2    0    0 -0.43978195238E+01  0.95819490673E+01 -0.30960927013E+03  0.33405731345E+03  0.12500093582E+03 0.  0.
          2    1    1    2  501    0 -0.53887974873E+02  0.41780148264E+02 -0.38652075109E+04  0.38658089188E+04  0.00000000000E+00 0. -1.
          1    1    1    2  502    0  0.58285794396E+02 -0.51362097331E+02  0.63518878923E+02  0.10034912481E+03  0.00000000000E+00 0. -1.
         22    1    3    3    0    0 -0.44804067516E+02 -0.88442805250E+01 -0.39679155020E+02  0.60498438881E+02  0.00000000000E+00 0.  1.
         22    1    3    3    0    0  0.40406247992E+02  0.18426229592E+02 -0.26993011511E+03  0.27355887457E+03  0.00000000000E+00 0.  1.
</event>
<event>
 7    1  0.6255318E-006  0.6187763E+02  0.7818608E-02  0.1423185E+00
          2   -1    0    0  502    0  0.00000000000E+00  0.00000000000E+00  0.69821447584E+03  0.69821447584E+03  0.00000000000E+00 0. -1.
          1   -1    0    0  501    0 -0.00000000000E+00 -0.00000000000E+00 -0.75687593514E+02  0.75687593514E+02  0.00000000000E+00 0. -1.
         25    2    1    2    0    0  0.63010994796E+02  0.70239124640E+02  0.19747396947E+03  0.25204189114E+03  0.12500090470E+03 0.  0.
          2    1    1    2  501    0 -0.46068287304E+02 -0.12533844895E+02 -0.34173147756E+02  0.58712761735E+02  0.00000000000E+00 0. -1.
          1    1    1    2  502    0 -0.16942707492E+02 -0.57705279746E+02  0.45922606061E+03  0.46314741648E+03  0.00000000000E+00 0. -1.
         22    1    3    3    0    0  0.66178954757E+02 -0.16364349994E+02  0.68378034719E+02  0.96555691886E+02  0.00000000000E+00 0. -1.
         22    1    3    3    0    0 -0.31679599616E+01  0.86603474634E+02  0.12909593475E+03  0.15548619925E+03  0.00000000000E+00 0. -1.
</event>
<event>
 7    1  0.6255318E-006  0.1210207E+03  0.7818608E-02  0.1441597E+00
          2   -1    0    0  502    0  0.00000000000E+00  0.00000000000E+00  0.79798084943E+03  0.79798084943E+03  0.00000000000E+00 0. -1.
          1   -1    0    0  501    0 -0.00000000000E+00 -0.00000000000E+00 -0.87362671908E+02  0.87362671908E+02  0.00000000000E+00 0. -1.
         25    2    1    2    0    0  0.13136657473E+03 -0.22801110933E+02  0.29089716751E+03  0.34354121519E+03  0.12498934698E+03 0.  0.
          2    1    1    2  501    0 -0.18390756362E+02 -0.10628046880E+02 -0.51693870979E+02  0.55887669452E+02  0.00000000000E+00 0. -1.
          1    1    1    2  502    0 -0.11297581836E+03  0.33429157812E+02  0.47141488099E+03  0.48591463669E+03  0.00000000000E+00 0. -1.
         22    1    3    3    0    0  0.13988546466E+02  0.36619754251E+02  0.23956632777E+02  0.45941333107E+02  0.00000000000E+00 0. -1.
         22    1    3    3    0    0  0.11737802826E+03 -0.59420865184E+02  0.26694053473E+03  0.29759988209E+03  0.00000000000E+00 0. -1.
</event>
<event>
 7    1  0.6255318E-006  0.3192023E+03  0.7818608E-02  0.1209999E+00
          2   -1    0    0  502    0  0.00000000000E+00  0.00000000000E+00  0.30199551387E+04  0.30199551387E+04  0.00000000000E+00 0. -1.
          1   -1    0    0  501    0 -0.00000000000E+00 -0.00000000000E+00 -0.10473755396E+04  0.10473755396E+04  0.00000000000E+00 0. -1.
         25    2    1    2    0    0 -0.28292894750E+03  0.12373619879E+03  0.24834629131E+03  0.41552634387E+03  0.12500730303E+03 0.  0.
          2    1    1    2  501    0 -0.30794820825E+02 -0.55669206505E+02 -0.95313658700E+03  0.95525741820E+03  0.00000000000E+00 0. -1.
          1    1    1    2  502    0  0.31372376833E+03 -0.68066992289E+02  0.26773698948E+04  0.26965469163E+04  0.00000000000E+00 0. -1.
         22    1    3    3    0    0 -0.79479172481E+02  0.19321582686E+02  0.14076848394E+03  0.16280672125E+03  0.00000000000E+00 0. -1.
         22    1    3    3    0    0 -0.20344977502E+03  0.10441461611E+03  0.10757780737E+03  0.25271962261E+03  0.00000000000E+00 0. -1.
</event>
<event>
 7    1  0.6255318E-006  0.1437833E+03  0.7818608E-02  0.1301409E+00
          2   -1    0    0  502    0  0.00000000000E+00  0.00000000000E+00  0.13369970644E+04  0.13369970644E+04  0.00000000000E+00 0. -1.
          1   -1    0    0  501    0 -0.00000000000E+00 -0.00000000000E+00 -0.11504747289E+03  0.11504747289E+03  0.00000000000E+00 0. -1.
         25    2    1    2    0    0  0.16038988832E+03 -0.28803351501E+02  0.32592646179E+03  0.38525462379E+03  0.12505405760E+03 0.  0.
          2    1    1    2  501    0 -0.37857361590E+02 -0.42728109992E+02 -0.70043299996E+02  0.90360030348E+02  0.00000000000E+00 0. -1.
          1    1    1    2  502    0 -0.12253252673E+03  0.71531461493E+02  0.96606642974E+03  0.97642988318E+03  0.00000000000E+00 0. -1.
         22    1    3    3    0    0  0.12401183458E+03  0.23857043291E+02  0.27785961602E+03  0.30521150019E+03  0.00000000000E+00 0.  1.
         22    1    3    3    0    0  0.36378053735E+02 -0.52660394792E+02  0.48066845767E+02  0.80043123597E+02  0.00000000000E+00 0.  1.
</event>
<event>
 7    1  0.6255318E-006  0.4008720E+02  0.7818608E-02  0.1602020E+00
          2   -1    0    0  502    0  0.00000000000E+00  0.00000000000E+00  0.12522395288E+04  0.12522395288E+04  0.00000000000E+00 0. -1.
          1   -1    0    0  501    0 -0.00000000000E+00 -0.00000000000E+00 -0.45676394771E+03  0.45676394771E+03  0.00000000000E+00 0. -1.
         25    2    1    2    0    0  0.27870565218E+02 -0.25721293210E+02  0.10308502897E+02  0.13103240467E+03  0.12499949005E+03 0.  0.
          2    1    1    2  501    0 -0.10314492590E+02  0.38856987751E+02 -0.39528059821E+03  0.39731977747E+03  0.00000000000E+00 0. -1.
          1    1    1    2  502    0 -0.17556072628E+02 -0.13135694541E+02  0.11804476764E+04  0.11806512944E+04  0.00000000000E+00 0. -1.
         22    1    3    3    0    0  0.57271601110E+02  0.57244866028E+01 -0.35933895334E+02  0.67853156702E+02  0.00000000000E+00 0. -1.
         22    1    3    3    0    0 -0.29401035892E+02 -0.31445779813E+02  0.46242398231E+02  0.63179247967E+02  0.00000000000E+00 0. -1.
</event>
<event>
 7    1  0.6255318E-006  0.2532781E+03  0.7818608E-02  0.1150711E+00
          2   -1    0    0  502    0  0.00000000000E+00  0.00000000000E+00  0.97556559447E+03  0.97556559447E+03  0.00000000000E+00 0. -1.
          1   -1    0    0  501    0 -0.00000000000E+00 -0.00000000000E+00 -0.19707301627E+04  0.19707301627E+04  0.00000000000E+00 0. -1.
         25    2    1    2    0    0  0.25429097457E+03 -0.30112563562E+03  0.12365548329E+03  0.43157630058E+03  0.12500750577E+03 0.  0.
          2    1    1    2  501    0 -0.12300844731E+03  0.21663482242E+03 -0.17993486956E+04  0.18165124422E+04  0.00000000000E+00 0. -1.
          1    1    1    2  502    0 -0.13128252726E+03  0.84490813200E+02  0.68052864408E+03  0.69820701436E+03  0.00000000000E+00 0. -1.
         22    1    3    3    0    0  0.25262977169E+03 -0.31226145295E+03  0.12383986599E+03  0.42031574911E+03  0.00000000000E+00 0. -1.
         22    1    3    3    0    0  0.16612028846E+01  0.11135817326E+02 -0.18438270073E+00  0.11260551475E+02  0.00000000000E+00 0. -1.
</event>
<event>
 7    1  0.6255318E-006  0.3027682E+03  0.7818608E-02  0.1105147E+00
          2   -1    0    0  502    0  0.00000000000E+00  0.00000000000E+00  0.15157220623E+04  0.15157220623E+04  0.00000000000E+00 0. -1.
          1   -1    0    0  501    0 -0.00000000000E+00 -0.00000000000E+00 -0.14394236207E+04  0.14394236207E+04  0.00000000000E+00 0. -1.
         25    2    1    2    0    0  0.33502817593E+03 -0.33117738984E+03 -0.25834429885E+03  0.55162342761E+03  0.12499714769E+03 0.  0.
          2    1    1    2  501    0 -0.25923486362E+03  0.11501542790E+03 -0.10050963267E+04  0.10443418450E+04  0.00000000000E+00 0. -1.
          1    1    1    2  502    0 -0.75793312306E+02  0.21616196194E+03  0.13397390671E+04  0.13591804104E+04  0.00000000000E+00 0. -1.
         22    1    3    3    0    0  0.32554747208E+02 -0.84488250006E+02 -0.15309984857E+02  0.91828490084E+02  0.00000000000E+00 0.  1.
         22    1    3    3    0    0  0.30247342872E+03 -0.24668913984E+03 -0.24303431399E+03  0.45979493753E+03  0.00000000000E+00 0.  1.
</event>
<event>
 7    1  0.6255318E-006  0.6918099E+02  0.7818608E-02  0.1373405E+00
          2   -1    0    0  502    0  0.00000000000E+00  0.00000000000E+00  0.16462476183E+03  0.16462476183E+03  0.00000000000E+00 0. -1.
          1   -1    0    0  501    0 -0.00000000000E+00 -0.00000000000E+00 -0.45525276661E+03  0.45525276661E+03  0.00000000000E+00 0. -1.
         25    2    1    2    0    0  0.16690638866E+02  0.77732959761E+01 -0.71360828658E+01  0.12654918745E+03  0.12499908644E+03 0.  0.
          2    1    1    2  501    0  0.51783979943E+02  0.36585629624E+02 -0.36942919321E+03  0.37483065198E+03  0.00000000000E+00 0. -1.
          1    1    1    2  502    0 -0.68474618809E+02 -0.44358925600E+02  0.85937271294E+02  0.11849768900E+03  0.00000000000E+00 0. -1.
         22    1    3    3    0    0  0.21531843888E+02 -0.51105271685E+02 -0.30180375068E+02  0.63136551494E+02  0.00000000000E+00 0.  1.
         22    1    3    3    0    0 -0.48412050215E+01  0.58878567661E+02  0.23044292203E+02  0.63412635957E+02  0.00000000000E+00 0.  1.
</event>
<event>
 7    1  0.6255318E-006  0.1563287E+03  0.7818608E-02  0.1340410E+00
          2   -1    0    0  502    0  0.00000000000E+00  0.00000000000E+00  0.44713489186E+03  0.44713489186E+03  0.00000000000E+00 0. -1.
          1   -1    0    0  501    0 -0.00000000000E+00 -0.00000000000E+00 -0.10560313691E+04  0.10560313691E+04  0.00000000000E+00 0. -1.
         25    2    1    2    0    0  0.11463629726E+03  0.90018232995E+02 -0.21855628124E+03  0.29092453557E+03  0.12500189761E+03 0.  0.
          2    1    1    2  501    0 -0.14423341832E+03 -0.67692360381E+02 -0.79250974597E+03  0.80836701570E+03  0.00000000000E+00 0. -1.
          1    1    1    2  502    0  0.29597121057E+02 -0.22325872613E+02  0.40216954999E+03  0.40387470966E+03  0.00000000000E+00 0. -1.
         22    1    3    3    0    0  0.49031461643E+02  0.69628601450E+02 -0.30077423754E+02  0.90315434951E+02  0.00000000000E+00 0. -1.
         22    1    3    3    0    0  0.65604835621E+02  0.20389631544E+02 -0.18847885749E+03  0.20060910062E+03  0.00000000000E+00 0. -1.
</event>
<event>
 7    1  0.6255318E-006  0.7489329E+02  0.7818608E-02  0.1391696E+00
          2   -1    0    0  502    0  0.00000000000E+00  0.00000000000E+00  0.72483346939E+03  0.72483346939E+03  0.00000000000E+00 0. -1.
          1   -1    0    0  501    0 -0.00000000000E+00 -0.00000000000E+00 -0.10228794442E+04  0.10228794442E+04  0.00000000000E+00 0. -1.
         25    2    1    2    0    0  0.30962368363E+02 -0.99152342663E+02 -0.37290727859E+03  0.40678181078E+03  0.12498699069E+03 0.  0.
          2    1    1    2  501    0  0.21391754676E+02  0.45723679000E+02 -0.63004642550E+03  0.63206547151E+03  0.00000000000E+00 0. -1.
          1    1    1    2  502    0 -0.52354123040E+02  0.53428663663E+02  0.70490772933E+03  0.70886563125E+03  0.00000000000E+00 0. -1.
         22    1    3    3    0    0 -0.36351078495E+02 -0.16704898387E+02 -0.37284830311E+02  0.54686498418E+02  0.00000000000E+00 0.  1.
         22    1    3    3    0    0  0.67313446858E+02 -0.82447444276E+02 -0.33562244828E+03  0.35209531236E+03  0.00000000000E+00 0.  1.
</event>
<event>
 7    1  0.6255318E-006  0.1884491E+03  0.7818608E-02  0.1261715E+00
          2   -1    0    0  502    0  0.00000000000E+00  0.00000000000E+00  0.40539627893E+04  0.40539627893E+04  0.00000000000E+00 0. -1.
          1   -1    0    0  501    0 -0.00000000000E+00 -0.00000000000E+00 -0.53386827433E+03  0.53386827433E+03  0.00000000000E+00 0. -1.
         25    2    1    2    0    0 -0.13360709432E+03 -0.16578573267E+03 -0.42768414429E+03  0.49383667648E+03  0.12500068383E+03 0.  0.
          2    1    1    2  501    0  0.62877468510E+02 -0.88065437342E+01 -0.56678335031E+02  0.85109135353E+02  0.00000000000E+00 0. -1.
          1    1    1    2  502    0  0.70729625812E+02  0.17459227640E+03  0.40044569943E+04  0.40088852518E+04  0.00000000000E+00 0. -1.
         22    1    3    3    0    0 -0.13152769050E+03 -0.99298021486E+02 -0.37278318889E+03  0.40758672250E+03  0.00000000000E+00 0.  1.
         22    1    3    3    0    0 -0.20794038194E+01 -0.66487711182E+02 -0.54900955394E+02  0.86249953980E+02  0.00000000000E+00 0.  1.
</event>
<event>
 7    1  0.6255318E-006  0.2317312E+03  0.7818608E-02  0.1277600E+00
          2   -1    0    0  502    0  0.00000000000E+00  0.00000000000E+00  0.22373193890E+04  0.22373193890E+04  0.00000000000E+00 0. -1.
          1   -1    0    0  501    0 -0.00000000000E+00 -0.00000000000E+00 -0.23919382030E+03  0.23919382030E+03  0.00000000000E+00 0. -1.
         25    2    1    2    0    0 -0.19605146303E+03  0.18028453728E+03  0.51145221470E+03  0.59003994117E+03  0.12500029486E+03 0.  0.
          2    1    1    2  501    0  0.40824662901E+02 -0.17139439067E+02 -0.18982392450E+03  0.19491930583E+03  0.00000000000E+00 0. -1.
          1    1    1    2  502    0  0.15522680013E+03 -0.16314509822E+03  0.16764972785E+04  0.16915539623E+04  0.00000000000E+00 0. -1.
         22    1    3    3    0    0 -0.17237230132E+03  0.10494765713E+03  0.43771205708E+03  0.48199384427E+03  0.00000000000E+00 0.  1.
         22    1    3    3    0    0 -0.23679161714E+02  0.75336880148E+02  0.73740157618E+02  0.10804609690E+03  0.00000000000E+00 0.  1.
</event>
<event>
 7    1  0.6255318E-006  0.1579797E+03  0.7818608E-02  0.1389546E+00
          2   -1    0    0  502    0  0.00000000000E+00  0.00000000000E+00  0.95291595462E+03  0.95291595462E+03  0.00000000000E+00 0. -1.
          1   -1    0    0  501    0 -0.00000000000E+00 -0.00000000000E+00 -0.29308113906E+03  0.29308113906E+03  0.00000000000E+00 0. -1.
         25    2    1    2    0    0 -0.93042912366E+02  0.13550176771E+03  0.43263757631E+03  0.47939304834E+03  0.12499883904E+03 0.  0.
          2    1    1    2  501    0 -0.11966089669E+02 -0.21204356181E+02 -0.25699343373E+03  0.25814421745E+03  0.00000000000E+00 0. -1.
          1    1    1    2  502    0  0.10500900203E+03 -0.11429741153E+03  0.48419067297E+03  0.50845982789E+03  0.00000000000E+00 0. -1.
         22    1    3    3    0    0 -0.25915580765E+02  0.13320846825E+03  0.24465830304E+03  0.27977454957E+03  0.00000000000E+00 0. -1.
         22    1    3    3    0    0 -0.67127331601E+02  0.22932994638E+01  0.18797927327E+03  0.19961849877E+03  0.00000000000E+00 0. -1.
</event>
<event>
 7    1  0.6255318E-006  0.4620921E+02  0.7818608E-02  0.1527391E+00
          2   -1    0    0  502    0  0.00000000000E+00  0.00000000000E+00  0.91432408345E+03  0.91432408345E+03  0.00000000000E+00 0. -1.
          1   -1    0    0  501    0 -0.00000000000E+00 -0.00000000000E+00 -0.15704923921E+03  0.15704923921E+03  0.00000000000E+00 0. -1.
         25    2    1    2    0    0 -0.33723021944E+02  0.26699295924E+01  0.44307531588E+02  0.13685137553E+03  0.12498308243E+03 0.  0.
          2    1    1    2  501    0  0.38601098518E+02  0.27382468302E+02 -0.10542647151E+03  0.11556204079E+03  0.00000000000E+00 0. -1.
          1    1    1    2  502    0 -0.48780765736E+01 -0.30052397895E+02  0.81839378416E+03  0.81895990635E+03  0.00000000000E+00 0. -1.
         22    1    3    3    0    0 -0.75246502346E+02 -0.17926738386E+02  0.75988352420E+01  0.77724811750E+02  0.00000000000E+00 0. -1.
         22    1    3    3    0    0  0.41523480402E+02  0.20596667979E+02  0.36708696346E+02  0.59126563776E+02  0.00000000000E+00 0. -1.
</event>
<event>
 7    1  0.6255318E-006  0.6341598E+02  0.7818608E-02  0.1497043E+00
          2   -1    0    0  502    0  0.00000000000E+00  0.00000000000E+00  0.72308904082E+03  0.72308904082E+03  0.00000000000E+00 0. -1.
          1   -1    0    0  501    0 -0.00000000000E+00 -0.00000000000E+00 -0.60566928691E+03  0.60566928691E+03  0.00000000000E+00 0. -1.
         25    2    1    2    0    0 -0.12492530132E+02  0.79181907668E+02  0.18581758654E+03  0.23786486287E+03  0.12500271881E+03 0.  0.
          2    1    1    2  501    0  0.20997415433E+02 -0.17345376826E+02 -0.57741829299E+03  0.57806023789E+03  0.00000000000E+00 0. -1.
          1    1    1    2  502    0 -0.85048853013E+01 -0.61836530842E+02  0.50902046035E+03  0.51283322696E+03  0.00000000000E+00 0. -1.
         22    1    3    3    0    0  0.25878687201E+02 -0.24847127016E+02  0.30858032795E+02  0.47321288657E+02  0.00000000000E+00 0.  1.
         22    1    3    3    0    0 -0.38371217333E+02  0.10402903468E+03  0.15495955375E+03  0.19054357422E+03  0.00000000000E+00 0.  1.
</event>
<event>
 7    1  0.6255318E-006  0.7665041E+02  0.7818608E-02  0.1406756E+00
          2   -1    0    0  502    0  0.00000000000E+00  0.00000000000E+00  0.23371031627E+03  0.23371031627E+03  0.00000000000E+00 0. -1.
          1   -1    0    0  501    0 -0.00000000000E+00 -0.00000000000E+00 -0.16344098676E+04  0.16344098676E+04  0.00000000000E+00 0. -1.
         25    2    1    2    0    0  0.44035074173E+01 -0.61174738151E+02 -0.52117971443E+03  0.53945819184E+03  0.12500042617E+03 0.  0.
          2    1    1    2  501    0  0.43758095533E+02  0.11275095300E+01 -0.10970454657E+04  0.10979183923E+04  0.00000000000E+00 0. -1.
          1    1    1    2  502    0 -0.48161602950E+02  0.60047228621E+02  0.21752562880E+03  0.23074359980E+03  0.00000000000E+00 0. -1.
         22    1    3    3    0    0 -0.23870730740E+02 -0.67113258496E+02 -0.13900916614E+03  0.15619714953E+03  0.00000000000E+00 0.  1.
         22    1    3    3    0    0  0.28274238157E+02  0.59385203456E+01 -0.38217054829E+03  0.38326104231E+03  0.00000000000E+00 0.  1.
</event>
<event>
 7    1  0.6255318E-006  0.1108701E+03  0.7818608E-02  0.1444849E+00
          2   -1    0    0  502    0  0.00000000000E+00  0.00000000000E+00  0.46089470624E+03  0.46089470624E+03  0.00000000000E+00 0. -1.
          1   -1    0    0  501    0 -0.00000000000E+00 -0.00000000000E+00 -0.37386873945E+03  0.37386873945E+03  0.00000000000E+00 0. -1.
         25    2    1    2    0    0 -0.76354241887E+02  0.89583173494E+02  0.82063217371E+02  0.19030060170E+03  0.12499932853E+03 0.  0.
          2    1    1    2  501    0  0.21836204944E+02  0.59464122022E+01 -0.31001123978E+03  0.31083620841E+03  0.00000000000E+00 0. -1.
          1    1    1    2  502    0  0.54518036943E+02 -0.95529585696E+02  0.31497398920E+03  0.33362663558E+03  0.00000000000E+00 0. -1.
         22    1    3    3    0    0 -0.10037207992E+02  0.28305211298E+02 -0.32618768692E+02  0.44338635544E+02  0.00000000000E+00 0.  1.
         22    1    3    3    0    0 -0.66317033895E+02  0.61277962195E+02  0.11468198606E+03  0.14596196615E+03  0.00000000000E+00 0.  1.
</event>
<event>
 7    1  0.6255318E-006  0.6258281E+02  0.7818608E-02  0.1483231E+00
          2   -1    0    0  502    0  0.00000000000E+00  0.00000000000E+00  0.35806914645E+04  0.35806914645E+04  0.00000000000E+00 0. -1.
          1   -1    0    0  501    0 -0.00000000000E+00 -0.00000000000E+00 -0.21954481696E+02  0.21954481696E+02  0.00000000000E+00 0. -1.
         25    2    1    2    0    0 -0.31201124175E+02  0.42085064399E+02  0.72776948821E+03  0.74028305277E+03  0.12500362974E+03 0.  0.
          2    1    1    2  501    0 -0.26322668585E+02 -0.15177305190E+02 -0.29705069774E+00  0.30386209264E+02  0.00000000000E+00 0. -1.
          1    1    1    2  502    0  0.57523792761E+02 -0.26907759209E+02  0.28312645452E+04  0.28319766841E+04  0.00000000000E+00 0. -1.
         22    1    3    3    0    0 -0.65457302152E+02  0.63483969282E+02  0.57863271170E+03  0.58577358067E+03  0.00000000000E+00 0. -1.
         22    1    3    3    0    0  0.34256177976E+02 -0.21398904883E+02  0.14913677651E+03  0.15450947210E+03  0.00000000000E+00 0. -1.
</event>
<event>
 7    1  0.6255318E-006  0.5164067E+02  0.7818608E-02  0.1530177E+00
          2   -1    0    0  502    0  0.00000000000E+00  0.00000000000E+00  0.14667217888E+04  0.14667217888E+04  0.00000000000E+00 0. -1.
          1   -1    0    0  501    0 -0.00000000000E+00 -0.00000000000E+00 -0.11357369694E+03  0.11357369694E+03  0.00000000000E+00 0. -1.
         25    2    1    2    0    0  0.14908366706E+02 -0.76260660978E+02  0.96545014977E+02  0.17601263598E+03  0.12498624043E+03 0.  0.
          2    1    1    2  501    0 -0.85729541977E+01  0.25335472228E+02 -0.70905678987E+02  0.75782564019E+02  0.00000000000E+00 0. -1.
          1    1    1    2  502    0 -0.63354125086E+01  0.50925188750E+02  0.13275087559E+04  0.13285002857E+04  0.00000000000E+00 0. -1.
         22    1    3    3    0    0 -0.31180911701E+02  0.15533102150E+02  0.55233800990E+02  0.65301602498E+02  0.00000000000E+00 0. -1.
         22    1    3    3    0    0  0.46089278407E+02 -0.91793763128E+02  0.41311213987E+02  0.11071103348E+03  0.00000000000E+00 0. -1.
</event>
<event>
 7    1  0.6255318E-006  0.1301112E+03  0.7818608E-02  0.1355473E+00
          2   -1    0    0  502    0  0.00000000000E+00  0.00000000000E+00  0.32521412695E+03  0.32521412695E+03  0.00000000000E+00 0. -1.
          1   -1    0    0  501    0 -0.00000000000E+00 -0.00000000000E+00 -0.14145695159E+04  0.14145695159E+04  0.00000000000E+00 0. -1.
         25    2    1    2    0    0 -0.86400617021E+02 -0.60317299624E+02  0.20067893912E+03  0.25884428682E+03  0.12500033982E+03 0.  0.
          2    1    1    2  501    0  0.84507242830E+02  0.99427702805E+02 -0.13782555638E+04  0.13844189182E+04  0.00000000000E+00 0. -1.
          1    1    1    2  502    0  0.18933741913E+01 -0.39110403180E+02  0.88221235629E+02  0.96520437829E+02  0.00000000000E+00 0. -1.
         22    1    3    3    0    0 -0.72056352204E+02 -0.28378858410E+02  0.27530139692E+02  0.82191155783E+02  0.00000000000E+00 0.  1.
         22    1    3    3    0    0 -0.14344264818E+02 -0.31938441215E+02  0.17314879943E+03  0.17665313104E+03  0.00000000000E+00 0.  1.
</event>
<event>
 7    1  0.6255318E-006  0.1122998E+03  0.7818608E-02  0.1390824E+00
          2   -1    0    0  502    0  0.00000000000E+00  0.00000000000E+00  0.37975334344E+04  0.37975334344E+04  0.00000000000E+00 0. -1.
          1   -1    0    0  501    0 -0.00000000000E+00 -0.00000000000E+00 -0.95709032439E+03  0.95709032439E+03  0.00000000000E+00 0. -1.
         25    2    1    2    0    0 -0.11329837089E+03 -0.86586214398E+02  0.83287757534E+03  0.85419202717E+03  0.12500108161E+03 0.  0.
          2    1    1    2  501    0  0.22732065197E+02  0.25151047352E+02 -0.94511548889E+03  0.94572332599E+03  0.00000000000E+00 0. -1.
          1    1    1    2  502    0  0.90566305693E+02  0.61435167046E+02  0.29526810236E+04  0.29547084057E+04  0.00000000000E+00 0. -1.
         22    1    3    3    0    0 -0.29625530498E+01 -0.77495658556E+02  0.29375368982E+03  0.30381834062E+03  0.00000000000E+00 0.  1.
         22    1    3    3    0    0 -0.11033581784E+03 -0.90905558429E+01  0.53912388552E+03  0.55037368655E+03  0.00000000000E+00 0.  1.
</event>
<event>
 7    1  0.6255318E-006  0.6191318E+02  0.7818608E-02  0.1494442E+00
          2   -1    0    0  502    0  0.00000000000E+00  0.00000000000E+00  0.60077403993E+03  0.60077403993E+03  0.00000000000E+00 0. -1.
          1   -1    0    0  501    0 -0.00000000000E+00 -0.00000000000E+00 -0.92489263853E+03  0.92489263853E+03  0.00000000000E+00 0. -1.
         25    2    1    2    0    0 -0.67574243360E+02 -0.10842655395E+02  0.20658575249E+03  0.25097068700E+03  0.12499908424E+03 0.  0.
          2    1    1    2  501    0  0.79991089746E+01  0.27252570597E+02 -0.89990836468E+03  0.90035645895E+03  0.00000000000E+00 0. -1.
          1    1    1    2  502    0  0.59575134386E+02 -0.16409915201E+02  0.36920401359E+03  0.37433953252E+03  0.00000000000E+00 0. -1.
         22    1    3    3    0    0  0.10617719452E+02  0.25877297021E+02  0.13761751053E+03  0.14043129876E+03  0.00000000000E+00 0. -1.
         22    1    3    3    0    0 -0.78191962812E+02 -0.36719952416E+02  0.68968241962E+02  0.11053938824E+03  0.00000000000E+00 0. -1.
</event>
<event>
 7    1  0.6255318E-006  0.7836463E+02  0.7818608E-02  0.1505586E+00
          2   -1    0    0  502    0  0.00000000000E+00  0.00000000000E+00  0.39188026488E+03  0.39188026488E+03  0.00000000000E+00 0. -1.
          1   -1    0    0  501    0 -0.00000000000E+00 -0.00000000000E+00 -0.56845007034E+03  0.56845007034E+03  0.00000000000E+00 0. -1.
         25    2    1    2    0    0  0.40813789715E+02 -0.51909419856E+02 -0.82941544231E+02  0.16390347793E+03  0.12499878807E+03 0.  0.
          2    1    1    2  501    0 -0.72761036694E+01 -0.19470471994E+02 -0.44035425666E+03  0.44084454439E+03  0.00000000000E+00 0. -1.
          1    1    1    2  502    0 -0.33537686046E+02  0.71379891850E+02  0.34672599542E+03  0.35558231290E+03  0.00000000000E+00 0. -1.
         22    1    3    3    0    0  0.80742184223E+01  0.36908894470E+02 -0.52076442185E+02  0.64338288171E+02  0.00000000000E+00 0.  1.
         22    1    3    3    0    0  0.32739571293E+02 -0.88818314326E+02 -0.30865102046E+02  0.99565189763E+02  0.00000000000E+00 0.  1.
</event>
<event>
 7    1  0.6255318E-006  0.1952651E+03  0.7818608E-02  0.1211168E+00
          2   -1    0    0  502    0  0.00000000000E+00  0.00000000000E+00  0.66156730525E+03  0.66156730525E+03  0.00000000000E+00 0. -1.
          1   -1    0    0  501    0 -0.00000000000E+00 -0.00000000000E+00 -0.36530733050E+03  0.36530733050E+03  0.00000000000E+00 0. -1.
         25    2    1    2    0    0 -0.12039395120E+02  0.12374549466E+03  0.29466595580E+02  0.17875357015E+03  0.12500665624E+03 0.  0.
          2    1    1    2  501    0  0.42350319478E+02 -0.22188132670E+03 -0.24084356048E+03  0.33019765797E+03  0.00000000000E+00 0. -1.
          1    1    1    2  502    0 -0.30310924358E+02  0.98135832046E+02  0.50763693965E+03  0.51792340763E+03  0.00000000000E+00 0. -1.
         22    1    3    3    0    0 -0.53987968779E+02  0.15488941711E+02  0.27735717513E+02  0.62640866168E+02  0.00000000000E+00 0.  1.
         22    1    3    3    0    0  0.41948573659E+02  0.10825655295E+03  0.17308780665E+01  0.11611270399E+03  0.00000000000E+00 0.  1.
</event>
<event>
 7    1  0.6255318E-006  0.1525100E+03  0.7818608E-02  0.1245651E+00
          2   -1    0    0  502    0  0.00000000000E+00  0.00000000000E+00  0.37458173290E+03  0.37458173290E+03  0.00000000000E+00 0. -1.
          1   -1    0    0  501    0 -0.00000000000E+00 -0.00000000000E+00 -0.21382439651E+04  0.21382439651E+04  0.00000000000E+00 0. -1.
         25    2    1    2    0    0 -0.17674927496E+03 -0.12279876171E+03 -0.51978223623E+03  0.57629726195E+03  0.12500047583E+03 0.  0.
          2    1    1    2  501    0  0.14132308680E+03  0.37871497244E+02 -0.15806530008E+04  0.15874099578E+04  0.00000000000E+00 0. -1.
          1    1    1    2  502    0  0.35426188153E+02  0.84927264466E+02  0.33677300484E+03  0.34911847823E+03  0.00000000000E+00 0. -1.
         22    1    3    3    0    0 -0.45248659590E+02 -0.89035314309E+02 -0.13261936307E+03  0.16601995016E+03  0.00000000000E+00 0.  1.
         22    1    3    3    0    0 -0.13150061537E+03 -0.33763447402E+02 -0.38716287315E+03  0.41027731179E+03  0.00000000000E+00 0.  1.
</event>
<event>
 7    1  0.6255318E-006  0.5460700E+02  0.7818608E-02  0.1433190E+00
          2   -1    0    0  502    0  0.00000000000E+00  0.00000000000E+00  0.17134261527E+03  0.17134261527E+03  0.00000000000E+00 0. -1.
          1   -1    0    0  501    0 -0.00000000000E+00 -0.00000000000E+00 -0.52302125141E+03  0.52302125141E+03  0.00000000000E+00 0. -1.
         25    2    1    2    0    0  0.11655244798E+02  0.76648756503E+01  0.27314236578E+02  0.12870471775E+03  0.12499696717E+03 0.  0.
          2    1    1    2  501    0  0.48574616063E+02  0.12424096879E+02 -0.46000602474E+03  0.46273036890E+03  0.00000000000E+00 0. -1.
          1    1    1    2  502    0 -0.60229860861E+02 -0.20088972529E+02  0.81013152027E+02  0.10292878003E+03  0.00000000000E+00 0. -1.
         22    1    3    3    0    0  0.18427713515E+02  0.19835665857E+02 -0.46380888618E+02  0.53704944785E+02  0.00000000000E+00 0.  1.
         22    1    3    3    0    0 -0.67724687170E+01 -0.12170790207E+02  0.73695125196E+02  0.74999772963E+02  0.00000000000E+00 0.  1.
</event>
<event>
 7    1  0.6255318E-006  0.5396497E+02  0.7818608E-02  0.1471233E+00
          2   -1    0    0  502    0  0.00000000000E+00  0.00000000000E+00  0.87318275043E+03  0.87318275043E+03  0.00000000000E+00 0. -1.
          1   -1    0    0  501    0 -0.00000000000E+00 -0.00000000000E+00 -0.29637704075E+03  0.29637704075E+03  0.00000000000E+00 0. -1.
         25    2    1    2    0    0 -0.48238275594E+01  0.28846838212E+02 -0.27441142194E+02  0.13127653913E+03  0.12500041622E+03 0.  0.
          2    1    1    2  501    0  0.34583204968E+02  0.16611400939E+02 -0.21441499485E+03  0.21782040016E+03  0.00000000000E+00 0. -1.
          1    1    1    2  502    0 -0.29759377408E+02 -0.45458239152E+02  0.81866184672E+03  0.82046285189E+03  0.00000000000E+00 0. -1.
         22    1    3    3    0    0 -0.43952198343E+02  0.48378509733E+02  0.18417945918E+02  0.67908001553E+02  0.00000000000E+00 0. -1.
         22    1    3    3    0    0  0.39128370783E+02 -0.19531671521E+02 -0.45859088112E+02  0.63368537580E+02  0.00000000000E+00 0. -1.
</event>
<event>
 7    1  0.6255318E-006  0.6700050E+02  0.7818608E-02  0.1391405E+00
          2   -1    0    0  502    0  0.00000000000E+00  0.00000000000E+00  0.12102002700E+04  0.12102002700E+04  0.00000000000E+00 0. -1.
          1   -1    0    0  501    0 -0.00000000000E+00 -0.00000000000E+00 -0.43168833986E+03  0.43168833986E+03  0.00000000000E+00 0. -1.
         25    2    1    2    0    0 -0.66492867387E+02 -0.12509012858E+02  0.21629750790E+02  0.14377451218E+03  0.12500194966E+03 0.  0.
          2    1    1    2  501    0  0.14034458429E+02  0.54790008212E+02 -0.36744374437E+03  0.37177118809E+03  0.00000000000E+00 0. -1.
          1    1    1    2  502    0  0.52458408959E+02 -0.42280995354E+02  0.11243259237E+04  0.11263429096E+04  0.00000000000E+00 0. -1.
         22    1    3    3    0    0  0.25773912417E+02 -0.28649311286E+02  0.31248636744E+02  0.49614059468E+02  0.00000000000E+00 0. -1.
         22    1    3    3    0    0 -0.92266779805E+02  0.16140298429E+02 -0.96188859540E+01  0.94160452717E+02  0.00000000000E+00 0. -1.
</event>
<event>
 7    1  0.6255318E-006  0.6888088E+02  0.7818608E-02  0.1372122E+00
          2   -1    0    0  502    0  0.00000000000E+00  0.00000000000E+00  0.91177344930E+03  0.91177344930E+03  0.00000000000E+00 0. -1.
          1   -1    0    0  501    0 -0.00000000000E+00 -0.00000000000E+00 -0.67674427353E+02  0.67674427353E+02  0.00000000000E+00 0. -1.
         25    2    1    2    0    0 -0.19687489700E+02 -0.22497655503E+02  0.22043384453E+03  0.25516533492E+03  0.12499810630E+03 0.  0.
          2    1    1    2  501    0  0.40519056568E+02 -0.50001237381E+02 -0.26613539226E+02  0.69643364041E+02  0.00000000000E+00 0. -1.
          1    1    1    2  502    0 -0.20831566867E+02  0.72498892884E+02  0.65027871665E+03  0.65463917770E+03  0.00000000000E+00 0. -1.
         22    1    3    3    0    0 -0.58394176943E+02  0.21749585127E+02  0.70352416170E+02  0.93980778966E+02  0.00000000000E+00 0.  1.
         22    1    3    3    0    0  0.38706687242E+02 -0.44247240630E+02  0.15008142836E+03  0.16118455596E+03  0.00000000000E+00 0.  1.
</event>
<event>
 7    1  0.6255318E-006  0.7433550E+02  0.7818608E-02  0.1397287E+00
          2   -1    0    0  502    0  0.00000000000E+00  0.00000000000E+00  0.74322559519E+03  0.74322559519E+03  0.00000000000E+00 0. -1.
          1   -1    0    0  501    0 -0.00000000000E+00 -0.00000000000E+00 -0.88417229859E+02  0.88417229859E+02  0.00000000000E+00 0. -1.
         25    2    1    2    0    0  0.36319601019E+02 -0.93270228150E+02  0.27849468392E+03  0.32125216282E+03  0.12500085707E+03 0.  0.
          2    1    1    2  501    0 -0.55043738644E+02  0.48379500238E+02 -0.45185976400E+02  0.86093911924E+02  0.00000000000E+00 0. -1.
          1    1    1    2  502    0  0.18724137625E+02  0.44890727912E+02  0.42149965781E+03  0.42429675030E+03  0.00000000000E+00 0. -1.
         22    1    3    3    0    0 -0.96858654403E+00 -0.10641860149E+03  0.25229170464E+03  0.27381921250E+03  0.00000000000E+00 0.  1.
         22    1    3    3    0    0  0.37288187563E+02  0.13148373338E+02  0.26202979277E+02  0.47432950321E+02  0.00000000000E+00 0.  1.
</event>
<event>
 7    1  0.6255318E-006  0.1683855E+03  0.7818608E-02  0.1215291E+00
          2   -1    0    0  502    0  0.00000000000E+00  0.00000000000E+00  0.16267639302E+04  0.16267639302E+04  0.00000000000E+00 0. -1.
          1   -1    0    0  501    0 -0.00000000000E+00 -0.00000000000E+00 -0.93146134232E+03  0.93146134232E+03  0.00000000000E+00 0. -1.
         25    2    1    2    0    0  0.11578428986E+03 -0.17661446131E+02  0.29858715037E+03  0.34423230601E+03  0.12499466258E+03 0.  0.
          2    1    1    2  501    0  0.22019658868E+02 -0.11185758667E+03 -0.89816692380E+03  0.90537329764E+03  0.00000000000E+00 0. -1.
          1    1    1    2  502    0 -0.13780394873E+03  0.12951903280E+03  0.12948823613E+04  0.13086196689E+04  0.00000000000E+00 0. -1.
         22    1    3    3    0    0 -0.16834563627E+02 -0.33654020044E+02  0.70186681554E+02  0.79637716349E+02  0.00000000000E+00 0.  1.
         22    1    3    3    0    0  0.13261885349E+03  0.15992573913E+02  0.22840046882E+03  0.26459458966E+03  0.00000000000E+00 0.  1.
</event>
<event>
 7    1  0.6255318E-006  0.6314174E+02  0.7818608E-02  0.1423681E+00
          2   -1    0    0  502    0  0.00000000000E+00  0.00000000000E+00  0.79009886563E+03  0.79009886563E+03  0.00000000000E+00 0. -1.
          1   -1    0    0  501    0 -0.00000000000E+00 -0.00000000000E+00 -0.13364789326E+04  0.13364789326E+04  0.00000000000E+00 0. -1.
         25    2    1    2    0    0  0.16270941425E+02 -0.79400295852E+02  0.42567869514E+02  0.15493896973E+03  0.12499964123E+03 0.  0.
          2    1    1    2  501    0  0.25090699714E+02  0.57913484896E+02 -0.12787285726E+04  0.12802852328E+04  0.00000000000E+00 0. -1.
          1    1    1    2  502    0 -0.41361641139E+02  0.21486810956E+02  0.68978063609E+03  0.69135359573E+03  0.00000000000E+00 0. -1.
         22    1    3    3    0    0 -0.35284797223E+02 -0.69240263865E+02  0.61481020531E+02  0.99091608831E+02  0.00000000000E+00 0.  1.
         22    1    3    3    0    0  0.51555738648E+02 -0.10160031987E+02 -0.18913151017E+02  0.55847360895E+02  0.00000000000E+00 0.  1.
</event>
<event>
 7    1  0.6255318E-006  0.8404756E+02  0.7818608E-02  0.1458882E+00
          2   -1    0    0  502    0  0.00000000000E+00  0.00000000000E+00  0.24093236723E+04  0.24093236723E+04  0.00000000000E+00 0. -1.
          1   -1    0    0  501    0 -0.00000000000E+00 -0.00000000000E+00 -0.23618083739E+03  0.23618083739E+03  0.00000000000E+00 0. -1.
         25    2    1    2    0    0  0.10306825537E+02 -0.69053296348E+02  0.13825608574E+04  0.13899542240E+04  0.12499452697E+03 0.  0.
          2    1    1    2  501    0  0.12611694390E+02  0.83192158899E+02 -0.22468635778E+03  0.23992488306E+03  0.00000000000E+00 0. -1.
          1    1    1    2  502    0 -0.22918519927E+02 -0.14138862551E+02  0.10152683352E+04  0.10156254026E+04  0.00000000000E+00 0. -1.
         22    1    3    3    0    0  0.65482556741E+02 -0.53855564767E+02  0.73671317613E+03  0.74157581607E+03  0.00000000000E+00 0.  1.
         22    1    3    3    0    0 -0.55175731204E+02 -0.15197731581E+02  0.64584768132E+03  0.64837840789E+03  0.00000000000E+00 0.  1.
</event>
<event>
 7    1  0.6255318E-006  0.5269436E+02  0.7818608E-02  0.1443246E+00
          2   -1    0    0  502    0  0.00000000000E+00  0.00000000000E+00  0.19784675817E+04  0.19784675817E+04  0.00000000000E+00 0. -1.
          1   -1    0    0  501    0 -0.00000000000E+00 -0.00000000000E+00 -0.89773805274E+03  0.89773805274E+03  0.00000000000E+00 0. -1.
         25    2    1    2    0    0 -0.30796277355E+02 -0.82746336103E+02  0.11167360931E+03  0.18945382121E+03  0.12500555394E+03 0.  0.
          2    1    1    2  501    0 -0.80476721306E+01  0.47510914276E+02 -0.85779542387E+03  0.85914785759E+03  0.00000000000E+00 0. -1.
          1    1    1    2  502    0  0.38843949486E+02  0.35235421827E+02  0.18268513435E+04  0.18276039557E+04  0.00000000000E+00 0. -1.
         22    1    3    3    0    0 -0.26561710673E+02 -0.94935496793E+02  0.24834622852E+02  0.10166135705E+03  0.00000000000E+00 0.  1.
         22    1    3    3    0    0 -0.42345666824E+01  0.12189160690E+02  0.86838986462E+02  0.87792464159E+02  0.00000000000E+00 0.  1.
</event>
<event>
 7    1  0.6255318E-006  0.6761012E+02  0.7818608E-02  0.1439099E+00
          2   -1    0    0  502    0  0.00000000000E+00  0.00000000000E+00  0.15609602458E+04  0.15609602458E+04  0.00000000000E+00 0. -1.
          1   -1    0    0  501    0 -0.00000000000E+00 -0.00000000000E+00 -0.47479013217E+02  0.47479013217E+02  0.00000000000E+00 0. -1.
         25    2    1    2    0    0 -0.24844100075E+02  0.40537860994E+02  0.20828933307E+03  0.24752708225E+03  0.12499865076E+03 0.  0.
          2    1    1    2  501    0  0.63338216046E+02 -0.36207987734E+02  0.20700836190E+02  0.75837145296E+02  0.00000000000E+00 0. -1.
          1    1    1    2  502    0 -0.38494115971E+02 -0.43298732603E+01  0.12844910633E+04  0.12850750314E+04  0.00000000000E+00 0. -1.
         22    1    3    3    0    0 -0.32064092444E+02  0.83878201245E+02  0.13970624796E+03  0.16607677257E+03  0.00000000000E+00 0. -1.
         22    1    3    3    0    0  0.72199923689E+01 -0.43340340251E+02  0.68583085111E+02  0.81450309675E+02  0.00000000000E+00 0. -1.
</event>
<event>
 7    1  0.6255318E-006  0.1955738E+03  0.7818608E-02  0.1237737E+00
          2   -1    0    0  502    0  0.00000000000E+00  0.00000000000E+00  0.15331021302E+04  0.15331021302E+04  0.00000000000E+00 0. -1.
          1   -1    0    0  501    0 -0.00000000000E+00 -0.00000000000E+00 -0.13069853783E+03  0.13069853783E+03  0.00000000000E+00 0. -1.
         25    2    1    2    0    0 -0.44214285305E+02 -0.17692156504E+03  0.10499913146E+04  0.10730160866E+04  0.12500247232E+03 0.  0.
          2    1    1    2  501    0  0.49827569063E+02 -0.59679017114E+02 -0.71278550024E+02  0.10547513174E+03  0.00000000000E+00 0. -1.
          1    1    1    2  502    0 -0.56132837579E+01  0.23660058215E+03  0.42369082782E+03  0.48530944974E+03  0.00000000000E+00 0. -1.
         22    1    3    3    0    0 -0.30750210638E+02 -0.17206241064E+02  0.55849439514E+02  0.66036278513E+02  0.00000000000E+00 0. -1.
         22    1    3    3    0    0 -0.13464074667E+02 -0.15971532398E+03  0.99414187509E+03  0.10069798081E+04  0.00000000000E+00 0. -1.
</event>
<event>
 7    1  0.6255318E-006  0.3196736E+03  0.7818608E-02  0.1258841E+00
          2   -1    0    0  502    0  0.00000000000E+00  0.00000000000E+00  0.27196588289E+04  0.27196588289E+04  0.00000000000E+00 0. -1.
          1   -1    0    0  501    0 -0.00000000000E+00 -0.00000000000E+00 -0.21681761246E+03  0.21681761246E+03  0.00000000000E+00 0. -1.
         25    2    1    2    0    0 -0.23259869773E+02  0.34065170687E+03  0.93634985288E+03  0.10044699112E+04  0.12499659414E+03 0.  0.
          2    1    1    2  501    0  0.49853088413E+02 -0.31281204818E+03 -0.45100980558E+02  0.31995438168E+03  0.00000000000E+00 0. -1.
          1    1    1    2  502    0 -0.26593218640E+02 -0.27839658686E+02  0.16115923441E+04  0.16120521485E+04  0.00000000000E+00 0. -1.
         22    1    3    3    0    0 -0.57035699973E+02  0.31761106913E+03  0.82709632008E+03  0.88781652665E+03  0.00000000000E+00 0.  1.
         22    1    3    3    0    0  0.33775830200E+02  0.23040637737E+02  0.10925353280E+03  0.11665338453E+03  0.00000000000E+00 0.  1.
</event>
<event>
 7    1  0.6255318E-006  0.1438462E+03  0.7818608E-02  0.1292793E+00
          2   -1    0    0  502    0  0.00000000000E+00  0.00000000000E+00  0.11494905288E+03  0.11494905288E+03  0.00000000000E+00 0. -1.
          1   -1    0    0  501    0 -0.00000000000E+00 -0.00000000000E+00 -0.12838420148E+04  0.12838420148E+04  0.00000000000E+00 0. -1.
         25    2    1    2    0    0 -0.15948568910E+03  0.56900483446E+00 -0.73803561793E+03  0.76535408742E+03  0.12503718246E+03 0.  0.
          2    1    1    2  501    0  0.12768416367E+03  0.52421132241E+02 -0.51265901452E+03  0.53091476333E+03  0.00000000000E+00 0. -1.
          1    1    1    2  502    0  0.31801525436E+02 -0.52990137075E+02  0.81801670573E+02  0.10252221689E+03  0.00000000000E+00 0. -1.
         22    1    3    3    0    0 -0.31612570619E+02 -0.32858843147E+02 -0.64599861666E+02  0.79070856334E+02  0.00000000000E+00 0. -1.
         22    1    3    3    0    0 -0.12787311849E+03  0.33427847981E+02 -0.67343575627E+03  0.68628323109E+03  0.00000000000E+00 0. -1.
</event>
<event>
 7    1  0.6255318E-006  0.6473276E+02  0.7818608E-02  0.1384363E+00
          2   -1    0    0  502    0  0.00000000000E+00  0.00000000000E+00  0.18763430906E+04  0.18763430906E+04  0.00000000000E+00 0. -1.
          1   -1    0    0  501    0 -0.00000000000E+00 -0.00000000000E+00 -0.11816633865E+02  0.11816633865E+02  0.00000000000E+00 0. -1.
         25    2    1    2    0    0  0.11291469351E+02 -0.26393878667E+02  0.66287516363E+03  0.67517289246E+03  0.12502327002E+03 0.  0.
          2    1    1    2  501    0  0.61135621227E+02  0.21278294626E+02  0.23931409686E+03  0.24791443476E+03  0.00000000000E+00 0. -1.
          1    1    1    2  502    0 -0.72427090578E+02  0.51155840413E+01  0.96233719628E+03  0.96507239728E+03  0.00000000000E+00 0. -1.
         22    1    3    3    0    0 -0.22252570133E+02  0.43933920248E+02  0.30121430018E+03  0.30521372980E+03  0.00000000000E+00 0.  1.
         22    1    3    3    0    0  0.33544039484E+02 -0.70327798915E+02  0.36166086345E+03  0.36995916266E+03  0.00000000000E+00 0.  1.
</event>
<event>
 7    1  0.6255318E-006  0.1401116E+03  0.7818608E-02  0.1295233E+00
          2   -1    0    0  502    0  0.00000000000E+00  0.00000000000E+00  0.11306095941E+04  0.11306095941E+04  0.00000000000E+00 0. -1.
          1   -1    0    0  501    0 -0.00000000000E+00 -0.00000000000E+00 -0.79651941101E+03  0.79651941101E+03  0.00000000000E+00 0. -1.
         25    2    1    2    0    0  0.92495692572E+02 -0.78136740993E+01 -0.12473018597E+03  0.19949639823E+03  0.12499874786E+03 0.  0.
          2    1    1    2  501    0 -0.14737061899E+03  0.36721158812E+02 -0.62441647459E+03  0.64262156561E+03  0.00000000000E+00 0. -1.
          1    1    1    2  502    0  0.54874926416E+02 -0.28907484712E+02  0.10832368437E+04  0.10850110413E+04  0.00000000000E+00 0. -1.
         22    1    3    3    0    0  0.76844049846E+02 -0.58121241748E+02 -0.10681190753E+03  0.14384669036E+03  0.00000000000E+00 0. -1.
         22    1    3    3    0    0  0.15651642726E+02  0.50307567649E+02 -0.17918278446E+02  0.55649707863E+02  0.00000000000E+00 0. -1.
</event>
<event>
 7    1  0.6255318E-006  0.2613951E+02  0.7818608E-02  0.1646844E+00
          2   -1    0    0  502    0  0.00000000000E+00  0.00000000000E+00  0.60382558291E+02  0.60382558291E+02  0.00000000000E+00 0. -1.
          1   -1    0    0  501    0 -0.00000000000E+00 -0.00000000000E+00 -0.14338157747E+03  0.14338157747E+03  0.00000000000E+00 0. -1.
         25    2    1    2    0    0  0.75098729877E+01  0.20480251347E+02 -0.50405135259E+02  0.13653179366E+03  0.12499765650E+03 0.  0.
          2    1    1    2  501    0  0.20571144927E+02 -0.16127674017E+02 -0.28246171926E+02  0.38485323193E+02  0.00000000000E+00 0. -1.
          1    1    1    2  502    0 -0.28081017915E+02 -0.43525773305E+01 -0.43477119916E+01  0.28747018908E+02  0.00000000000E+00 0. -1.
         22    1    3    3    0    0 -0.51581752326E+02 -0.18588204519E+02 -0.12688850255E+02  0.56277930320E+02  0.00000000000E+00 0. -1.
         22    1    3    3    0    0  0.59091625314E+02  0.39068455867E+02 -0.37716285004E+02  0.80253863337E+02  0.00000000000E+00 0. -1.
</event>
<event>
 7    1  0.6255318E-006  0.2609095E+03  0.7818608E-02  0.1347679E+00
          2   -1    0    0  502    0  0.00000000000E+00  0.00000000000E+00  0.11321619057E+03  0.11321619057E+03  0.00000000000E+00 0. -1.
          1   -1    0    0  501    0 -0.00000000000E+00 -0.00000000000E+00 -0.19823959860E+04  0.19823959860E+04  0.00000000000E+00 0. -1.
         25    2    1    2    0    0  0.26634741614E+03 -0.67206578619E+02 -0.39618805291E+03  0.49804433923E+03  0.12500208107E+03 0.  0.
          2    1    1    2  501    0 -0.24693021300E+03  0.74845012464E+02 -0.15223074981E+04  0.15440195675E+04  0.00000000000E+00 0. -1.
          1    1    1    2  502    0 -0.19417203146E+02 -0.76384338456E+01  0.49315755620E+02  0.53548269832E+02  0.00000000000E+00 0. -1.
         22    1    3    3    0    0  0.85838043506E+02  0.19415684492E+02 -0.59200737727E+02  0.10606538486E+03  0.00000000000E+00 0. -1.
         22    1    3    3    0    0  0.18050937264E+03 -0.86622263110E+02 -0.33698731518E+03  0.39197895437E+03  0.00000000000E+00 0. -1.
</event>
<event>
 7    1  0.6255318E-006  0.1015188E+03  0.7818608E-02  0.1349819E+00
          2   -1    0    0  502    0  0.00000000000E+00  0.00000000000E+00  0.63974275059E+03  0.63974275059E+03  0.00000000000E+00 0. -1.
          1   -1    0    0  501    0 -0.00000000000E+00 -0.00000000000E+00 -0.14845560750E+04  0.14845560750E+04  0.00000000000E+00 0. -1.
         25    2    1    2    0    0 -0.68666137181E+02 -0.52467244558E+02 -0.37233483410E+03  0.40215231374E+03  0.12500161846E+03 0.  0.
          2    1    1    2  501    0 -0.32542903256E+02  0.41393112662E+02 -0.10925267844E+04  0.10937948642E+04  0.00000000000E+00 0. -1.
          1    1    1    2  502    0  0.10120904044E+03  0.11074131896E+02  0.62004829402E+03  0.62835164771E+03  0.00000000000E+00 0. -1.
         22    1    3    3    0    0  0.75133346623E+01 -0.25114303988E+02 -0.27190313960E+03  0.27316386252E+03  0.00000000000E+00 0.  1.
         22    1    3    3    0    0 -0.76179471843E+02 -0.27352940570E+02 -0.10043169449E+03  0.12898845122E+03  0.00000000000E+00 0.  1.
</event>
<event>
 7    1  0.6255318E-006  0.1296940E+03  0.7818608E-02  0.1429805E+00
          2   -1    0    0  502    0  0.00000000000E+00  0.00000000000E+00  0.37571225133E+03  0.37571225133E+03  0.00000000000E+00 0. -1.
          1   -1    0    0  501    0 -0.00000000000E+00 -0.00000000000E+00 -0.19387802927E+04  0.19387802927E+04  0.00000000000E+00 0. -1.
         25    2    1    2    0    0  0.10057964475E+03  0.42556834733E+02 -0.48357378025E+03  0.51127014434E+03  0.12500484160E+03 0.  0.
          2    1    1    2  501    0  0.16875385994E+02  0.13575356783E+02 -0.14295658654E+04  0.14297299160E+04  0.00000000000E+00 0. -1.
          1    1    1    2  502    0 -0.11745503075E+03 -0.56132191516E+02  0.35007160438E+03  0.37349248368E+03  0.00000000000E+00 0. -1.
         22    1    3    3    0    0  0.32858525247E+02  0.42038615418E+02 -0.40073547095E+03  0.40427199451E+03  0.00000000000E+00 0. -1.
         22    1    3    3    0    0  0.67721119508E+02  0.51821931471E+00 -0.82838309303E+02  0.10699814983E+03  0.00000000000E+00 0. -1.
</event>
<event>
 7    1  0.6255318E-006  0.4970556E+02  0.7818608E-02  0.1482331E+00
          2   -1    0    0  502    0  0.00000000000E+00  0.00000000000E+00  0.32334754977E+03  0.32334754977E+03  0.00000000000E+00 0. -1.
          1   -1    0    0  501    0 -0.00000000000E+00 -0.00000000000E+00 -0.98733971224E+03  0.98733971224E+03  0.00000000000E+00 0. -1.
         25    2    1    2    0    0 -0.19536262711E+02 -0.11493737583E+02 -0.28244208735E+03  0.30969810282E+03  0.12500244247E+03 0.  0.
          2    1    1    2  501    0  0.92419061420E+01 -0.37373688638E+02 -0.68871539285E+03  0.68979061880E+03  0.00000000000E+00 0. -1.
          1    1    1    2  502    0  0.10294356569E+02  0.48867426221E+02  0.30716531773E+03  0.31119854039E+03  0.00000000000E+00 0. -1.
         22    1    3    3    0    0  0.18784412497E+02 -0.60798252075E+02 -0.12351647599E+03  0.13894459849E+03  0.00000000000E+00 0.  1.
         22    1    3    3    0    0 -0.38320675208E+02  0.49304514492E+02 -0.15892561136E+03  0.17075350434E+03  0.00000000000E+00 0.  1.
</event>
<event>
 7    1  0.6255318E-006  0.1325106E+03  0.7818608E-02  0.1342732E+00
          2   -1    0    0  502    0  0.00000000000E+00  0.00000000000E+00  0.21963772568E+04  0.21963772568E+04  0.00000000000E+00 0. -1.
          1   -1    0    0  501    0 -0.00000000000E+00 -0.00000000000E+00 -0.41437530118E+03  0.41437530118E+03  0.00000000000E+00 0. -1.
         25    2    1    2    0    0  0.11612029661E+03  0.16715753228E+01  0.10565935516E+04  0.10702814731E+04  0.12500312407E+03 0.  0.
          2    1    1    2  501    0 -0.12659890961E+03  0.39896379829E+02 -0.39630267173E+03  0.41794115932E+03  0.00000000000E+00 0. -1.
          1    1    1    2  502    0  0.10478613003E+02 -0.41567955152E+02  0.11217110758E+04  0.11225299256E+04  0.00000000000E+00 0. -1.
         22    1    3    3    0    0  0.42633537061E+02  0.53267604310E+00  0.84885559499E+03  0.84992571639E+03  0.00000000000E+00 0.  1.
         22    1    3    3    0    0  0.73486759550E+02  0.11388992797E+01  0.20773795657E+03  0.22035575672E+03  0.00000000000E+00 0.  1.
</event>
<event>
 7    1  0.6255318E-006  0.7761148E+02  0.7818608E-02  0.1462293E+00
          2   -1    0    0  502    0  0.00000000000E+00  0.00000000000E+00  0.12117285448E+04  0.12117285448E+04  0.00000000000E+00 0. -1.
          1   -1    0    0  501    0 -0.00000000000E+00 -0.00000000000E+00 -0.36278502531E+03  0.36278502531E+03  0.00000000000E+00 0. -1.
         25    2    1    2    0    0 -0.85650454844E+02 -0.44305998273E+02  0.13964407003E+03  0.21077011764E+03  0.12499821717E+03 0.  0.
          2    1    1    2  501    0  0.10821866456E+02  0.26310450342E+02 -0.32517146630E+03  0.32641359513E+03  0.00000000000E+00 0. -1.
          1    1    1    2  502    0  0.74828588388E+02  0.17995547931E+02  0.10344709158E+04  0.10373298573E+04  0.00000000000E+00 0. -1.
         22    1    3    3    0    0 -0.18134568573E+02  0.39447134204E+01  0.12516249843E+03  0.12653092252E+03  0.00000000000E+00 0. -1.
         22    1    3    3    0    0 -0.67515886271E+02 -0.48250711694E+02  0.14481571603E+02  0.84239195117E+02  0.00000000000E+00 0. -1.
</event>
<event>
 7    1  0.6255318E-006  0.9491159E+02  0.7818608E-02  0.1377927E+00
          2   -1    0    0  502    0  0.00000000000E+00  0.00000000000E+00  0.35690406340E+04  0.35690406340E+04  0.00000000000E+00 0. -1.
          1   -1    0    0  501    0 -0.00000000000E+00 -0.00000000000E+00 -0.30475649872E+03  0.30475649872E+03  0.00000000000E+00 0. -1.
         25    2    1    2    0    0 -0.10427833278E+02 -0.89689541488E+02  0.37623890843E+02  0.15871790786E+03  0.12499145393E+03 0.  0.
          2    1    1    2  501    0 -0.43117776335E+02  0.11131366684E+02 -0.24152258116E+03  0.24559358129E+03  0.00000000000E+00 0. -1.
          1    1    1    2  502    0  0.53545609613E+02  0.78558174804E+02  0.34681828256E+04  0.34694856436E+04  0.00000000000E+00 0. -1.
         22    1    3    3    0    0 -0.23239903110E+02  0.23470901937E+02  0.29932573613E+02  0.44575052410E+02  0.00000000000E+00 0. -1.
         22    1    3    3    0    0  0.12812069833E+02 -0.11316044343E+03  0.76913172305E+01  0.11414285545E+03  0.00000000000E+00 0. -1.
</event>
<event>
 7    1  0.6255318E-006  0.9337514E+02  0.7818608E-02  0.1328840E+00
          2   -1    0    0  502    0  0.00000000000E+00  0.00000000000E+00  0.28903783308E+04  0.28903783308E+04  0.00000000000E+00 0. -1.
          1   -1    0    0  501    0 -0.00000000000E+00 -0.00000000000E+00 -0.11282758138E+03  0.11282758138E+03  0.00000000000E+00 0. -1.
         25    2    1    2    0    0 -0.67487087886E+01 -0.50308642297E+02  0.32868439382E+01  0.13495278370E+03  0.12499978370E+03 0.  0.
          2    1    1    2  501    0  0.97596931792E+02  0.28732781223E+02  0.97964047634E+01  0.10220911583E+03  0.00000000000E+00 0. -1.
          1    1    1    2  502    0 -0.90848223004E+02  0.21575861074E+02  0.27644675007E+04  0.27660440127E+04  0.00000000000E+00 0. -1.
         22    1    3    3    0    0  0.48481073799E+02 -0.66602229906E+01 -0.29666064362E+02  0.57226291700E+02  0.00000000000E+00 0.  1.
         22    1    3    3    0    0 -0.55229782588E+02 -0.43648419306E+02  0.32952908300E+02  0.77726491996E+02  0.00000000000E+00 0.  1.
</event>
<event>
 7    1  0.6255318E-006  0.5236059E+02  0.7818608E-02  0.1485571E+00
          2   -1    0    0  502    0  0.00000000000E+00  0.00000000000E+00  0.95467938789E+03  0.95467938789E+03  0.00000000000E+00 0. -1.
          1   -1    0    0  501    0 -0.00000000000E+00 -0.00000000000E+00 -0.31236098895E+03  0.31236098895E+03  0.00000000000E+00 0. -1.
         25    2    1    2    0    0  0.43004758914E+02 -0.47238757316E+02  0.44622535942E+03  0.46778454747E+03  0.12499760787E+03 0.  0.
          2    1    1    2  501    0 -0.50870026465E+02  0.12390550040E+02 -0.29866004676E+03  0.30321462507E+03  0.00000000000E+00 0. -1.
          1    1    1    2  502    0  0.78652675504E+01  0.34848207276E+02  0.49475308628E+03  0.49604120431E+03  0.00000000000E+00 0. -1.
         22    1    3    3    0    0 -0.21830833449E+02 -0.72807474690E+01  0.31664606786E+03  0.31748122285E+03  0.00000000000E+00 0.  1.
         22    1    3    3    0    0  0.64835592363E+02 -0.39958009847E+02  0.12957929156E+03  0.15030332462E+03  0.00000000000E+00 0.  1.
</event>
<event>
 7    1  0.6255318E-006  0.5787856E+02  0.7818608E-02  0.1459410E+00
          2   -1    0    0  502    0  0.00000000000E+00  0.00000000000E+00  0.90445891666E+03  0.90445891666E+03  0.00000000000E+00 0. -1.
          1   -1    0    0  501    0 -0.00000000000E+00 -0.00000000000E+00 -0.40468388249E+02  0.40468388249E+02  0.00000000000E+00 0. -1.
         25    2    1    2    0    0  0.21271348118E+02  0.72316778750E+02  0.21256846753E+03  0.25786201398E+03  0.12500111249E+03 0.  0.
          2    1    1    2  501    0 -0.40708302246E+02 -0.38557803406E+02  0.28447360046E+02  0.62873860776E+02  0.00000000000E+00 0. -1.
          1    1    1    2  502    0  0.19436954128E+02 -0.33758975344E+02  0.62297470084E+03  0.62419143016E+03  0.00000000000E+00 0. -1.
         22    1    3    3    0    0 -0.16829494991E+02  0.86652516135E+02  0.19396034233E+03  0.21310209959E+03  0.00000000000E+00 0. -1.
         22    1    3    3    0    0  0.38100843109E+02 -0.14335737385E+02  0.18608125199E+02  0.44759914381E+02  0.00000000000E+00 0. -1.
</event>
<event>
 7    1  0.6255318E-006  0.8747901E+02  0.7818608E-02  0.1429134E+00
          2   -1    0    0  502    0  0.00000000000E+00  0.00000000000E+00  0.36082819165E+03  0.36082819165E+03  0.00000000000E+00 0. -1.
          1   -1    0    0  501    0 -0.00000000000E+00 -0.00000000000E+00 -0.32931267867E+03  0.32931267867E+03  0.00000000000E+00 0. -1.
         25    2    1    2    0    0 -0.53207113614E+02 -0.37903912564E+02  0.74291223833E+02  0.15939560522E+03  0.12498027643E+03 0.  0.
          2    1    1    2  501    0  0.84162825828E+02  0.28775705685E+02 -0.27873829706E+03  0.29258581773E+03  0.00000000000E+00 0. -1.
          1    1    1    2  502    0 -0.30955712214E+02  0.91282068786E+01  0.23596258621E+03  0.23815944737E+03  0.00000000000E+00 0. -1.
         22    1    3    3    0    0 -0.37513205825E+02  0.33302552611E+02 -0.64814968147E+01  0.50579743205E+02  0.00000000000E+00 0. -1.
         22    1    3    3    0    0 -0.15693907789E+02 -0.71206465175E+02  0.80772720648E+02  0.10881586201E+03  0.00000000000E+00 0. -1.
</event>
<event>
 7    1  0.6255318E-006  0.5186369E+02  0.7818608E-02  0.1438783E+00
          2   -1    0    0  502    0  0.00000000000E+00  0.00000000000E+00  0.11031977961E+02  0.11031977961E+02  0.00000000000E+00 0. -1.
          1   -1    0    0  501    0 -0.00000000000E+00 -0.00000000000E+00 -0.16315767747E+04  0.16315767747E+04  0.00000000000E+00 0. -1.
         25    2    1    2    0    0 -0.35036125928E+01  0.29268273089E+01 -0.11446065190E+04  0.11514204345E+04  0.12499636852E+03 0.  0.
          2    1    1    2  501    0 -0.48020708025E+02  0.19592185361E+02 -0.34222770359E+03  0.34613529614E+03  0.00000000000E+00 0. -1.
          1    1    1    2  502    0  0.51524320618E+02 -0.22519012670E+02 -0.13371057424E+03  0.14505302206E+03  0.00000000000E+00 0. -1.
         22    1    3    3    0    0 -0.12464317561E+02 -0.53656404985E+02 -0.31046370402E+03  0.31531267105E+03  0.00000000000E+00 0.  1.
         22    1    3    3    0    0  0.89607049678E+01  0.56583232294E+02 -0.83414281494E+03  0.83610776346E+03  0.00000000000E+00 0.  1.
</event>
<event>
 7    1  0.6255318E-006  0.6155121E+02  0.7818608E-02  0.1397419E+00
          2   -1    0    0  502    0  0.00000000000E+00  0.00000000000E+00  0.28257327768E+03  0.28257327768E+03  0.00000000000E+00 0. -1.
          1   -1    0    0  501    0 -0.00000000000E+00 -0.00000000000E+00 -0.27244696088E+03  0.27244696088E+03  0.00000000000E+00 0. -1.
         25    2    1    2    0    0  0.19067435705E+02 -0.84445295065E+02 -0.14182066107E+03  0.20792049719E+03  0.12499303294E+03 0.  0.
          2    1    1    2  501    0  0.31522704930E+02  0.49494218542E+02 -0.84450570293E+02  0.10283607061E+03  0.00000000000E+00 0. -1.
          1    1    1    2  502    0 -0.50590140635E+02  0.34951076523E+02  0.23639754816E+03  0.24426367076E+03  0.00000000000E+00 0. -1.
         22    1    3    3    0    0  0.22055630823E+02  0.30016968771E+02 -0.40531339522E+02  0.55047786047E+02  0.00000000000E+00 0.  1.
         22    1    3    3    0    0 -0.29881951183E+01 -0.11446226384E+03 -0.10128932155E+03  0.15287271114E+03  0.00000000000E+00 0.  1.
</event>
<event>
 7    1  0.6255318E-006  0.4843862E+02  0.7818608E-02  0.1510308E+00
          2   -1    0    0  502    0  0.00000000000E+00  0.00000000000E+00  0.49518964600E+03  0.49518964600E+03  0.00000000000E+00 0. -1.
          1   -1    0    0  501    0 -0.00000000000E+00 -0.00000000000E+00 -0.16328017965E+04  0.16328017965E+04  0.00000000000E+00 0. -1.
         25    2    1    2    0    0 -0.60068754166E+02  0.47360036488E+02 -0.25479771087E+02  0.14873946417E+03  0.12499192447E+03 0.  0.
          2    1    1    2  501    0  0.31340587074E+02 -0.88454100711E+01 -0.15441887455E+04  0.15445320830E+04  0.00000000000E+00 0. -1.
          1    1    1    2  502    0  0.28728167092E+02 -0.38514626417E+02  0.43205636603E+03  0.43471989540E+03  0.00000000000E+00 0. -1.
         22    1    3    3    0    0 -0.83174298164E+02  0.10660740955E+02  0.19675312362E+02  0.86132068298E+02  0.00000000000E+00 0. -1.
         22    1    3    3    0    0  0.23105543998E+02  0.36699295533E+02 -0.45155083449E+02  0.62607395868E+02  0.00000000000E+00 0. -1.
</event>
<event>
 7    1  0.6255318E-006  0.1024752E+03  0.7818608E-02  0.1329904E+00
          2   -1    0    0  502    0  0.00000000000E+00  0.00000000000E+00  0.30172388189E+03  0.30172388189E+03  0.00000000000E+00 0. -1.
          1   -1    0    0  501    0 -0.00000000000E+00 -0.00000000000E+00 -0.21000496095E+04  0.21000496095E+04  0.00000000000E+00 0. -1.
         25    2    1    2    0    0  0.82531475559E+02 -0.68553236184E+02 -0.83065141852E+02  0.18448672644E+03  0.12499817515E+03 0.  0.
          2    1    1    2  501    0 -0.28435600293E+02  0.98818963874E+02 -0.19610791302E+04  0.19637731859E+04  0.00000000000E+00 0. -1.
          1    1    1    2  502    0 -0.54095875266E+02 -0.30265727690E+02  0.24581854440E+03  0.25351357905E+03  0.00000000000E+00 0. -1.
         22    1    3    3    0    0 -0.29958865557E+02 -0.37064602001E+02 -0.28788206315E+02  0.55678354589E+02  0.00000000000E+00 0. -1.
         22    1    3    3    0    0  0.11249034112E+03 -0.31488634183E+02 -0.54276935538E+02  0.12880837185E+03  0.00000000000E+00 0. -1.
</event>
<event>
 7    1  0.6255318E-006  0.8123101E+02  0.7818608E-02  0.1452667E+00
          2   -1    0    0  502    0  0.00000000000E+00  0.00000000000E+00  0.10690341575E+04  0.10690341575E+04  0.00000000000E+00 0. -1.
          1   -1    0    0  501    0 -0.00000000000E+00 -0.00000000000E+00 -0.13786305776E+03  0.13786305776E+03  0.00000000000E+00 0. -1.
         25    2    1    2    0    0  0.46422452105E+02 -0.68289765170E+02 -0.35680324677E+02  0.15403562712E+03  0.12504140420E+03 0.  0.
          2    1    1    2  501    0  0.19915562276E+02  0.21295965438E+02 -0.36221914446E+02  0.46499191937E+02  0.00000000000E+00 0. -1.
          1    1    1    2  502    0 -0.66338014381E+02  0.46993799731E+02  0.10030733388E+04  0.10063623962E+04  0.00000000000E+00 0. -1.
         22    1    3    3    0    0  0.80933167956E+02 -0.58624945670E+02  0.46992782832E+01  0.10004571528E+03  0.00000000000E+00 0. -1.
         22    1    3    3    0    0 -0.34510715851E+02 -0.96648195002E+01 -0.40379602960E+02  0.53989911833E+02  0.00000000000E+00 0. -1.
</event>
<event>
 7    1  0.6255318E-006  0.1288874E+03  0.7818608E-02  0.1238218E+00
          2   -1    0    0  502    0  0.00000000000E+00  0.00000000000E+00  0.18474619608E+04  0.18474619608E+04  0.00000000000E+00 0. -1.
          1   -1    0    0  501    0 -0.00000000000E+00 -0.00000000000E+00 -0.22360310212E+04  0.22360310212E+04  0.00000000000E+00 0. -1.
         25    2    1    2    0    0  0.14241202230E+02 -0.11416217817E+03 -0.19107967392E+03  0.25567942268E+03  0.12499884252E+03 0.  0.
          2    1    1    2  501    0  0.10013678876E+03  0.87721207984E+02 -0.20085476105E+04  0.20129545178E+04  0.00000000000E+00 0. -1.
          1    1    1    2  502    0 -0.11437799099E+03  0.26440970183E+02  0.18110582241E+04  0.18148590416E+04  0.00000000000E+00 0. -1.
         22    1    3    3    0    0  0.49379174622E+02 -0.89789676692E+02 -0.62157627043E+02  0.11985015447E+03  0.00000000000E+00 0. -1.
         22    1    3    3    0    0 -0.35137972392E+02 -0.24372501475E+02 -0.12892204687E+03  0.13582926821E+03  0.00000000000E+00 0. -1.
</event>
<event>
 7    1  0.6255318E-006  0.1151063E+03  0.7818608E-02  0.1288331E+00
          2   -1    0    0  502    0  0.00000000000E+00  0.00000000000E+00  0.13635281102E+03  0.13635281102E+03  0.00000000000E+00 0. -1.
          1   -1    0    0  501    0 -0.00000000000E+00 -0.00000000000E+00 -0.11655215761E+04  0.11655215761E+04  0.00000000000E+00 0. -1.
         25    2    1    2    0    0  0.16157764939E+03  0.53778589938E+02 -0.44009798077E+03  0.48817122842E+03  0.12500176825E+03 0.  0.
          2    1    1    2  501    0 -0.49519516437E+02 -0.63496729147E+02 -0.67019906281E+03  0.67501911152E+03  0.00000000000E+00 0. -1.
          1    1    1    2  502    0 -0.11205813295E+03  0.97181392084E+01  0.81128278459E+02  0.13868404723E+03  0.00000000000E+00 0. -1.
         22    1    3    3    0    0  0.42361472529E+02 -0.30810097734E+02 -0.53557786061E+02  0.74914570846E+02  0.00000000000E+00 0. -1.
         22    1    3    3    0    0  0.11921617686E+03  0.84588687673E+02 -0.38654019471E+03  0.41325665758E+03  0.00000000000E+00 0. -1.
</event>
<event>
 7    1  0.6255318E-006  0.7071392E+02  0.7818608E-02  0.1443883E+00
          2   -1    0    0  502    0  0.00000000000E+00  0.00000000000E+00  0.16632941723E+04  0.16632941723E+04  0.00000000000E+00 0. -1.
          1   -1    0    0  501    0 -0.00000000000E+00 -0.00000000000E+00 -0.75459053346E+02  0.75459053346E+02  0.00000000000E+00 0. -1.
         25    2    1    2    0    0 -0.61419666454E+02 -0.38918949525E+02  0.77325830720E+02  0.16398680281E+03  0.12500130935E+03 0.  0.
          2    1    1    2  501    0  0.72135499622E+02  0.48246364966E+01  0.90260596062E+01  0.72857924587E+02  0.00000000000E+00 0. -1.
          1    1    1    2  502    0 -0.10715833168E+02  0.34094313028E+02  0.15014832287E+04  0.15019084983E+04  0.00000000000E+00 0. -1.
         22    1    3    3    0    0 -0.34686733684E+02 -0.39878431600E+02 -0.24823959961E+02  0.58392531960E+02  0.00000000000E+00 0. -1.
         22    1    3    3    0    0 -0.26732932771E+02  0.95948207516E+00  0.10214979068E+03  0.10559427085E+03  0.00000000000E+00 0. -1.
</event>
<event>
 7    1  0.6255318E-006  0.1134020E+03  0.7818608E-02  0.1373156E+00
          2   -1    0    0  502    0  0.00000000000E+00  0.00000000000E+00  0.76176661500E+03  0.76176661500E+03  0.00000000000E+00 0. -1.
          1   -1    0    0  501    0 -0.00000000000E+00 -0.00000000000E+00 -0.67096898102E+03  0.67096898102E+03  0.00000000000E+00 0. -1.
         25    2    1    2    0    0  0.30750214989E+02 -0.13517877092E+03 -0.10521352791E+03  0.21424851972E+03  0.12495465544E+03 0.  0.
          2    1    1    2  501    0 -0.47528302022E+02  0.10023911597E+03 -0.50467790630E+03  0.51672682239E+03  0.00000000000E+00 0. -1.
          1    1    1    2  502    0  0.16778087032E+02  0.34939654949E+02  0.70068906820E+03  0.70176025392E+03  0.00000000000E+00 0. -1.
         22    1    3    3    0    0  0.74505324132E+02 -0.11814498020E+03 -0.79445836289E+02  0.16068889375E+03  0.00000000000E+00 0. -1.
         22    1    3    3    0    0 -0.43755109143E+02 -0.17033790722E+02 -0.25767691625E+02  0.53559625971E+02  0.00000000000E+00 0. -1.
</event>
<event>
 7    1  0.6255318E-006  0.6298312E+02  0.7818608E-02  0.1422219E+00
          2   -1    0    0  502    0  0.00000000000E+00  0.00000000000E+00  0.12907521263E+04  0.12907521263E+04  0.00000000000E+00 0. -1.
          1   -1    0    0  501    0 -0.00000000000E+00 -0.00000000000E+00 -0.48803729185E+03  0.48803729185E+03  0.00000000000E+00 0. -1.
         25    2    1    2    0    0  0.69658479874E+02  0.21409407735E+02  0.22026551480E+03  0.26354055995E+03  0.12500425261E+03 0.  0.
          2    1    1    2  501    0 -0.34378885032E+02 -0.52845361701E+02 -0.46373359081E+03  0.46799934106E+03  0.00000000000E+00 0. -1.
          1    1    1    2  502    0 -0.35279594842E+02  0.31435953966E+02  0.10461829105E+04  0.10472495172E+04  0.00000000000E+00 0. -1.
         22    1    3    3    0    0  0.90433005455E+01 -0.46688695201E+02  0.11402969902E+03  0.12354913113E+03  0.00000000000E+00 0. -1.
         22    1    3    3    0    0  0.60615179329E+02  0.68098102937E+02  0.10623581577E+03  0.13999142882E+03  0.00000000000E+00 0. -1.
</event>
<event>
 7    1  0.6255318E-006  0.1088337E+03  0.7818608E-02  0.1380733E+00
          2   -1    0    0  502    0  0.00000000000E+00  0.00000000000E+00  0.23821841986E+03  0.23821841986E+03  0.00000000000E+00 0. -1.
          1   -1    0    0  501    0 -0.00000000000E+00 -0.00000000000E+00 -0.15827224104E+04  0.15827224104E+04  0.00000000000E+00 0. -1.
         25    2    1    2    0    0 -0.41216010458E+02 -0.59343229104E+02 -0.93512017207E+01  0.14467400193E+03  0.12499097368E+03 0.  0.
          2    1    1    2  501    0  0.67319267930E+02  0.86897208011E+02 -0.15015639763E+04  0.15055820746E+04  0.00000000000E+00 0. -1.
          1    1    1    2  502    0 -0.26103257472E+02 -0.27553978907E+02  0.16641118751E+03  0.17068475366E+03  0.00000000000E+00 0. -1.
         22    1    3    3    0    0 -0.31358540871E+02  0.33682950827E+02  0.14285810439E+02  0.48186965478E+02  0.00000000000E+00 0.  1.
         22    1    3    3    0    0 -0.98574695866E+01 -0.93026179932E+02 -0.23637012160E+02  0.96487036451E+02  0.00000000000E+00 0.  1.
</event>
<event>
 7    1  0.6255318E-006  0.2278771E+03  0.7818608E-02  0.1336312E+00
          2   -1    0    0  502    0  0.00000000000E+00  0.00000000000E+00  0.55323429417E+03  0.55323429417E+03  0.00000000000E+00 0. -1.
          1   -1    0    0  501    0 -0.00000000000E+00 -0.00000000000E+00 -0.10757156035E+04  0.10757156035E+04  0.00000000000E+00 0. -1.
         25    2    1    2    0    0  0.87717042608E+01 -0.22141855547E+03  0.37223695827E+03  0.45087525490E+03  0.12500009151E+03 0.  0.
          2    1    1    2  501    0 -0.34817839934E+02  0.22543851576E+03 -0.10224833855E+04  0.10476197211E+04  0.00000000000E+00 0. -1.
          1    1    1    2  502    0  0.26046135673E+02 -0.40199602878E+01  0.12776511785E+03  0.13045492173E+03  0.00000000000E+00 0. -1.
         22    1    3    3    0    0 -0.54455092857E+01  0.54767391836E+01 -0.58594876858E+01  0.96944231084E+01  0.00000000000E+00 0. -1.
         22    1    3    3    0    0  0.14217213546E+02 -0.22689529466E+03  0.37809644596E+03  0.44118083180E+03  0.00000000000E+00 0. -1.
</event>
<event>
 7    1  0.6255318E-006  0.1391761E+03  0.7818608E-02  0.1374011E+00
          2   -1    0    0  502    0  0.00000000000E+00  0.00000000000E+00  0.67771355541E+03  0.67771355541E+03  0.00000000000E+00 0. -1.
          1   -1    0    0  501    0 -0.00000000000E+00 -0.00000000000E+00 -0.18102957653E+04  0.18102957653E+04  0.00000000000E+00 0. -1.
         25    2    1    2    0    0 -0.28922461785E+02  0.11535604704E+03  0.72309962069E+02  0.18707505018E+03  0.12499926960E+03 0.  0.
          2    1    1    2  501    0  0.58030802114E+02 -0.12702430791E+03 -0.17496801055E+04  0.17552444902E+04  0.00000000000E+00 0. -1.
          1    1    1    2  502    0 -0.29108340329E+02  0.11668260865E+02  0.54478793355E+03  0.54568978031E+03  0.00000000000E+00 0. -1.
         22    1    3    3    0    0  0.31802151933E+02  0.24353955344E+02  0.66358611464E+02  0.77511014210E+02  0.00000000000E+00 0. -1.
         22    1    3    3    0    0 -0.60724613718E+02  0.91002091699E+02  0.59513506058E+01  0.10956403597E+03  0.00000000000E+00 0. -1.
</event>
<event>
 7    1  0.6255318E-006  0.8394929E+02  0.7818608E-02  0.1395813E+00
          2   -1    0    0  502    0  0.00000000000E+00  0.00000000000E+00  0.21527188926E+04  0.21527188926E+04  0.00000000000E+00 0. -1.
          1   -1    0    0  501    0 -0.00000000000E+00 -0.00000000000E+00 -0.10206619343E+03  0.10206619343E+03  0.00000000000E+00 0. -1.
         25    2    1    2    0    0  0.82931771329E+00 -0.44620278475E+02  0.23525781743E+02  0.13479781686E+03  0.12500132801E+03 0.  0.
          2    1    1    2  501    0 -0.23002597271E+02 -0.37011585775E+02 -0.35143636101E+02  0.55982605523E+02  0.00000000000E+00 0. -1.
          1    1    1    2  502    0  0.22173279558E+02  0.81631864250E+02  0.20622705535E+04  0.20640046636E+04  0.00000000000E+00 0. -1.
         22    1    3    3    0    0 -0.23639427069E+02  0.37973836572E+02 -0.25268344070E+01  0.44802005181E+02  0.00000000000E+00 0. -1.
         22    1    3    3    0    0  0.24468744783E+02 -0.82594115047E+02  0.26052616150E+02  0.89995811680E+02  0.00000000000E+00 0. -1.
</event>
<event>
 7    1  0.6255318E-006  0.2367029E+03  0.7818608E-02  0.1284716E+00
          2   -1    0    0  502    0  0.00000000000E+00  0.00000000000E+00  0.30818227636E+04  0.30818227636E+04  0.00000000000E+00 0. -1.
          1   -1    0    0  501    0 -0.00000000000E+00 -0.00000000000E+00 -0.18597490903E+03  0.18597490903E+03  0.00000000000E+00 0. -1.
         25    2    1    2    0    0 -0.21176554455E+03  0.19671187384E+02  0.47213659577E+02  0.25117075250E+03  0.12500406310E+03 0.  0.
          2    1    1    2  501    0 -0.25894881649E+02 -0.31158108947E+02 -0.73977951264E+02  0.84345183158E+02  0.00000000000E+00 0. -1.
          1    1    1    2  502    0  0.23766042620E+03  0.11486921563E+02  0.29226121463E+04  0.29322817370E+04  0.00000000000E+00 0. -1.
         22    1    3    3    0    0 -0.31913852413E+02  0.12693940145E+02  0.61685791687E+02  0.70602882295E+02  0.00000000000E+00 0. -1.
         22    1    3    3    0    0 -0.17985169214E+03  0.69772472387E+01 -0.14472132111E+02  0.18056787021E+03  0.00000000000E+00 0. -1.
</event>
<event>
 7    1  0.6255318E-006  0.8608192E+02  0.7818608E-02  0.1420805E+00
          2   -1    0    0  502    0  0.00000000000E+00  0.00000000000E+00  0.20552077381E+04  0.20552077381E+04  0.00000000000E+00 0. -1.
          1   -1    0    0  501    0 -0.00000000000E+00 -0.00000000000E+00 -0.19122286255E+02  0.19122286255E+02  0.00000000000E+00 0. -1.
         25    2    1    2    0    0  0.72646778728E+01  0.79861914698E+02  0.17240964082E+04  0.17304809318E+04  0.12500051790E+03 0.  0.
          2    1    1    2  501    0  0.24549268220E+02  0.24877527191E+02  0.69271883838E+02  0.77589637322E+02  0.00000000000E+00 0. -1.
          1    1    1    2  502    0 -0.31813946093E+02 -0.10473944189E+03  0.24271715977E+03  0.26625945524E+03  0.00000000000E+00 0. -1.
         22    1    3    3    0    0 -0.34225614579E+02 -0.20175178409E+02  0.40349068201E+03  0.40544193294E+03  0.00000000000E+00 0. -1.
         22    1    3    3    0    0  0.41490292452E+02  0.10003709311E+03  0.13206057262E+04  0.13250389988E+04  0.00000000000E+00 0. -1.
</event>
<event>
 7    1  0.6255318E-006  0.5059226E+02  0.7818608E-02  0.1514314E+00
          2   -1    0    0  502    0  0.00000000000E+00  0.00000000000E+00  0.85897099872E+03  0.85897099872E+03  0.00000000000E+00 0. -1.
          1   -1    0    0  501    0 -0.00000000000E+00 -0.00000000000E+00 -0.93865704357E+02  0.93865704357E+02  0.00000000000E+00 0. -1.
         25    2    1    2    0    0  0.73675462792E+02 -0.13337340599E+02  0.19257211748E+03  0.24148358170E+03  0.12499736528E+03 0.  0.
          2    1    1    2  501    0 -0.29076782128E+02 -0.86845831333E+01 -0.65077655768E+02  0.71805170589E+02  0.00000000000E+00 0. -1.
          1    1    1    2  502    0 -0.44598680664E+02  0.22021923732E+02  0.63761083266E+03  0.63954795079E+03  0.00000000000E+00 0. -1.
         22    1    3    3    0    0  0.98117403509E+02 -0.39797172967E+02  0.11719337799E+03  0.15794026621E+03  0.00000000000E+00 0. -1.
         22    1    3    3    0    0 -0.24441940717E+02  0.26459832368E+02  0.75378739489E+02  0.83543315483E+02  0.00000000000E+00 0. -1.
</event>
<event>
 7    1  0.6255318E-006  0.9415983E+02  0.7818608E-02  0.1301621E+00
          2   -1    0    0  502    0  0.00000000000E+00  0.00000000000E+00  0.13798331476E+04  0.13798331476E+04  0.00000000000E+00 0. -1.
          1   -1    0    0  501    0 -0.00000000000E+00 -0.00000000000E+00 -0.36320985198E+03  0.36320985198E+03  0.00000000000E+00 0. -1.
         25    2    1    2    0    0  0.20340025834E+01  0.43975198895E+02 -0.47204280714E+02  0.14068212894E+03  0.12500104800E+03 0.  0.
          2    1    1    2  501    0  0.78896585697E+02 -0.75906751249E+02 -0.25664679294E+03  0.27902344426E+03  0.00000000000E+00 0. -1.
          1    1    1    2  502    0 -0.80930588280E+02  0.31931552354E+02  0.13204743692E+04  0.13233374263E+04  0.00000000000E+00 0. -1.
         22    1    3    3    0    0  0.23522818597E+02 -0.33477625195E+02  0.98849911971E+01  0.42092605459E+02  0.00000000000E+00 0. -1.
         22    1    3    3    0    0 -0.21488816013E+02  0.77452824090E+02 -0.57089271911E+02  0.98589523482E+02  0.00000000000E+00 0. -1.
</event>
<event>
 7    1  0.6255318E-006  0.8720376E+02  0.7818608E-02  0.1390860E+00
          2   -1    0    0  502    0  0.00000000000E+00  0.00000000000E+00  0.10946578640E+04  0.10946578640E+04  0.00000000000E+00 0. -1.
          1   -1    0    0  501    0 -0.00000000000E+00 -0.00000000000E+00 -0.18397490884E+03  0.18397490884E+03  0.00000000000E+00 0. -1.
         25    2    1    2    0    0  0.99412073232E+02  0.48373326831E+02  0.24864019723E+02  0.16871519115E+03  0.12499542870E+03 0.  0.
          2    1    1    2  501    0 -0.12883497180E+02 -0.41700926742E+02 -0.10583078394E+03  0.11447753762E+03  0.00000000000E+00 0. -1.
          1    1    1    2  502    0 -0.86528576052E+02 -0.66724000890E+01  0.99164971938E+03  0.99544004407E+03  0.00000000000E+00 0. -1.
         22    1    3    3    0    0  0.20509955974E+02 -0.22883611030E+02  0.50717563515E+02  0.59300836391E+02  0.00000000000E+00 0. -1.
         22    1    3    3    0    0  0.78902117258E+02  0.71256937861E+02 -0.25853543792E+02  0.10941435476E+03  0.00000000000E+00 0. -1.
</event>
<event>
 7    1  0.1081955E-005  0.5820815E+02  0.7818608E-02  0.1448844E+00
          2   -1    0    0  502    0  0.00000000000E+00  0.00000000000E+00  0.11613171106E+04  0.11613171106E+04  0.00000000000E+00 0. -1.
          1   -1    0    0  501    0 -0.00000000000E+00 -0.00000000000E+00 -0.12853526495E+04  0.12853526495E+04  0.00000000000E+00 0. -1.
         25    2    1    2    0    0  0.24673183976E+02  0.35064654362E+02 -0.41180863766E+03  0.43249238718E+03  0.12500005970E+03 0.  0.
          2    1    1    2  501    0 -0.59716749821E+02 -0.12185858688E+02 -0.86174505433E+03  0.86389763516E+03  0.00000000000E+00 0. -1.
          1    1    1    2  502    0  0.35043565845E+02 -0.22878795674E+02  0.11495181531E+04  0.11502797377E+04  0.00000000000E+00 0. -1.
         22    1    3    3    0    0  0.36696411776E+02 -0.28190459659E+02 -0.65189809380E+02  0.79943979761E+02  0.00000000000E+00 0. -1.
         22    1    3    3    0    0 -0.12023227801E+02  0.63255114021E+02 -0.34661882828E+03  0.35254840742E+03  0.00000000000E+00 0. -1.
</event>
<event>
 7    1  0.6255318E-006  0.4417889E+02  0.7818608E-02  0.1495200E+00
          2   -1    0    0  502    0  0.00000000000E+00  0.00000000000E+00  0.19835287268E+03  0.19835287268E+03  0.00000000000E+00 0. -1.
          1   -1    0    0  501    0 -0.00000000000E+00 -0.00000000000E+00 -0.58583751950E+03  0.58583751950E+03  0.00000000000E+00 0. -1.
         25    2    1    2    0    0  0.40420812361E+02 -0.25567567770E+01 -0.47290147354E+03  0.49081812259E+03  0.12500498672E+03 0.  0.
          2    1    1    2  501    0 -0.21587083688E+02  0.42520050031E+02 -0.95712058152E+02  0.10693341345E+03  0.00000000000E+00 0. -1.
          1    1    1    2  502    0 -0.18833728673E+02 -0.39963293254E+02  0.18112888487E+03  0.18643885614E+03  0.00000000000E+00 0. -1.
         22    1    3    3    0    0  0.23234116973E+02 -0.44164941465E+01 -0.47294009449E+03  0.47353105768E+03  0.00000000000E+00 0. -1.
         22    1    3    3    0    0  0.17186695388E+02  0.18597373695E+01  0.38620951142E-01  0.17287064904E+02  0.00000000000E+00 0. -1.
</event>
<event>
 7    1  0.6255318E-006  0.4512629E+02  0.7818608E-02  0.1477199E+00
          2   -1    0    0  502    0  0.00000000000E+00  0.00000000000E+00  0.53139701162E+02  0.53139701162E+02  0.00000000000E+00 0. -1.
          1   -1    0    0  501    0 -0.00000000000E+00 -0.00000000000E+00 -0.54946574470E+03  0.54946574470E+03  0.00000000000E+00 0. -1.
         25    2    1    2    0    0 -0.32406788565E+01 -0.10903680119E+02 -0.38021701271E+03  0.40039642104E+03  0.12499169967E+03 0.  0.
          2    1    1    2  501    0 -0.41691609667E+02  0.17268239031E+02 -0.14266319867E+03  0.14963011278E+03  0.00000000000E+00 0. -1.
          1    1    1    2  502    0  0.44932288524E+02 -0.63645589116E+01  0.26554167841E+02  0.52578912045E+02  0.00000000000E+00 0. -1.
         22    1    3    3    0    0  0.42218011120E+02  0.15403030423E+02 -0.30709944206E+03  0.31037023234E+03  0.00000000000E+00 0. -1.
         22    1    3    3    0    0 -0.45458689976E+02 -0.26306710542E+02 -0.73117570651E+02  0.90026188700E+02  0.00000000000E+00 0. -1.
</event>
<event>
 7    1  0.6255318E-006  0.1698517E+03  0.7818608E-02  0.1333329E+00
          2   -1    0    0  502    0  0.00000000000E+00  0.00000000000E+00  0.12278166497E+04  0.12278166497E+04  0.00000000000E+00 0. -1.
          1   -1    0    0  501    0 -0.00000000000E+00 -0.00000000000E+00 -0.67675127094E+03  0.67675127094E+03  0.00000000000E+00 0. -1.
         25    2    1    2    0    0  0.17197081357E+03 -0.16966498145E+02 -0.57661230612E+03  0.61478848404E+03  0.12498522220E+03 0.  0.
          2    1    1    2  501    0 -0.15297279111E+03  0.47887598361E+02 -0.12207652203E+01  0.16029780774E+03  0.00000000000E+00 0. -1.
          1    1    1    2  502    0 -0.18998022455E+02 -0.30921100216E+02  0.11288984501E+04  0.11294816289E+04  0.00000000000E+00 0. -1.
         22    1    3    3    0    0  0.90068118487E+02  0.52357959549E+02 -0.32379338967E+03  0.34014082538E+03  0.00000000000E+00 0.  1.
         22    1    3    3    0    0  0.81902695079E+02 -0.69324457694E+02 -0.25281891645E+03  0.27464765867E+03  0.00000000000E+00 0.  1.
</event>
<event>
 7    1  0.6255318E-006  0.2308155E+03  0.7818608E-02  0.1286257E+00
          2   -1    0    0  502    0  0.00000000000E+00  0.00000000000E+00  0.18751908116E+04  0.18751908116E+04  0.00000000000E+00 0. -1.
          1   -1    0    0  501    0 -0.00000000000E+00 -0.00000000000E+00 -0.16430480134E+04  0.16430480134E+04  0.00000000000E+00 0. -1.
         25    2    1    2    0    0  0.18207010521E+03 -0.18319035538E+03 -0.56838096410E+03  0.63670248826E+03  0.12499963476E+03 0.  0.
          2    1    1    2  501    0 -0.14387444162E+03  0.16843189230E+03 -0.10284848034E+04  0.10520694597E+04  0.00000000000E+00 0. -1.
          1    1    1    2  502    0 -0.38195663588E+02  0.14758463076E+02  0.18290085657E+04  0.18294668770E+04  0.00000000000E+00 0. -1.
         22    1    3    3    0    0  0.13615170829E+03 -0.55599681986E+02 -0.35004266007E+03  0.37968207249E+03  0.00000000000E+00 0.  1.
         22    1    3    3    0    0  0.45918396925E+02 -0.12759067339E+03 -0.21833830403E+03  0.25702041576E+03  0.00000000000E+00 0.  1.
</event>
<event>
 7    1  0.6255318E-006  0.9802771E+02  0.7818608E-02  0.1392706E+00
          2   -1    0    0  502    0  0.00000000000E+00  0.00000000000E+00  0.11833378861E+04  0.11833378861E+04  0.00000000000E+00 0. -1.
          1   -1    0    0  501    0 -0.00000000000E+00 -0.00000000000E+00 -0.49213432609E+02  0.49213432609E+02  0.00000000000E+00 0. -1.
         25    2    1    2    0    0  0.18065304508E+02 -0.61320563779E+02  0.54588181912E+03  0.56364891068E+03  0.12500626903E+03 0.  0.
          2    1    1    2  501    0 -0.25226176770E+02  0.98900620363E+02  0.25955851005E+02  0.10531571062E+03  0.00000000000E+00 0. -1.
          1    1    1    2  502    0  0.71608722624E+01 -0.37580056584E+02  0.56228678334E+03  0.56358669738E+03  0.00000000000E+00 0. -1.
         22    1    3    3    0    0 -0.17131505030E+02 -0.92009570228E+02  0.35325879282E+03  0.36544633557E+03  0.00000000000E+00 0.  1.
         22    1    3    3    0    0  0.35196809538E+02  0.30689006449E+02  0.19262302630E+03  0.19820257511E+03  0.00000000000E+00 0.  1.
</event>
<event>
 7    1  0.6255318E-006  0.2741062E+02  0.7818608E-02  0.1640890E+00
          2   -1    0    0  502    0  0.00000000000E+00  0.00000000000E+00  0.37615598137E+02  0.37615598137E+02  0.00000000000E+00 0. -1.
          1   -1    0    0  501    0 -0.00000000000E+00 -0.00000000000E+00 -0.11103687548E+04  0.11103687548E+04  0.00000000000E+00 0. -1.
         25    2    1    2    0    0 -0.29860035706E+02 -0.26812525390E+02 -0.86542348200E+03  0.87532501628E+03  0.12500219068E+03 0.  0.
          2    1    1    2  501    0  0.25109956076E+01  0.25416531326E+02 -0.23343343706E+03  0.23482647786E+03  0.00000000000E+00 0. -1.
          1    1    1    2  502    0  0.27349040098E+02  0.13959940640E+01  0.26103762400E+02  0.37832858802E+02  0.00000000000E+00 0. -1.
         22    1    3    3    0    0 -0.51821797977E+02 -0.52838857266E+02 -0.30436242392E+03  0.31323142990E+03  0.00000000000E+00 0.  1.
         22    1    3    3    0    0  0.21961762271E+02  0.26026331876E+02 -0.56106105809E+03  0.56209358639E+03  0.00000000000E+00 0.  1.
</event>
<event>
 7    1  0.6255318E-006  0.8557290E+02  0.7818608E-02  0.1392645E+00
          2   -1    0    0  502    0  0.00000000000E+00  0.00000000000E+00  0.20579033960E+03  0.20579033960E+03  0.00000000000E+00 0. -1.
          1   -1    0    0  501    0 -0.00000000000E+00 -0.00000000000E+00 -0.12681699734E+03  0.12681699734E+03  0.00000000000E+00 0. -1.
         25    2    1    2    0    0 -0.66607020201E+02 -0.28313365056E+01  0.91996177042E+02  0.16891590003E+03  0.12499909234E+03 0.  0.
          2    1    1    2  501    0 -0.41661076081E+02  0.13667470521E+02 -0.30605530400E+02  0.53470959424E+02  0.00000000000E+00 0. -1.
          1    1    1    2  502    0  0.10826809628E+03 -0.10836134015E+02  0.17582695616E+02  0.11022047749E+03  0.00000000000E+00 0. -1.
         22    1    3    3    0    0 -0.17607272521E+02  0.37707230274E+02  0.96571237923E+02  0.10515633721E+03  0.00000000000E+00 0. -1.
         22    1    3    3    0    0 -0.48999747680E+02 -0.40538566779E+02 -0.45750608814E+01  0.63759562822E+02  0.00000000000E+00 0. -1.
</event>
<event>
 7    1  0.6255318E-006  0.1331554E+03  0.7818608E-02  0.1334342E+00
          2   -1    0    0  502    0  0.00000000000E+00  0.00000000000E+00  0.33136803738E+03  0.33136803738E+03  0.00000000000E+00 0. -1.
          1   -1    0    0  501    0 -0.00000000000E+00 -0.00000000000E+00 -0.30725154858E+04  0.30725154858E+04  0.00000000000E+00 0. -1.
         25    2    1    2    0    0  0.81144045265E+02 -0.35380802697E+02 -0.31792807032E+02  0.15644067793E+03  0.12500698321E+03 0.  0.
          2    1    1    2  501    0 -0.12489039649E+03  0.49223596872E+02 -0.29749177300E+04  0.29779449414E+04  0.00000000000E+00 0. -1.
          1    1    1    2  502    0  0.43746351227E+02 -0.13842794175E+02  0.26556308858E+03  0.26949790391E+03  0.00000000000E+00 0. -1.
         22    1    3    3    0    0  0.98117849060E+02 -0.62380642299E+02 -0.40934487168E+02  0.12326430577E+03  0.00000000000E+00 0.  1.
         22    1    3    3    0    0 -0.16973803795E+02  0.26999839602E+02  0.91416801356E+01  0.33176372157E+02  0.00000000000E+00 0.  1.
</event>
<event>
 7    1  0.6255318E-006  0.7720235E+02  0.7818608E-02  0.1367678E+00
          2   -1    0    0  502    0  0.00000000000E+00  0.00000000000E+00  0.13213297790E+03  0.13213297790E+03  0.00000000000E+00 0. -1.
          1   -1    0    0  501    0 -0.00000000000E+00 -0.00000000000E+00 -0.52660062833E+03  0.52660062833E+03  0.00000000000E+00 0. -1.
         25    2    1    2    0    0 -0.11063674214E+03  0.61784646751E+02 -0.21291052625E+03  0.27751349968E+03  0.12500007613E+03 0.  0.
          2    1    1    2  501    0  0.37710433559E+02 -0.46117215944E+02 -0.26365286872E+03  0.27029929631E+03  0.00000000000E+00 0. -1.
          1    1    1    2  502    0  0.72926308584E+02 -0.15667430807E+02  0.82095744537E+02  0.11092081023E+03  0.00000000000E+00 0. -1.
         22    1    3    3    0    0 -0.62794923851E+02  0.80705717865E+02 -0.19976005336E+03  0.22441188533E+03  0.00000000000E+00 0. -1.
         22    1    3    3    0    0 -0.47841818291E+02 -0.18921071114E+02 -0.13150472884E+02  0.53101614350E+02  0.00000000000E+00 0. -1.
</event>
<event>
 7    1  0.6255318E-006  0.9969206E+02  0.7818608E-02  0.1345623E+00
          2   -1    0    0  502    0  0.00000000000E+00  0.00000000000E+00  0.13691912516E+04  0.13691912516E+04  0.00000000000E+00 0. -1.
          1   -1    0    0  501    0 -0.00000000000E+00 -0.00000000000E+00 -0.16405929409E+03  0.16405929409E+03  0.00000000000E+00 0. -1.
         25    2    1    2    0    0  0.10546513416E+02 -0.64815613268E+02  0.44368152261E+03  0.46560710390E+03  0.12499755610E+03 0.  0.
          2    1    1    2  501    0 -0.64524360772E+02  0.78063593912E+02 -0.13539180823E+03  0.16908063036E+03  0.00000000000E+00 0. -1.
          1    1    1    2  502    0  0.53977847356E+02 -0.13247980644E+02  0.89684224311E+03  0.89856281140E+03  0.00000000000E+00 0. -1.
         22    1    3    3    0    0  0.12325201212E+02 -0.82322262226E+02  0.43977303831E+03  0.44758149053E+03  0.00000000000E+00 0. -1.
         22    1    3    3    0    0 -0.17786877959E+01  0.17506648958E+02  0.39084843050E+01  0.18025613376E+02  0.00000000000E+00 0. -1.
</event>
<event>
 7    1  0.6255318E-006  0.8871965E+02  0.7818608E-02  0.1444478E+00
          2   -1    0    0  502    0  0.00000000000E+00  0.00000000000E+00  0.24519259507E+04  0.24519259507E+04  0.00000000000E+00 0. -1.
          1   -1    0    0  501    0 -0.00000000000E+00 -0.00000000000E+00 -0.14526728745E+02  0.14526728745E+02  0.00000000000E+00 0. -1.
         25    2    1    2    0    0  0.45087766563E+02  0.86341446390E+02  0.89487510441E+03  0.90879824736E+03  0.12500019948E+03 0.  0.
          2    1    1    2  501    0 -0.28359139544E+02 -0.19743708522E+00  0.25633651666E+02  0.38227789301E+02  0.00000000000E+00 0. -1.
          1    1    1    2  502    0 -0.16728627019E+02 -0.86144009305E+02  0.15168904659E+04  0.15194266428E+04  0.00000000000E+00 0. -1.
         22    1    3    3    0    0 -0.14572652823E+02  0.92825179408E+02  0.64555570503E+03  0.65235806460E+03  0.00000000000E+00 0.  1.
         22    1    3    3    0    0  0.59660419386E+02 -0.64837330179E+01  0.24931939937E+03  0.25644018277E+03  0.00000000000E+00 0.  1.
</event>
<event>
 7    1  0.6255318E-006  0.2143160E+03  0.7818608E-02  0.1234756E+00
          2   -1    0    0  502    0  0.00000000000E+00  0.00000000000E+00  0.17666294441E+04  0.17666294441E+04  0.00000000000E+00 0. -1.
          1   -1    0    0  501    0 -0.00000000000E+00 -0.00000000000E+00 -0.16865938746E+04  0.16865938746E+04  0.00000000000E+00 0. -1.
         25    2    1    2    0    0  0.11912025794E+03 -0.14508922459E+03  0.78466754487E+02  0.23877934511E+03  0.12497209748E+03 0.  0.
          2    1    1    2  501    0 -0.18450389202E+03  0.11230993602E+03 -0.15983376660E+04  0.16128665482E+04  0.00000000000E+00 0. -1.
          1    1    1    2  502    0  0.65383634087E+02  0.32779288564E+02  0.15999064810E+04  0.16015774253E+04  0.00000000000E+00 0. -1.
         22    1    3    3    0    0 -0.10829738832E+02  0.15296122791E+02  0.29283965055E+01  0.18969188747E+02  0.00000000000E+00 0.  1.
         22    1    3    3    0    0  0.12994999677E+03 -0.16038534738E+03  0.75538357982E+02  0.21981015636E+03  0.00000000000E+00 0.  1.
</event>
<event>
 7    1  0.6255318E-006  0.7177046E+02  0.7818608E-02  0.1407346E+00
          2   -1    0    0  502    0  0.00000000000E+00  0.00000000000E+00  0.20588908802E+02  0.20588908802E+02  0.00000000000E+00 0. -1.
          1   -1    0    0  501    0 -0.00000000000E+00 -0.00000000000E+00 -0.14258822481E+04  0.14258822481E+04  0.00000000000E+00 0. -1.
         25    2    1    2    0    0 -0.36488689917E+02 -0.38554580988E+02 -0.25603508120E+03  0.28982279336E+03  0.12500163415E+03 0.  0.
          2    1    1    2  501    0  0.73695889038E+02  0.10608564602E+02 -0.90067275559E+03  0.90374500738E+03  0.00000000000E+00 0. -1.
          1    1    1    2  502    0 -0.37207199121E+02  0.27946016386E+02 -0.24858550250E+03  0.25290335615E+03  0.00000000000E+00 0. -1.
         22    1    3    3    0    0 -0.40262297528E+02 -0.82431217575E+02 -0.17017206109E+03  0.19332482668E+03  0.00000000000E+00 0. -1.
         22    1    3    3    0    0  0.37736076108E+01  0.43876636587E+02 -0.85863020105E+02  0.96497966684E+02  0.00000000000E+00 0. -1.
</event>
<event>
 7    1  0.6255318E-006  0.6604885E+02  0.7818608E-02  0.1484474E+00
          2   -1    0    0  502    0  0.00000000000E+00  0.00000000000E+00  0.12978272602E+04  0.12978272602E+04  0.00000000000E+00 0. -1.
          1   -1    0    0  501    0 -0.00000000000E+00 -0.00000000000E+00 -0.17009690954E+03  0.17009690954E+03  0.00000000000E+00 0. -1.
         25    2    1    2    0    0  0.70675446491E+02 -0.10786021507E+02  0.64827308956E+02  0.15795458569E+03  0.12504284929E+03 0.  0.
          2    1    1    2  501    0 -0.14779705612E+02 -0.24414865187E+02 -0.12095176973E+03  0.12427331146E+03  0.00000000000E+00 0. -1.
          1    1    1    2  502    0 -0.55895740879E+02  0.35200886694E+02  0.11838548115E+04  0.11856962726E+04  0.00000000000E+00 0. -1.
         22    1    3    3    0    0  0.72482366865E+02 -0.57738773014E+02  0.24045515990E+02  0.95737381700E+02  0.00000000000E+00 0.  1.
         22    1    3    3    0    0 -0.18069203745E+01  0.46952751506E+02  0.40781792966E+02  0.62217203994E+02  0.00000000000E+00 0.  1.
</event>
<event>
 7    1  0.6255318E-006  0.2487560E+02  0.7818608E-02  0.1696871E+00
          2   -1    0    0  502    0  0.00000000000E+00  0.00000000000E+00  0.95196242884E+03  0.95196242884E+03  0.00000000000E+00 0. -1.
          1   -1    0    0  501    0 -0.00000000000E+00 -0.00000000000E+00 -0.14017589977E+04  0.14017589977E+04  0.00000000000E+00 0. -1.
         25    2    1    2    0    0  0.19040837554E+02 -0.29425515750E+02 -0.33241132772E+02  0.13400568206E+03  0.12499654173E+03 0.  0.
          2    1    1    2  501    0 -0.23115905511E+02  0.91664189274E+01 -0.13178998699E+04  0.13181344527E+04  0.00000000000E+00 0. -1.
          1    1    1    2  502    0  0.40750679570E+01  0.20259096823E+02  0.90134443385E+03  0.90158129174E+03  0.00000000000E+00 0. -1.
         22    1    3    3    0    0 -0.51768472784E+02 -0.26452793042E+02 -0.75616744947E+01  0.58625113691E+02  0.00000000000E+00 0.  1.
         22    1    3    3    0    0  0.70809310338E+02 -0.29727227077E+01 -0.25679458277E+02  0.75380568374E+02  0.00000000000E+00 0.  1.
</event>
<event>
 7    1  0.6255318E-006  0.8174200E+02  0.7818608E-02  0.1358714E+00
          2   -1    0    0  502    0  0.00000000000E+00  0.00000000000E+00  0.11941005141E+04  0.11941005141E+04  0.00000000000E+00 0. -1.
          1   -1    0    0  501    0 -0.00000000000E+00 -0.00000000000E+00 -0.19335619879E+03  0.19335619879E+03  0.00000000000E+00 0. -1.
         25    2    1    2    0    0  0.94135661560E+01  0.25131552913E+02  0.69380420636E+03  0.70548545624E+03  0.12500096809E+03 0.  0.
          2    1    1    2  501    0  0.81740263197E+02  0.53351866968E+00 -0.17376284453E+03  0.19202937642E+03  0.00000000000E+00 0. -1.
          1    1    1    2  502    0 -0.91153829353E+02 -0.25665071582E+02  0.48070295348E+03  0.48994188022E+03  0.00000000000E+00 0. -1.
         22    1    3    3    0    0  0.35762787768E+02  0.14709709237E+02  0.62164484847E+02  0.73210489078E+02  0.00000000000E+00 0.  1.
         22    1    3    3    0    0 -0.26349221612E+02  0.10421843676E+02  0.63163972152E+03  0.63227496716E+03  0.00000000000E+00 0.  1.
</event>
<event>
 7    1  0.6255318E-006  0.1886512E+03  0.7818608E-02  0.1269068E+00
          2   -1    0    0  502    0  0.00000000000E+00  0.00000000000E+00  0.11242981017E+04  0.11242981017E+04  0.00000000000E+00 0. -1.
          1   -1    0    0  501    0 -0.00000000000E+00 -0.00000000000E+00 -0.56902317663E+03  0.56902317663E+03  0.00000000000E+00 0. -1.
         25    2    1    2    0    0 -0.20362760425E+03  0.97517790548E+02 -0.12488883302E+03  0.28669855638E+03  0.12499968372E+03 0.  0.
          2    1    1    2  501    0  0.17293846510E+03 -0.47082092372E+02 -0.34021384985E+03  0.38453855433E+03  0.00000000000E+00 0. -1.
          1    1    1    2  502    0  0.30689139154E+02 -0.50435698176E+02  0.10203776079E+04  0.10220841676E+04  0.00000000000E+00 0. -1.
         22    1    3    3    0    0 -0.21374026235E+03  0.95665917371E+02 -0.90912762186E+02  0.25120111032E+03  0.00000000000E+00 0. -1.
         22    1    3    3    0    0  0.10112658095E+02  0.18518731770E+01 -0.33976070833E+02  0.35497446066E+02  0.00000000000E+00 0. -1.
</event>
<event>
 7    1  0.8943157E-006  0.5641146E+02  0.7818608E-02  0.1474148E+00
          2   -1    0    0  502    0  0.00000000000E+00  0.00000000000E+00  0.21614221018E+04  0.21614221018E+04  0.00000000000E+00 0. -1.
          1   -1    0    0  501    0 -0.00000000000E+00 -0.00000000000E+00 -0.74319996078E+03  0.74319996078E+03  0.00000000000E+00 0. -1.
         25    2    1    2    0    0  0.29271052765E+02  0.14704736307E+02 -0.11542657335E+03  0.17326776788E+03  0.12500160700E+03 0.  0.
          2    1    1    2  501    0 -0.57294017270E+02  0.78090997530E+01 -0.59730502365E+03  0.60009739021E+03  0.00000000000E+00 0. -1.
          1    1    1    2  502    0  0.28022964505E+02 -0.22513836060E+02  0.21309537380E+04  0.21312569045E+04  0.00000000000E+00 0. -1.
         22    1    3    3    0    0 -0.49152273678E+02  0.31523494053E+00 -0.38020299058E+02  0.62141681030E+02  0.00000000000E+00 0. -1.
         22    1    3    3    0    0  0.78423326442E+02  0.14389501367E+02 -0.77406274291E+02  0.11112608685E+03  0.00000000000E+00 0. -1.
</event>
<event>
 7    1  0.6255318E-006  0.9945395E+02  0.7818608E-02  0.1389248E+00
          2   -1    0    0  502    0  0.00000000000E+00  0.00000000000E+00  0.62051479944E+03  0.62051479944E+03  0.00000000000E+00 0. -1.
          1   -1    0    0  501    0 -0.00000000000E+00 -0.00000000000E+00 -0.23229124324E+03  0.23229124324E+03  0.00000000000E+00 0. -1.
         25    2    1    2    0    0 -0.28636769775E+02 -0.12946311235E+03  0.60126064158E+02  0.19188638391E+03  0.12499791476E+03 0.  0.
          2    1    1    2  501    0  0.20914304964E+02  0.32643409344E+02 -0.15929442175E+03  0.16394423786E+03  0.00000000000E+00 0. -1.
          1    1    1    2  502    0  0.77224648109E+01  0.96819703009E+02  0.48739191380E+03  0.49697542091E+03  0.00000000000E+00 0. -1.
         22    1    3    3    0    0 -0.33879872295E+02  0.59477027255E+01  0.43350431202E+02  0.55339685578E+02  0.00000000000E+00 0. -1.
         22    1    3    3    0    0  0.52431025202E+01 -0.13541081508E+03  0.16775632956E+02  0.13654669833E+03  0.00000000000E+00 0. -1.
</event>
<event>
 7    1  0.6255318E-006  0.4298200E+02  0.7818608E-02  0.1563977E+00
          2   -1    0    0  502    0  0.00000000000E+00  0.00000000000E+00  0.86964456944E+01  0.86964456944E+01  0.00000000000E+00 0. -1.
          1   -1    0    0  501    0 -0.00000000000E+00 -0.00000000000E+00 -0.25409193054E+04  0.25409193054E+04  0.00000000000E+00 0. -1.
         25    2    1    2    0    0  0.36290717348E+02 -0.12075506182E+02 -0.16476710278E+04  0.16528488249E+04  0.12500635222E+03 0.  0.
          2    1    1    2  501    0  0.52063765971E+01  0.25311241767E+02 -0.81008451131E+03  0.81049656432E+03  0.00000000000E+00 0. -1.
          1    1    1    2  502    0 -0.41497093945E+02 -0.13235735586E+02 -0.74467320650E+02  0.86270361928E+02  0.00000000000E+00 0. -1.
         22    1    3    3    0    0  0.44411232473E+02 -0.52876822101E+02 -0.14004937391E+04  0.14021950753E+04  0.00000000000E+00 0.  1.
         22    1    3    3    0    0 -0.81205151250E+01  0.40801315920E+02 -0.24717728864E+03  0.25065374956E+03  0.00000000000E+00 0.  1.
</event>
<event>
 7    1  0.6255318E-006  0.4365127E+02  0.7818608E-02  0.1585054E+00
          2   -1    0    0  502    0  0.00000000000E+00  0.00000000000E+00  0.25636401061E+03  0.25636401061E+03  0.00000000000E+00 0. -1.
          1   -1    0    0  501    0 -0.00000000000E+00 -0.00000000000E+00 -0.89311421750E+03  0.89311421750E+03  0.00000000000E+00 0. -1.
         25    2    1    2    0    0 -0.43099023833E+02  0.75079523120E+01 -0.45448927148E+03  0.47339030349E+03  0.12499594530E+03 0.  0.
          2    1    1    2  501    0  0.19809234847E+01 -0.22230978564E+02 -0.42694935077E+03  0.42753232461E+03  0.00000000000E+00 0. -1.
          1    1    1    2  502    0  0.41118100348E+02  0.14723026252E+02  0.24468841537E+03  0.24855560000E+03  0.00000000000E+00 0. -1.
         22    1    3    3    0    0 -0.77527857253E+02  0.31886174636E+02 -0.22615203580E+03  0.24118880587E+03  0.00000000000E+00 0. -1.
         22    1    3    3    0    0  0.34428833420E+02 -0.24378222324E+02 -0.22833723568E+03  0.23220149761E+03  0.00000000000E+00 0. -1.
</event>
<event>
 7    1  0.6255318E-006  0.9181517E+02  0.7818608E-02  0.1471837E+00
          2   -1    0    0  502    0  0.00000000000E+00  0.00000000000E+00  0.92033120068E+03  0.92033120068E+03  0.00000000000E+00 0. -1.
          1   -1    0    0  501    0 -0.00000000000E+00 -0.00000000000E+00 -0.66110458930E+03  0.66110458930E+03  0.00000000000E+00 0. -1.
         25    2    1    2    0    0 -0.88659148059E+02  0.57719147828E+02  0.24874745625E+03  0.29780847006E+03  0.12499057280E+03 0.  0.
          2    1    1    2  501    0  0.60079502292E+01 -0.21633911216E+02 -0.63323168750E+03  0.63362961707E+03  0.00000000000E+00 0. -1.
          1    1    1    2  502    0  0.82651197830E+02 -0.36085236612E+02  0.64371084262E+03  0.64999770285E+03  0.00000000000E+00 0. -1.
         22    1    3    3    0    0  0.16319976613E+02 -0.23113678902E+02  0.24909867304E+02  0.37697284758E+02  0.00000000000E+00 0.  1.
         22    1    3    3    0    0 -0.10497912467E+03  0.80832826730E+02  0.22383758895E+03  0.26011118530E+03  0.00000000000E+00 0.  1.
</event>
<event>
 7    1  0.6255318E-006  0.1814502E+03  0.7818608E-02  0.1342776E+00
          2   -1    0    0  502    0  0.00000000000E+00  0.00000000000E+00  0.51889849546E+03  0.51889849546E+03  0.00000000000E+00 0. -1.
          1   -1    0    0  501    0 -0.00000000000E+00 -0.00000000000E+00 -0.70683685944E+03  0.70683685944E+03  0.00000000000E+00 0. -1.
         25    2    1    2    0    0  0.88110313626E+02 -0.16600204664E+03  0.15397899949E+02  0.22623516478E+03  0.12500059043E+03 0.  0.
          2    1    1    2  501    0 -0.30845064245E+02 -0.52822402196E+01 -0.58049082554E+03  0.58133374113E+03  0.00000000000E+00 0. -1.
          1    1    1    2  502    0 -0.57265249382E+02  0.17128428686E+03  0.37715456161E+03  0.41816644898E+03  0.00000000000E+00 0. -1.
         22    1    3    3    0    0  0.33453414859E+02 -0.10046209225E+03  0.68136994518E+02  0.12591430803E+03  0.00000000000E+00 0. -1.
         22    1    3    3    0    0  0.54656898768E+02 -0.65539954386E+02 -0.52739094568E+02  0.10032085675E+03  0.00000000000E+00 0. -1.
</event>
<event>
 7    1  0.6255318E-006  0.5275758E+02  0.7818608E-02  0.1480937E+00
          2   -1    0    0  502    0  0.00000000000E+00  0.00000000000E+00  0.87568670989E+02  0.87568670989E+02  0.00000000000E+00 0. -1.
          1   -1    0    0  501    0 -0.00000000000E+00 -0.00000000000E+00 -0.47166443140E+03  0.47166443140E+03  0.00000000000E+00 0. -1.
         25    2    1    2    0    0 -0.33038481228E+02  0.44621236493E+02 -0.14022159187E+03  0.19587977300E+03  0.12499677858E+03 0.  0.
          2    1    1    2  501    0 -0.25095477251E+01 -0.53459623341E+02 -0.29535832694E+03  0.30016790377E+03  0.00000000000E+00 0. -1.
          1    1    1    2  502    0  0.35548028953E+02  0.88383868480E+01  0.51484158404E+02  0.63185425623E+02  0.00000000000E+00 0. -1.
         22    1    3    3    0    0  0.39571335376E+02  0.36449946788E+02 -0.97175431233E+02  0.11107454092E+03  0.00000000000E+00 0.  1.
         22    1    3    3    0    0 -0.72609816604E+02  0.81712897051E+01 -0.43046160637E+02  0.84805232081E+02  0.00000000000E+00 0.  1.
</event>
<event>
 7    1  0.6255318E-006  0.8176755E+02  0.7818608E-02  0.1402849E+00
          2   -1    0    0  502    0  0.00000000000E+00  0.00000000000E+00  0.34418303919E+03  0.34418303919E+03  0.00000000000E+00 0. -1.
          1   -1    0    0  501    0 -0.00000000000E+00 -0.00000000000E+00 -0.14895486147E+04  0.14895486147E+04  0.00000000000E+00 0. -1.
         25    2    1    2    0    0  0.49832338657E+02  0.89255163626E+02  0.16938466296E+03  0.23402052804E+03  0.12499878914E+03 0.  0.
          2    1    1    2  501    0 -0.64846392070E+02 -0.49695000815E+02 -0.14529160551E+04  0.14552112256E+04  0.00000000000E+00 0. -1.
          1    1    1    2  502    0  0.15014053413E+02 -0.39560162810E+02  0.13816581669E+03  0.14449990029E+03  0.00000000000E+00 0. -1.
         22    1    3    3    0    0  0.84332018934E+02  0.77024193739E+02  0.86048128179E+02  0.14299963707E+03  0.00000000000E+00 0.  1.
         22    1    3    3    0    0 -0.34499680277E+02  0.12230969887E+02  0.83336534783E+02  0.91020890972E+02  0.00000000000E+00 0.  1.
</event>
<event>
 7    1  0.7088962E-006  0.1178449E+03  0.7818608E-02  0.1309829E+00
          2   -1    0    0  502    0  0.00000000000E+00  0.00000000000E+00  0.17895320579E+04  0.17895320579E+04  0.00000000000E+00 0. -1.
          1   -1    0    0  501    0 -0.00000000000E+00 -0.00000000000E+00 -0.71789501857E+03  0.71789501857E+03  0.00000000000E+00 0. -1.
         25    2    1    2    0    0 -0.14195677597E+03 -0.10299706939E+03 -0.11728859626E+03  0.24523792462E+03  0.12499960924E+03 0.  0.
          2    1    1    2  501    0  0.83701201660E+02  0.75324612825E+02 -0.53011332247E+03  0.54194079300E+03  0.00000000000E+00 0. -1.
          1    1    1    2  502    0  0.58255574315E+02  0.27672456564E+02  0.17190389581E+04  0.17202483589E+04  0.00000000000E+00 0. -1.
         22    1    3    3    0    0 -0.12864381932E+03 -0.10265814376E+03 -0.14186394263E+03  0.21728622816E+03  0.00000000000E+00 0. -1.
         22    1    3    3    0    0 -0.13312956656E+02 -0.33892562946E+00  0.24575346370E+02  0.27951696455E+02  0.00000000000E+00 0. -1.
</event>
<event>
 7    1  0.6255318E-006  0.1010191E+03  0.7818608E-02  0.1384938E+00
          2   -1    0    0  502    0  0.00000000000E+00  0.00000000000E+00  0.15026310297E+04  0.15026310297E+04  0.00000000000E+00 0. -1.
          1   -1    0    0  501    0 -0.00000000000E+00 -0.00000000000E+00 -0.11743492515E+04  0.11743492515E+04  0.00000000000E+00 0. -1.
         25    2    1    2    0    0  0.65176959520E+02  0.12131707937E+03  0.17799250874E+02  0.18683458542E+03  0.12499791669E+03 0.  0.
          2    1    1    2  501    0 -0.27447962008E+02 -0.28431132728E+02 -0.10876778171E+04  0.10883954951E+04  0.00000000000E+00 0. -1.
          1    1    1    2  502    0 -0.37728997512E+02 -0.92885946647E+02  0.13981603444E+04  0.14017502006E+04  0.00000000000E+00 0. -1.
         22    1    3    3    0    0 -0.24815898520E+02  0.57060281040E+02 -0.26606529622E+02  0.67672829927E+02  0.00000000000E+00 0. -1.
         22    1    3    3    0    0  0.89992858040E+02  0.64256798334E+02  0.44405780497E+02  0.11916175549E+03  0.00000000000E+00 0. -1.
</event>
<event>
 7    1  0.1196070E-005  0.6056340E+02  0.7818608E-02  0.1445593E+00
          2   -1    0    0  502    0  0.00000000000E+00  0.00000000000E+00  0.95972882971E+03  0.95972882971E+03  0.00000000000E+00 0. -1.
          1   -1    0    0  501    0 -0.00000000000E+00 -0.00000000000E+00 -0.11308170765E+04  0.11308170765E+04  0.00000000000E+00 0. -1.
         25    2    1    2    0    0  0.22820375972E+02 -0.89931320866E+02 -0.35033091337E+03  0.38336133511E+03  0.12500300943E+03 0.  0.
          2    1    1    2  501    0  0.38436628555E+01  0.58520357638E+02 -0.76239429112E+03  0.76464662500E+03  0.00000000000E+00 0. -1.
          1    1    1    2  502    0 -0.26664038827E+02  0.31410963228E+02  0.94163695773E+03  0.94253794605E+03  0.00000000000E+00 0. -1.
         22    1    3    3    0    0  0.14457074138E+02 -0.10452053433E+03 -0.35101492265E+03  0.36653106964E+03  0.00000000000E+00 0.  1.
         22    1    3    3    0    0  0.83633018336E+01  0.14589213466E+02  0.68400928165E+00  0.16830265471E+02  0.00000000000E+00 0.  1.
</event>
<event>
 7    1  0.6255318E-006  0.7470912E+02  0.7818608E-02  0.1424965E+00
          2   -1    0    0  502    0  0.00000000000E+00  0.00000000000E+00  0.11763824462E+04  0.11763824462E+04  0.00000000000E+00 0. -1.
          1   -1    0    0  501    0 -0.00000000000E+00 -0.00000000000E+00 -0.91327037918E+03  0.91327037918E+03  0.00000000000E+00 0. -1.
         25    2    1    2    0    0 -0.10225346503E+03  0.53056597590E+01  0.11187609343E+03  0.19652829368E+03  0.12499275498E+03 0.  0.
          2    1    1    2  501    0  0.33020645078E+02  0.20767867116E+02 -0.86916768332E+03  0.87004260185E+03  0.00000000000E+00 0. -1.
          1    1    1    2  502    0  0.69232819957E+02 -0.26073526875E+02  0.10204036569E+04  0.10230819299E+04  0.00000000000E+00 0. -1.
         22    1    3    3    0    0 -0.48482511453E+02 -0.46613073127E+02  0.10049142686E+03  0.12092088064E+03  0.00000000000E+00 0. -1.
         22    1    3    3    0    0 -0.53770953581E+02  0.51918732886E+02  0.11384666572E+02  0.75607413039E+02  0.00000000000E+00 0. -1.
</event>
<event>
 7    1  0.6255318E-006  0.1658440E+03  0.7818608E-02  0.1284063E+00
          2   -1    0    0  502    0  0.00000000000E+00  0.00000000000E+00  0.39098366808E+03  0.39098366808E+03  0.00000000000E+00 0. -1.
          1   -1    0    0  501    0 -0.00000000000E+00 -0.00000000000E+00 -0.53001415103E+03  0.53001415103E+03  0.00000000000E+00 0. -1.
         25    2    1    2    0    0 -0.52211133236E+02  0.11976296016E+03  0.40574647475E+02  0.18531050960E+03  0.12499805555E+03 0.  0.
          2    1    1    2  501    0  0.12450000963E+02  0.56833907118E+02 -0.42599504746E+03  0.42994985287E+03  0.00000000000E+00 0. -1.
          1    1    1    2  502    0  0.39761132273E+02 -0.17659686727E+03  0.24638991704E+03  0.30573745663E+03  0.00000000000E+00 0. -1.
         22    1    3    3    0    0 -0.15105985741E+02 -0.81758273199E+01 -0.29992583487E+02  0.34562841633E+02  0.00000000000E+00 0.  1.
         22    1    3    3    0    0 -0.37105147495E+02  0.12793878748E+03  0.70567230962E+02  0.15074766796E+03  0.00000000000E+00 0.  1.
</event>
<event>
 7    1  0.6255318E-006  0.7235835E+02  0.7818608E-02  0.1370659E+00
          2   -1    0    0  502    0  0.00000000000E+00  0.00000000000E+00  0.75144016480E+03  0.75144016480E+03  0.00000000000E+00 0. -1.
          1   -1    0    0  501    0 -0.00000000000E+00 -0.00000000000E+00 -0.29716810780E+04  0.29716810780E+04  0.00000000000E+00 0. -1.
         25    2    1    2    0    0  0.23185150492E+02  0.22229629961E+02 -0.20369205446E+02  0.13065731972E+03  0.12499889205E+03 0.  0.
          2    1    1    2  501    0 -0.36136736492E+02  0.50391523372E+02 -0.28938809824E+04  0.28945452682E+04  0.00000000000E+00 0. -1.
          1    1    1    2  502    0  0.12951585999E+02 -0.72621153333E+02  0.69400927466E+03  0.69791865486E+03  0.00000000000E+00 0. -1.
         22    1    3    3    0    0  0.27988602467E+02 -0.31776370398E+02 -0.52642529455E+02  0.67559865979E+02  0.00000000000E+00 0. -1.
         22    1    3    3    0    0 -0.48034519745E+01  0.54006000359E+02  0.32273324009E+02  0.63097453738E+02  0.00000000000E+00 0. -1.
</event>
<event>
 7    1  0.6255318E-006  0.8039945E+02  0.7818608E-02  0.1381223E+00
          2   -1    0    0  502    0  0.00000000000E+00  0.00000000000E+00  0.26682040354E+04  0.26682040354E+04  0.00000000000E+00 0. -1.
          1   -1    0    0  501    0 -0.00000000000E+00 -0.00000000000E+00 -0.36655901411E+04  0.36655901411E+04  0.00000000000E+00 0. -1.
         25    2    1    2    0    0 -0.39823727531E+02 -0.11518757907E+02 -0.58765223476E+03  0.60222730078E+03  0.12499584687E+03 0.  0.
          2    1    1    2  501    0 -0.37016003334E+02  0.35335807092E+02 -0.30698290467E+04  0.30702555561E+04  0.00000000000E+00 0. -1.
          1    1    1    2  502    0  0.76839730865E+02 -0.23817049186E+02  0.26600951758E+04  0.26613113197E+04  0.00000000000E+00 0. -1.
         22    1    3    3    0    0 -0.56419854619E+02 -0.53190380631E+02 -0.25395237163E+03  0.26552631441E+03  0.00000000000E+00 0.  1.
         22    1    3    3    0    0  0.16596127088E+02  0.41671622724E+02 -0.33369986312E+03  0.33670098637E+03  0.00000000000E+00 0.  1.
</event>
<event>
 7    1  0.6255318E-006  0.1690024E+03  0.7818608E-02  0.1220055E+00
          2   -1    0    0  502    0  0.00000000000E+00  0.00000000000E+00  0.17457306082E+04  0.17457306082E+04  0.00000000000E+00 0. -1.
          1   -1    0    0  501    0 -0.00000000000E+00 -0.00000000000E+00 -0.21790928271E+04  0.21790928271E+04  0.00000000000E+00 0. -1.
         25    2    1    2    0    0  0.21458643488E+03 -0.80871007955E+02  0.71663197776E+03  0.76274114576E+03  0.12500082371E+03 0.  0.
          2    1    1    2  501    0 -0.57995049666E+02  0.91137958085E+02 -0.21485534153E+04  0.21512673780E+04  0.00000000000E+00 0. -1.
          1    1    1    2  502    0 -0.15659138521E+03 -0.10266950130E+02  0.99855921869E+03  0.10108149116E+04  0.00000000000E+00 0. -1.
         22    1    3    3    0    0  0.13940913070E+03  0.13758631520E+01  0.50078809397E+03  0.51983219772E+03  0.00000000000E+00 0.  1.
         22    1    3    3    0    0  0.75177304171E+02 -0.82246871107E+02  0.21584388379E+03  0.24290894804E+03  0.00000000000E+00 0.  1.
</event>
<event>
 7    1  0.1286060E-005  0.1036519E+03  0.7818608E-02  0.1432690E+00
          2   -1    0    0  502    0  0.00000000000E+00  0.00000000000E+00  0.26297134049E+04  0.26297134049E+04  0.00000000000E+00 0. -1.
          1   -1    0    0  501    0 -0.00000000000E+00 -0.00000000000E+00 -0.18298597968E+04  0.18298597968E+04  0.00000000000E+00 0. -1.
         25    2    1    2    0    0  0.79844026998E+02  0.31756836511E+01 -0.73082330720E+03  0.74572945795E+03  0.12499825794E+03 0.  0.
          2    1    1    2  501    0  0.22369603778E+02  0.14234249480E+02 -0.10903972433E+04  0.10907195613E+04  0.00000000000E+00 0. -1.
          1    1    1    2  502    0 -0.10221363078E+03 -0.17409933131E+02  0.26210741586E+04  0.26231241826E+04  0.00000000000E+00 0. -1.
         22    1    3    3    0    0 -0.63734187566E+01 -0.47012810300E+02 -0.28095477740E+03  0.28493229326E+03  0.00000000000E+00 0. -1.
         22    1    3    3    0    0  0.86217445754E+02  0.50188493951E+02 -0.44986852980E+03  0.46079716469E+03  0.00000000000E+00 0. -1.
</event>
<event>
 7    1  0.6255318E-006  0.7554733E+02  0.7818608E-02  0.1369785E+00
          2   -1    0    0  502    0  0.00000000000E+00  0.00000000000E+00  0.83660403760E+03  0.83660403760E+03  0.00000000000E+00 0. -1.
          1   -1    0    0  501    0 -0.00000000000E+00 -0.00000000000E+00 -0.37655046809E+02  0.37655046809E+02  0.00000000000E+00 0. -1.
         25    2    1    2    0    0 -0.29158511274E+02  0.76029373096E+01  0.33354547778E+03  0.35747024962E+03  0.12499748071E+03 0.  0.
          2    1    1    2  501    0  0.85648578609E+02  0.12086916937E+02  0.56011077805E+02  0.10304859735E+03  0.00000000000E+00 0. -1.
          1    1    1    2  502    0 -0.56490067335E+02 -0.19689854246E+02  0.40939243521E+03  0.41374023744E+03  0.00000000000E+00 0. -1.
         22    1    3    3    0    0  0.10758285898E+02  0.47446325839E+02  0.55686180966E+02  0.73944880159E+02  0.00000000000E+00 0. -1.
         22    1    3    3    0    0 -0.39916797172E+02 -0.39843388529E+02  0.27785929681E+03  0.28352536947E+03  0.00000000000E+00 0. -1.
</event>
<event>
 7    1  0.6255318E-006  0.7631424E+02  0.7818608E-02  0.1411153E+00
          2   -1    0    0  502    0  0.00000000000E+00  0.00000000000E+00  0.12238884951E+04  0.12238884951E+04  0.00000000000E+00 0. -1.
          1   -1    0    0  501    0 -0.00000000000E+00 -0.00000000000E+00 -0.33709344549E+03  0.33709344549E+03  0.00000000000E+00 0. -1.
         25    2    1    2    0    0  0.85427287705E+01  0.33309576998E+02 -0.14080263104E+03  0.19139860072E+03  0.12500214924E+03 0.  0.
          2    1    1    2  501    0  0.38627316831E+01  0.42304579951E+02 -0.16710797513E+03  0.17242294955E+03  0.00000000000E+00 0. -1.
          1    1    1    2  502    0 -0.12405460454E+02 -0.75614156949E+02  0.11947056558E+04  0.11971603903E+04  0.00000000000E+00 0. -1.
         22    1    3    3    0    0 -0.50037546449E+02 -0.16535156090E+02 -0.59293193378E+02  0.79327487182E+02  0.00000000000E+00 0. -1.
         22    1    3    3    0    0  0.58580275219E+02  0.49844733088E+02 -0.81509437666E+02  0.11207111354E+03  0.00000000000E+00 0. -1.
</event>
<event>
 7    1  0.6255318E-006  0.4508474E+02  0.7818608E-02  0.1521371E+00
          2   -1    0    0  502    0  0.00000000000E+00  0.00000000000E+00  0.55046275642E+02  0.55046275642E+02  0.00000000000E+00 0. -1.
          1   -1    0    0  501    0 -0.00000000000E+00 -0.00000000000E+00 -0.50295168101E+03  0.50295168101E+03  0.00000000000E+00 0. -1.
         25    2    1    2    0    0 -0.56312448601E+02  0.17190191846E+02 -0.18981652883E+03  0.23477987274E+03  0.12499871785E+03 0.  0.
          2    1    1    2  501    0  0.27616127826E+02  0.17095012427E+02 -0.27388195815E+03  0.27580104598E+03  0.00000000000E+00 0. -1.
          1    1    1    2  502    0  0.28696320775E+02 -0.34285204273E+02  0.15793081620E+02  0.47417037920E+02  0.00000000000E+00 0. -1.
         22    1    3    3    0    0  0.39161100209E+02 -0.39812573574E+01 -0.67941461572E+02  0.78520598445E+02  0.00000000000E+00 0.  1.
         22    1    3    3    0    0 -0.95473548810E+02  0.21171449203E+02 -0.12187506726E+03  0.15625927430E+03  0.00000000000E+00 0.  1.
</event>
<event>
 7    1  0.6255318E-006  0.6247657E+02  0.7818608E-02  0.1417086E+00
          2   -1    0    0  502    0  0.00000000000E+00  0.00000000000E+00  0.88003266597E+03  0.88003266597E+03  0.00000000000E+00 0. -1.
          1   -1    0    0  501    0 -0.00000000000E+00 -0.00000000000E+00 -0.16286070549E+03  0.16286070549E+03  0.00000000000E+00 0. -1.
         25    2    1    2    0    0  0.17942935587E+02  0.11711205269E+01  0.11036551476E+02  0.12677733786E+03  0.12500946951E+03 0.  0.
          2    1    1    2  501    0  0.32494655116E+02  0.37414320828E+02 -0.97820113461E+02  0.10965632044E+03  0.00000000000E+00 0. -1.
          1    1    1    2  502    0 -0.50437590704E+02 -0.38585441354E+02  0.80395552247E+03  0.80645971316E+03  0.00000000000E+00 0. -1.
         22    1    3    3    0    0  0.70090907767E+02  0.83447829198E+01 -0.74693679602E+01  0.70980012759E+02  0.00000000000E+00 0. -1.
         22    1    3    3    0    0 -0.52147972180E+02 -0.71736623929E+01  0.18505919436E+02  0.55797325104E+02  0.00000000000E+00 0. -1.
</event>
<event>
 7    1  0.6255318E-006  0.1106504E+03  0.7818608E-02  0.1295031E+00
          2   -1    0    0  502    0  0.00000000000E+00  0.00000000000E+00  0.71016964790E+03  0.71016964790E+03  0.00000000000E+00 0. -1.
          1   -1    0    0  501    0 -0.00000000000E+00 -0.00000000000E+00 -0.16755727273E+04  0.16755727273E+04  0.00000000000E+00 0. -1.
         25    2    1    2    0    0 -0.73102548434E+02 -0.15492474137E+03 -0.61272728836E+03  0.64838628138E+03  0.12499752764E+03 0.  0.
          2    1    1    2  501    0  0.15103468111E+02  0.10175086432E+03 -0.10402352257E+04  0.10453088911E+04  0.00000000000E+00 0. -1.
          1    1    1    2  502    0  0.57999080324E+02  0.53173877043E+02  0.68755943465E+03  0.69204720265E+03  0.00000000000E+00 0. -1.
         22    1    3    3    0    0 -0.51618582344E+02 -0.77782521579E+02 -0.50824178316E+03  0.51674394902E+03  0.00000000000E+00 0.  1.
         22    1    3    3    0    0 -0.21483966091E+02 -0.77142219787E+02 -0.10448550520E+03  0.13164233236E+03  0.00000000000E+00 0.  1.
</event>
<event>
 7    1  0.6255318E-006  0.2818331E+03  0.7818608E-02  0.1218827E+00
          2   -1    0    0  502    0  0.00000000000E+00  0.00000000000E+00  0.50359901205E+03  0.50359901205E+03  0.00000000000E+00 0. -1.
          1   -1    0    0  501    0 -0.00000000000E+00 -0.00000000000E+00 -0.45520679750E+03  0.45520679750E+03  0.00000000000E+00 0. -1.
         25    2    1    2    0    0  0.28484395127E+03  0.70016087903E+02  0.11452987552E+02  0.31905264647E+03  0.12500036463E+03 0.  0.
          2    1    1    2  501    0 -0.35112618993E+02  0.55434072898E+02 -0.23850029075E+03  0.24736252978E+03  0.00000000000E+00 0. -1.
          1    1    1    2  502    0 -0.24973133228E+03 -0.12545016080E+03  0.27543951775E+03  0.39239063330E+03  0.00000000000E+00 0. -1.
         22    1    3    3    0    0  0.14533999009E+03  0.96687718478E+02  0.25139929445E+02  0.17636395232E+03  0.00000000000E+00 0.  1.
         22    1    3    3    0    0  0.13950396118E+03 -0.26671630575E+02 -0.13686941893E+02  0.14268869416E+03  0.00000000000E+00 0.  1.
</event>
<event>
 7    1  0.6255318E-006  0.7501560E+02  0.7818608E-02  0.1387828E+00
          2   -1    0    0  502    0  0.00000000000E+00  0.00000000000E+00  0.13903767160E+03  0.13903767160E+03  0.00000000000E+00 0. -1.
          1   -1    0    0  501    0 -0.00000000000E+00 -0.00000000000E+00 -0.23495893122E+04  0.23495893122E+04  0.00000000000E+00 0. -1.
         25    2    1    2    0    0 -0.47536270776E+02 -0.83506010300E+01 -0.17613362204E+03  0.22129951154E+03  0.12498396463E+03 0.  0.
          2    1    1    2  501    0 -0.11219516974E+01 -0.51977286373E+02 -0.21376258539E+04  0.21382579799E+04  0.00000000000E+00 0. -1.
          1    1    1    2  502    0  0.48658222474E+02  0.60327887403E+02  0.10320783531E+03  0.12906949246E+03  0.00000000000E+00 0. -1.
         22    1    3    3    0    0 -0.83351983836E+02  0.62708903235E+01 -0.15762018352E+03  0.17841244219E+03  0.00000000000E+00 0.  1.
         22    1    3    3    0    0  0.35815713060E+02 -0.14621491354E+02 -0.18513438524E+02  0.42887069349E+02  0.00000000000E+00 0.  1.
</event>
<event>
 7    1  0.6255318E-006  0.7283632E+02  0.7818608E-02  0.1351778E+00
          2   -1    0    0  502    0  0.00000000000E+00  0.00000000000E+00  0.34387567087E+03  0.34387567087E+03  0.00000000000E+00 0. -1.
          1   -1    0    0  501    0 -0.00000000000E+00 -0.00000000000E+00 -0.28369590205E+04  0.28369590205E+04  0.00000000000E+00 0. -1.
         25    2    1    2    0    0 -0.70607906549E+02  0.29257912531E+02 -0.14644998218E+03  0.20715779726E+03  0.12500101509E+03 0.  0.
          2    1    1    2  501    0  0.10296837436E+02 -0.71435944056E+02 -0.26553390101E+04  0.26563197054E+04  0.00000000000E+00 0. -1.
          1    1    1    2  502    0  0.60311069112E+02  0.42178031525E+02  0.30870564264E+03  0.31735718867E+03  0.00000000000E+00 0. -1.
         22    1    3    3    0    0 -0.75682060443E+01 -0.11829514800E+02  0.20029668655E+02  0.24462272780E+02  0.00000000000E+00 0. -1.
         22    1    3    3    0    0 -0.63039700504E+02  0.41087427332E+02 -0.16647965083E+03  0.18269552448E+03  0.00000000000E+00 0. -1.
</event>
<event>
 7    1  0.6255318E-006  0.8392472E+02  0.7818608E-02  0.1339656E+00
          2   -1    0    0  502    0  0.00000000000E+00  0.00000000000E+00  0.16861436193E+04  0.16861436193E+04  0.00000000000E+00 0. -1.
          1   -1    0    0  501    0 -0.00000000000E+00 -0.00000000000E+00 -0.12191541992E+03  0.12191541992E+03  0.00000000000E+00 0. -1.
         25    2    1    2    0    0  0.21263100409E+00 -0.62731390822E+02  0.99206079212E+03  0.10018705438E+04  0.12499879456E+03 0.  0.
          2    1    1    2  501    0  0.80512285235E+02  0.23688182898E+02 -0.98584526305E+02  0.12946917359E+03  0.00000000000E+00 0. -1.
          1    1    1    2  502    0 -0.80724916239E+02  0.39043207924E+02  0.67075193360E+03  0.67671932189E+03  0.00000000000E+00 0. -1.
         22    1    3    3    0    0  0.52258575820E+01 -0.76259160852E+02  0.29759340544E+03  0.30725332246E+03  0.00000000000E+00 0.  1.
         22    1    3    3    0    0 -0.50132265779E+01  0.13527770030E+02  0.69446738668E+03  0.69461722133E+03  0.00000000000E+00 0.  1.
</event>
<event>
 7    1  0.6255318E-006  0.2383824E+03  0.7818608E-02  0.1303547E+00
          2   -1    0    0  502    0  0.00000000000E+00  0.00000000000E+00  0.33171060230E+04  0.33171060230E+04  0.00000000000E+00 0. -1.
          1   -1    0    0  501    0 -0.00000000000E+00 -0.00000000000E+00 -0.54277035779E+03  0.54277035779E+03  0.00000000000E+00 0. -1.
         25    2    1    2    0    0 -0.23917798158E+03  0.65020634070E+02  0.23298908176E+04  0.23463694099E+04  0.12499758517E+03 0.  0.
          2    1    1    2  501    0  0.29873562760E+02  0.15732697560E+02 -0.52112501589E+03  0.52221760762E+03  0.00000000000E+00 0. -1.
          1    1    1    2  502    0  0.20930441882E+03 -0.80753331631E+02  0.96556986348E+03  0.99128936318E+03  0.00000000000E+00 0. -1.
         22    1    3    3    0    0 -0.38180722833E+02  0.56051625301E+02  0.87628429884E+03  0.87890484394E+03  0.00000000000E+00 0. -1.
         22    1    3    3    0    0 -0.20099725875E+03  0.89690087691E+01  0.14536065188E+04  0.14674645660E+04  0.00000000000E+00 0. -1.
</event>
<event>
 7    1  0.6255318E-006  0.2456382E+03  0.7818608E-02  0.1238393E+00
          2   -1    0    0  502    0  0.00000000000E+00  0.00000000000E+00  0.23161224169E+03  0.23161224169E+03  0.00000000000E+00 0. -1.
          1   -1    0    0  501    0 -0.00000000000E+00 -0.00000000000E+00 -0.14072373606E+04  0.14072373606E+04  0.00000000000E+00 0. -1.
         25    2    1    2    0    0  0.18233515204E+03  0.63982004302E+02  0.58782824981E+02  0.23752808833E+03  0.12499747074E+03 0.  0.
          2    1    1    2  501    0 -0.22556017275E+03 -0.10771209017E+03 -0.12926700222E+04  0.13166150053E+04  0.00000000000E+00 0. -1.
          1    1    1    2  502    0  0.43225020717E+02  0.43730085869E+02  0.58262078356E+02  0.84706508608E+02  0.00000000000E+00 0. -1.
         22    1    3    3    0    0  0.16345338669E+03  0.88981935631E+02  0.76867441785E+02  0.20135391254E+03  0.00000000000E+00 0.  1.
         22    1    3    3    0    0  0.18881765342E+02 -0.24999931329E+02 -0.18084616804E+02  0.36174175787E+02  0.00000000000E+00 0.  1.
</event>
<event>
 7    1  0.6255318E-006  0.3184267E+02  0.7818608E-02  0.1581406E+00
          2   -1    0    0  502    0  0.00000000000E+00  0.00000000000E+00  0.11237808683E+04  0.11237808683E+04  0.00000000000E+00 0. -1.
          1   -1    0    0  501    0 -0.00000000000E+00 -0.00000000000E+00 -0.11678378462E+04  0.11678378462E+04  0.00000000000E+00 0. -1.
         25    2    1    2    0    0  0.31445481221E+02  0.22269826832E+02 -0.46711325644E+03  0.48508218003E+03  0.12500065426E+03 0.  0.
          2    1    1    2  501    0 -0.30857795452E+02  0.90145413002E+01 -0.69114687403E+03  0.69189411543E+03  0.00000000000E+00 0. -1.
          1    1    1    2  502    0 -0.58768576902E+00 -0.31284368132E+02  0.11142031526E+04  0.11146424190E+04  0.00000000000E+00 0. -1.
         22    1    3    3    0    0 -0.37570324421E+02  0.40452378569E+02 -0.26631508373E+03  0.27197729323E+03  0.00000000000E+00 0.  1.
         22    1    3    3    0    0  0.69015805642E+02 -0.18182551737E+02 -0.20079817271E+03  0.21310488680E+03  0.00000000000E+00 0.  1.
</event>
<event>
 7    1  0.6255318E-006  0.1327131E+03  0.7818608E-02  0.1382728E+00
          2   -1    0    0  502    0  0.00000000000E+00  0.00000000000E+00  0.16320458161E+04  0.16320458161E+04  0.00000000000E+00 0. -1.
          1   -1    0    0  501    0 -0.00000000000E+00 -0.00000000000E+00 -0.72053877923E+02  0.72053877923E+02  0.00000000000E+00 0. -1.
         25    2    1    2    0    0  0.11735712134E+03  0.37731890922E+02  0.71067386412E+03  0.73203783879E+03  0.12500266701E+03 0.  0.
          2    1    1    2  501    0  0.20122595797E+02 -0.23086124939E+02 -0.51920737291E+02  0.60279772621E+02  0.00000000000E+00 0. -1.
          1    1    1    2  502    0 -0.13747971714E+03 -0.14645765983E+02  0.90123881135E+03  0.91178208261E+03  0.00000000000E+00 0. -1.
         22    1    3    3    0    0 -0.72171587937E+01  0.19724713621E+01  0.32660346181E+03  0.32668914780E+03  0.00000000000E+00 0. -1.
         22    1    3    3    0    0  0.12457428013E+03  0.35759419559E+02  0.38407040230E+03  0.40534869098E+03  0.00000000000E+00 0. -1.
</event>
<event>
 7    1  0.6255318E-006  0.1631039E+03  0.7818608E-02  0.1273149E+00
          2   -1    0    0  502    0  0.00000000000E+00  0.00000000000E+00  0.10242203371E+04  0.10242203371E+04  0.00000000000E+00 0. -1.
          1   -1    0    0  501    0 -0.00000000000E+00 -0.00000000000E+00 -0.14270292930E+04  0.14270292930E+04  0.00000000000E+00 0. -1.
         25    2    1    2    0    0 -0.16082890605E+03  0.31124049960E+02 -0.15115501921E+03  0.25555483308E+03  0.12500315745E+03 0.  0.
          2    1    1    2  501    0  0.25418298983E+02  0.60527904839E+02 -0.12159062019E+04  0.12176771366E+04  0.00000000000E+00 0. -1.
          1    1    1    2  502    0  0.13541060707E+03 -0.91651954799E+02  0.96425226519E+03  0.97801766050E+03  0.00000000000E+00 0. -1.
         22    1    3    3    0    0 -0.12725479635E+02  0.47044087478E+02 -0.71804287452E+02  0.86780986944E+02  0.00000000000E+00 0.  1.
         22    1    3    3    0    0 -0.14810342641E+03 -0.15920037518E+02 -0.79350731759E+02  0.16877384614E+03  0.00000000000E+00 0.  1.
</event>
<event>
 7    1  0.6255318E-006  0.6324047E+02  0.7818608E-02  0.1456264E+00
          2   -1    0    0  502    0  0.00000000000E+00  0.00000000000E+00  0.11068501005E+03  0.11068501005E+03  0.00000000000E+00 0. -1.
          1   -1    0    0  501    0 -0.00000000000E+00 -0.00000000000E+00 -0.73568091595E+03  0.73568091595E+03  0.00000000000E+00 0. -1.
         25    2    1    2    0    0  0.99395982341E+01  0.26800209110E+02 -0.96096433054E+01  0.12858682908E+03  0.12500072219E+03 0.  0.
          2    1    1    2  501    0 -0.33181340332E+02 -0.54916179030E+02 -0.65832088485E+03  0.66144022821E+03  0.00000000000E+00 0. -1.
          1    1    1    2  502    0  0.23241742097E+02  0.28115969920E+02  0.42934622251E+02  0.56338868715E+02  0.00000000000E+00 0. -1.
         22    1    3    3    0    0 -0.59815616967E+01  0.27803505351E+02  0.55064046100E+02  0.61974697765E+02  0.00000000000E+00 0. -1.
         22    1    3    3    0    0  0.15921159931E+02 -0.10032962410E+01 -0.64673689406E+02  0.66612131314E+02  0.00000000000E+00 0. -1.
</event>
<event>
 7    1  0.6255318E-006  0.6418300E+02  0.7818608E-02  0.1392443E+00
          2   -1    0    0  502    0  0.00000000000E+00  0.00000000000E+00  0.53843084732E+03  0.53843084732E+03  0.00000000000E+00 0. -1.
          1   -1    0    0  501    0 -0.00000000000E+00 -0.00000000000E+00 -0.34056296880E+04  0.34056296880E+04  0.00000000000E+00 0. -1.
         25    2    1    2    0    0 -0.27979772904E+02 -0.22750411706E+02 -0.15238410016E+04  0.15293861468E+04  0.12502055442E+03 0.  0.
          2    1    1    2  501    0  0.73546518006E+02 -0.14020054089E+02 -0.18766673364E+04  0.18781602551E+04  0.00000000000E+00 0. -1.
          1    1    1    2  502    0 -0.45566745102E+02  0.36770465795E+02  0.53330949733E+03  0.53651413342E+03  0.00000000000E+00 0. -1.
         22    1    3    3    0    0 -0.64452591460E+02 -0.40915709521E+02 -0.62868776414E+03  0.63330603709E+03  0.00000000000E+00 0. -1.
         22    1    3    3    0    0  0.36472818556E+02  0.18165297815E+02 -0.89515323744E+03  0.89608010972E+03  0.00000000000E+00 0. -1.
</event>
<event>
 7    1  0.6255318E-006  0.2439055E+03  0.7818608E-02  0.1222985E+00
          2   -1    0    0  502    0  0.00000000000E+00  0.00000000000E+00  0.30763861472E+04  0.30763861472E+04  0.00000000000E+00 0. -1.
          1   -1    0    0  501    0 -0.00000000000E+00 -0.00000000000E+00 -0.14527421655E+04  0.14527421655E+04  0.00000000000E+00 0. -1.
         25    2    1    2    0    0 -0.60935921069E+02 -0.27665677715E+03  0.31906941367E+03  0.44461326321E+03  0.12499401693E+03 0.  0.
          2    1    1    2  501    0 -0.42466319329E+02  0.58871145904E+02 -0.13836243073E+04  0.13855271285E+04  0.00000000000E+00 0. -1.
          1    1    1    2  502    0  0.10340224040E+03  0.21778563124E+03  0.26881988753E+04  0.26989879210E+04  0.00000000000E+00 0. -1.
         22    1    3    3    0    0 -0.78942787111E+02 -0.89753426963E+02  0.98043668552E+02  0.15459690240E+03  0.00000000000E+00 0. -1.
         22    1    3    3    0    0  0.18006866042E+02 -0.18690335018E+03  0.22102574512E+03  0.29001636081E+03  0.00000000000E+00 0. -1.
</event>
<event>
 7    1  0.9103753E-006  0.5394031E+02  0.7818608E-02  0.1560249E+00
          2   -1    0    0  502    0  0.00000000000E+00  0.00000000000E+00  0.20097205524E+04  0.20097205524E+04  0.00000000000E+00 0. -1.
          1   -1    0    0  501    0 -0.00000000000E+00 -0.00000000000E+00 -0.11173968950E+04  0.11173968950E+04  0.00000000000E+00 0. -1.
         25    2    1    2    0    0 -0.34204603524E+02  0.23265932542E+02 -0.22838640096E+03  0.26362211339E+03  0.12500004802E+03 0.  0.
          2    1    1    2  501    0  0.31265897760E+01  0.20849295325E+02 -0.87089960163E+03  0.87115474216E+03  0.00000000000E+00 0. -1.
          1    1    1    2  502    0  0.31078013748E+02 -0.44115227866E+02  0.19916096600E+04  0.19923405919E+04  0.00000000000E+00 0. -1.
         22    1    3    3    0    0  0.30070244325E+02  0.35446728995E+02 -0.31497762599E+02  0.56149792867E+02  0.00000000000E+00 0.  1.
         22    1    3    3    0    0 -0.64274847850E+02 -0.12180796453E+02 -0.19688863836E+03  0.20747232052E+03  0.00000000000E+00 0.  1.
</event>
<event>
 7    1  0.6255318E-006  0.1342401E+03  0.7818608E-02  0.1246886E+00
          2   -1    0    0  502    0  0.00000000000E+00  0.00000000000E+00  0.23009532176E+04  0.23009532176E+04  0.00000000000E+00 0. -1.
          1   -1    0    0  501    0 -0.00000000000E+00 -0.00000000000E+00 -0.30321092691E+03  0.30321092691E+03  0.00000000000E+00 0. -1.
         25    2    1    2    0    0  0.16401961946E+03  0.15012760430E+03  0.10768843113E+04  0.11066812730E+04  0.12499154744E+03 0.  0.
          2    1    1    2  501    0 -0.12056400210E+03 -0.56463439902E+02 -0.27059105008E+03  0.30156809353E+03  0.00000000000E+00 0. -1.
          1    1    1    2  502    0 -0.43455617353E+02 -0.93664164398E+02  0.11914490294E+04  0.11959147779E+04  0.00000000000E+00 0. -1.
         22    1    3    3    0    0  0.13606307811E+03  0.17178904905E+03  0.95102872537E+03  0.97595095936E+03  0.00000000000E+00 0.  1.
         22    1    3    3    0    0  0.27956541347E+02 -0.21661444751E+02  0.12585558598E+03  0.13073031368E+03  0.00000000000E+00 0.  1.
</event>
<event>
 7    1  0.6255318E-006  0.3539466E+02  0.7818608E-02  0.1606220E+00
          2   -1    0    0  502    0  0.00000000000E+00  0.00000000000E+00  0.48025222448E+02  0.48025222448E+02  0.00000000000E+00 0. -1.
          1   -1    0    0  501    0 -0.00000000000E+00 -0.00000000000E+00 -0.43108077696E+03  0.43108077696E+03  0.00000000000E+00 0. -1.
         25    2    1    2    0    0 -0.10695371887E+02  0.89155462639E+01 -0.15487316274E+03  0.19951021643E+03  0.12499900791E+03 0.  0.
          2    1    1    2  501    0  0.34696857660E+02 -0.12137471558E+02 -0.24650368305E+03  0.24922932392E+03  0.00000000000E+00 0. -1.
          1    1    1    2  502    0 -0.24001485773E+02  0.32219252946E+01  0.18321291268E+02  0.30366459057E+02  0.00000000000E+00 0. -1.
         22    1    3    3    0    0 -0.34185841347E+02 -0.14718314155E+02 -0.16133051735E+03  0.16556822264E+03  0.00000000000E+00 0. -1.
         22    1    3    3    0    0  0.23490469460E+02  0.23633860419E+02  0.64573546148E+01  0.33941993789E+02  0.00000000000E+00 0. -1.
</event>
<event>
 7    1  0.6255318E-006  0.4119679E+02  0.7818608E-02  0.1506743E+00
          2   -1    0    0  502    0  0.00000000000E+00  0.00000000000E+00  0.10733391542E+04  0.10733391542E+04  0.00000000000E+00 0. -1.
          1   -1    0    0  501    0 -0.00000000000E+00 -0.00000000000E+00 -0.12646760951E+03  0.12646760951E+03  0.00000000000E+00 0. -1.
         25    2    1    2    0    0 -0.43050928276E+02  0.64676259336E+02  0.44924232276E+02  0.15388372470E+03  0.12500245252E+03 0.  0.
          2    1    1    2  501    0  0.12842984134E+02 -0.37065802232E+02 -0.66179258959E+02  0.76931854605E+02  0.00000000000E+00 0. -1.
          1    1    1    2  502    0  0.30207944142E+02 -0.27610457104E+02  0.96812657135E+03  0.96899118437E+03  0.00000000000E+00 0. -1.
         22    1    3    3    0    0 -0.55998667872E+02  0.62801633218E+02  0.80211818557E+02  0.11624900763E+03  0.00000000000E+00 0.  1.
         22    1    3    3    0    0  0.12947739597E+02  0.18746261180E+01 -0.35287586282E+02  0.37634717075E+02  0.00000000000E+00 0.  1.
</event>
<event>
 7    1  0.6255318E-006  0.5513906E+02  0.7818608E-02  0.1551789E+00
          2   -1    0    0  502    0  0.00000000000E+00  0.00000000000E+00  0.14316858608E+04  0.14316858608E+04  0.00000000000E+00 0. -1.
          1   -1    0    0  501    0 -0.00000000000E+00 -0.00000000000E+00 -0.31781877687E+02  0.31781877687E+02  0.00000000000E+00 0. -1.
         25    2    1    2    0    0 -0.11829967747E+02  0.33174213666E+02  0.23042734237E+03  0.26450312395E+03  0.12499866349E+03 0.  0.
          2    1    1    2  501    0  0.11793399318E+01  0.21734309603E+02 -0.56660044493E+01  0.22491657632E+02  0.00000000000E+00 0. -1.
          1    1    1    2  502    0  0.10650627815E+02 -0.54908523269E+02  0.11751426452E+04  0.11764729569E+04  0.00000000000E+00 0. -1.
         22    1    3    3    0    0  0.10750334071E+02 -0.39077551242E+02  0.30495849551E+02  0.50721016685E+02  0.00000000000E+00 0. -1.
         22    1    3    3    0    0 -0.22580301818E+02  0.72251764908E+02  0.19993149282E+03  0.21378210726E+03  0.00000000000E+00 0. -1.
</event>
<event>
 7    1  0.6255318E-006  0.4487869E+02  0.7818608E-02  0.1539840E+00
          2   -1    0    0  502    0  0.00000000000E+00  0.00000000000E+00  0.52316397863E+03  0.52316397863E+03  0.00000000000E+00 0. -1.
          1   -1    0    0  501    0 -0.00000000000E+00 -0.00000000000E+00 -0.36797602631E+03  0.36797602631E+03  0.00000000000E+00 0. -1.
         25    2    1    2    0    0  0.22524008249E+01 -0.27632510932E+02 -0.28107655935E+03  0.30886679318E+03  0.12500413891E+03 0.  0.
          2    1    1    2  501    0  0.28407767819E+02 -0.52472397702E+01 -0.69109074937E+02  0.74903932049E+02  0.00000000000E+00 0. -1.
          1    1    1    2  502    0 -0.30660168644E+02  0.32879750703E+02  0.50537358661E+03  0.50736927971E+03  0.00000000000E+00 0. -1.
         22    1    3    3    0    0  0.36138789089E+02 -0.41432563916E+02 -0.26180051914E+03  0.26751108623E+03  0.00000000000E+00 0.  1.
         22    1    3    3    0    0 -0.33886388264E+02  0.13800052984E+02 -0.19276040207E+02  0.41355706958E+02  0.00000000000E+00 0.  1.
</event>
<event>
 7    1  0.6255318E-006  0.1201454E+03  0.7818608E-02  0.1284060E+00
          2   -1    0    0  502    0  0.00000000000E+00  0.00000000000E+00  0.12176692064E+04  0.12176692064E+04  0.00000000000E+00 0. -1.
          1   -1    0    0  501    0 -0.00000000000E+00 -0.00000000000E+00 -0.60645600099E+03  0.60645600099E+03  0.00000000000E+00 0. -1.
         25    2    1    2    0    0 -0.83330979714E+02 -0.17909496284E+03 -0.56630563260E+02  0.24052263752E+03  0.12500024229E+03 0.  0.
          2    1    1    2  501    0  0.43703299041E+02  0.67382191206E+02 -0.45120320708E+03  0.45829539832E+03  0.00000000000E+00 0. -1.
          1    1    1    2  502    0  0.39627680673E+02  0.11171277163E+03  0.11190469758E+04  0.11253071716E+04  0.00000000000E+00 0. -1.
         22    1    3    3    0    0 -0.22830655206E+02 -0.13400505611E+03  0.14650173004E+02  0.13672315623E+03  0.00000000000E+00 0. -1.
         22    1    3    3    0    0 -0.60500324508E+02 -0.45089906726E+02 -0.71280736265E+02  0.10379948129E+03  0.00000000000E+00 0. -1.
</event>
<event>
 7    1  0.6255318E-006  0.1354066E+03  0.7818608E-02  0.1327988E+00
          2   -1    0    0  502    0  0.00000000000E+00  0.00000000000E+00  0.12673831654E+04  0.12673831654E+04  0.00000000000E+00 0. -1.
          1   -1    0    0  501    0 -0.00000000000E+00 -0.00000000000E+00 -0.15489824603E+03  0.15489824603E+03  0.00000000000E+00 0. -1.
         25    2    1    2    0    0 -0.54154036096E+02  0.13263303284E+03  0.29116345547E+03  0.34774474340E+03  0.12500427087E+03 0.  0.
          2    1    1    2  501    0 -0.35753097691E+02 -0.31590958691E+02 -0.11708557317E+03  0.12643300246E+03  0.00000000000E+00 0. -1.
          1    1    1    2  502    0  0.89907133787E+02 -0.10104207415E+03  0.93840703709E+03  0.94810366559E+03  0.00000000000E+00 0. -1.
         22    1    3    3    0    0 -0.21378959992E+02  0.17184156665E+02  0.18649821475E+03  0.18850448078E+03  0.00000000000E+00 0. -1.
         22    1    3    3    0    0 -0.32775076104E+02  0.11544887618E+03  0.10466524072E+03  0.15924026262E+03  0.00000000000E+00 0. -1.
</event>
<event>
 7    1  0.6255318E-006  0.1042118E+03  0.7818608E-02  0.1321834E+00
          2   -1    0    0  502    0  0.00000000000E+00  0.00000000000E+00  0.84129318268E+02  0.84129318268E+02  0.00000000000E+00 0. -1.
          1   -1    0    0  501    0 -0.00000000000E+00 -0.00000000000E+00 -0.15159034944E+04  0.15159034944E+04  0.00000000000E+00 0. -1.
         25    2    1    2    0    0 -0.17957404258E+02 -0.63688885731E+02 -0.28357610990E+03  0.31688926014E+03  0.12499860220E+03 0.  0.
          2    1    1    2  501    0  0.48936077291E+02 -0.43489628687E+02 -0.11680006442E+04  0.11698340020E+04  0.00000000000E+00 0. -1.
          1    1    1    2  502    0 -0.30978673033E+02  0.10717851442E+03  0.19802577981E+02  0.11330955048E+03  0.00000000000E+00 0. -1.
         22    1    3    3    0    0 -0.78892678169E-01  0.28371821937E+02 -0.14344593846E+02  0.31792041090E+02  0.00000000000E+00 0.  1.
         22    1    3    3    0    0 -0.17878511580E+02 -0.92060707667E+02 -0.26923151606E+03  0.28509721905E+03  0.00000000000E+00 0.  1.
</event>
<event>
 7    1  0.6255318E-006  0.5155492E+02  0.7818608E-02  0.1458826E+00
          2   -1    0    0  502    0  0.00000000000E+00  0.00000000000E+00  0.97822001698E+02  0.97822001698E+02  0.00000000000E+00 0. -1.
          1   -1    0    0  501    0 -0.00000000000E+00 -0.00000000000E+00 -0.91160845441E+03  0.91160845441E+03  0.00000000000E+00 0. -1.
         25    2    1    2    0    0  0.77523905432E+02  0.22356188248E+02 -0.12125822218E+03  0.19193139021E+03  0.12499738811E+03 0.  0.
          2    1    1    2  501    0 -0.49733971947E+02  0.11652642964E+02 -0.74631394680E+03  0.74805999708E+03  0.00000000000E+00 0. -1.
          1    1    1    2  502    0 -0.27789933485E+02 -0.34008831212E+02  0.53785716265E+02  0.69439068813E+02  0.00000000000E+00 0. -1.
         22    1    3    3    0    0  0.78691926978E+02  0.61572352415E+02 -0.52757638518E+02  0.11299089510E+03  0.00000000000E+00 0.  1.
         22    1    3    3    0    0 -0.11680215464E+01 -0.39216164167E+02 -0.68500583661E+02  0.78940495110E+02  0.00000000000E+00 0.  1.
</event>
<event>
 7    1  0.6255318E-006  0.9939488E+02  0.7818608E-02  0.1369353E+00
          2   -1    0    0  502    0  0.00000000000E+00  0.00000000000E+00  0.88703445499E+03  0.88703445499E+03  0.00000000000E+00 0. -1.
          1   -1    0    0  501    0 -0.00000000000E+00 -0.00000000000E+00 -0.84744024142E+02  0.84744024142E+02  0.00000000000E+00 0. -1.
         25    2    1    2    0    0 -0.76749593548E+02  0.11553413331E+03  0.22024166409E+03  0.28873710195E+03  0.12499634944E+03 0.  0.
          2    1    1    2  501    0  0.14709270327E+02 -0.43197208538E+02 -0.35729228298E+02  0.57956356112E+02  0.00000000000E+00 0. -1.
          1    1    1    2  502    0  0.62040323220E+02 -0.72336924769E+02  0.61777799506E+03  0.62508502107E+03  0.00000000000E+00 0. -1.
         22    1    3    3    0    0  0.29435774888E+01  0.10613496759E+03  0.11736568238E+03  0.15826559763E+03  0.00000000000E+00 0. -1.
         22    1    3    3    0    0 -0.79693171036E+02  0.93991657157E+01  0.10287598172E+03  0.13047150432E+03  0.00000000000E+00 0. -1.
</event>
<event>
 7    1  0.6255318E-006  0.1263036E+03  0.7818608E-02  0.1417486E+00
          2   -1    0    0  502    0  0.00000000000E+00  0.00000000000E+00  0.10921990908E+04  0.10921990908E+04  0.00000000000E+00 0. -1.
          1   -1    0    0  501    0 -0.00000000000E+00 -0.00000000000E+00 -0.12809213444E+04  0.12809213444E+04  0.00000000000E+00 0. -1.
         25    2    1    2    0    0  0.75032317344E+02 -0.72283949344E+02 -0.14098798636E+03  0.21530805229E+03  0.12500050842E+03 0.  0.
          2    1    1    2  501    0 -0.90947063520E+02  0.90828360321E+02 -0.10988854671E+04  0.11063771641E+04  0.00000000000E+00 0. -1.
          1    1    1    2  502    0  0.15914746175E+02 -0.18544410977E+02  0.10511511999E+04  0.10514352188E+04  0.00000000000E+00 0. -1.
         22    1    3    3    0    0  0.50661842526E+02 -0.73382020718E+01  0.71937886763E+01  0.51693540151E+02  0.00000000000E+00 0. -1.
         22    1    3    3    0    0  0.24370474818E+02 -0.64945747272E+02 -0.14818177503E+03  0.16361451214E+03  0.00000000000E+00 0. -1.
</event>
<event>
 7    1  0.6255318E-006  0.7951613E+02  0.7818608E-02  0.1346015E+00
          2   -1    0    0  502    0  0.00000000000E+00  0.00000000000E+00  0.21052740902E+03  0.21052740902E+03  0.00000000000E+00 0. -1.
          1   -1    0    0  501    0 -0.00000000000E+00 -0.00000000000E+00 -0.21785349612E+03  0.21785349612E+03  0.00000000000E+00 0. -1.
         25    2    1    2    0    0  0.36343539585E+02 -0.35262573532E+02  0.11034247293E+03  0.17425479446E+03  0.12499988039E+03 0.  0.
          2    1    1    2  501    0 -0.18083529244E+02 -0.77432554398E+02 -0.11514569139E+03  0.13993335827E+03  0.00000000000E+00 0. -1.
          1    1    1    2  502    0 -0.18260010341E+02  0.11269512793E+03 -0.25228686380E+01  0.11419275241E+03  0.00000000000E+00 0. -1.
         22    1    3    3    0    0  0.56211087013E+02 -0.72898026192E+02  0.70381637935E+02  0.11587658730E+03  0.00000000000E+00 0. -1.
         22    1    3    3    0    0 -0.19867547428E+02  0.37635452659E+02  0.39960834991E+02  0.58378207157E+02  0.00000000000E+00 0. -1.
</event>
<event>
 7    1  0.6255318E-006  0.1254421E+03  0.7818608E-02  0.1280878E+00
          2   -1    0    0  502    0  0.00000000000E+00  0.00000000000E+00  0.13810279103E+04  0.13810279103E+04  0.00000000000E+00 0. -1.
          1   -1    0    0  501    0 -0.00000000000E+00 -0.00000000000E+00 -0.16657450201E+03  0.16657450201E+03  0.00000000000E+00 0. -1.
         25    2    1    2    0    0  0.23096310480E+02  0.64969133444E+02  0.27706044298E+03  0.31167638274E+03  0.12500100253E+03 0.  0.
          2    1    1    2  501    0  0.64424217005E+02  0.46201459666E+02 -0.13374925637E+03  0.15547963915E+03  0.00000000000E+00 0. -1.
          1    1    1    2  502    0 -0.87520527485E+02 -0.11117059311E+03  0.10711422216E+04  0.10804463904E+04  0.00000000000E+00 0. -1.
         22    1    3    3    0    0  0.35844021775E+02  0.80324866791E+02  0.98714924888E+02  0.13221767854E+03  0.00000000000E+00 0. -1.
         22    1    3    3    0    0 -0.12747711295E+02 -0.15355733346E+02  0.17834551809E+03  0.17945870420E+03  0.00000000000E+00 0. -1.
</event>
<event>
 7    1  0.6255318E-006  0.5947007E+02  0.7818608E-02  0.1459545E+00
          2   -1    0    0  502    0  0.00000000000E+00  0.00000000000E+00  0.55597371125E+03  0.55597371125E+03  0.00000000000E+00 0. -1.
          1   -1    0    0  501    0 -0.00000000000E+00 -0.00000000000E+00 -0.13153866792E+04  0.13153866792E+04  0.00000000000E+00 0. -1.
         25    2    1    2    0    0  0.22829670767E+02 -0.17653902769E+02  0.11421762752E+02  0.12879638761E+03  0.12500079459E+03 0.  0.
          2    1    1    2  501    0  0.14172880691E+01 -0.37848491610E+02 -0.12545248736E+04  0.12550964806E+04  0.00000000000E+00 0. -1.
          1    1    1    2  502    0 -0.24246958836E+02  0.55502394379E+02  0.48369014297E+03  0.48746752220E+03  0.00000000000E+00 0. -1.
         22    1    3    3    0    0 -0.22310181040E+02  0.32869504343E+02 -0.29647582514E+02  0.49569422457E+02  0.00000000000E+00 0.  1.
         22    1    3    3    0    0  0.45139851807E+02 -0.50523407113E+02  0.41069345267E+02  0.79226965158E+02  0.00000000000E+00 0.  1.
</event>
<event>
 7    1  0.1274333E-005  0.9915284E+02  0.7818608E-02  0.1297908E+00
          2   -1    0    0  502    0  0.00000000000E+00  0.00000000000E+00  0.32872200092E+04  0.32872200092E+04  0.00000000000E+00 0. -1.
          1   -1    0    0  501    0 -0.00000000000E+00 -0.00000000000E+00 -0.12578812731E+04  0.12578812731E+04  0.00000000000E+00 0. -1.
         25    2    1    2    0    0  0.47670426431E+02  0.11655032895E+03 -0.29024017123E+03  0.34017752181E+03  0.12499976245E+03 0.  0.
          2    1    1    2  501    0  0.42100859936E+02 -0.74414437325E+02 -0.93997814610E+03  0.94385852014E+03  0.00000000000E+00 0. -1.
          1    1    1    2  502    0 -0.89771286367E+02 -0.42135891628E+02  0.32595570534E+04  0.32610652403E+04  0.00000000000E+00 0. -1.
         22    1    3    3    0    0  0.86665699584E+02  0.56670972311E+02 -0.19856010440E+03  0.22393895965E+03  0.00000000000E+00 0.  1.
         22    1    3    3    0    0 -0.38995273154E+02  0.59879356643E+02 -0.91680066826E+02  0.11623856216E+03  0.00000000000E+00 0.  1.
</event>
<event>
 7    1  0.6255318E-006  0.1483901E+03  0.7818608E-02  0.1258090E+00
          2   -1    0    0  502    0  0.00000000000E+00  0.00000000000E+00  0.96366642216E+03  0.96366642216E+03  0.00000000000E+00 0. -1.
          1   -1    0    0  501    0 -0.00000000000E+00 -0.00000000000E+00 -0.12455387120E+04  0.12455387120E+04  0.00000000000E+00 0. -1.
         25    2    1    2    0    0  0.17887497034E+03 -0.65764158700E+02 -0.29649657423E+02  0.22983691748E+03  0.12499890746E+03 0.  0.
          2    1    1    2  501    0 -0.14669634407E+03 -0.11346978724E+02 -0.11089035200E+04  0.11186221829E+04  0.00000000000E+00 0. -1.
          1    1    1    2  502    0 -0.32178626264E+02  0.77111137424E+02  0.85668088761E+03  0.86074603380E+03  0.00000000000E+00 0. -1.
         22    1    3    3    0    0  0.41748685506E+02 -0.79733390684E+02 -0.14661954499E+02  0.91188481954E+02  0.00000000000E+00 0.  1.
         22    1    3    3    0    0  0.13712628483E+03  0.13969231983E+02 -0.14987702924E+02  0.13864843552E+03  0.00000000000E+00 0.  1.
</event>
<event>
 7    1  0.6255318E-006  0.1364990E+03  0.7818608E-02  0.1236786E+00
          2   -1    0    0  502    0  0.00000000000E+00  0.00000000000E+00  0.22619199594E+03  0.22619199594E+03  0.00000000000E+00 0. -1.
          1   -1    0    0  501    0 -0.00000000000E+00 -0.00000000000E+00 -0.23068855811E+04  0.23068855811E+04  0.00000000000E+00 0. -1.
         25    2    1    2    0    0 -0.77378801171E+02  0.10929799852E+03 -0.49855327802E+03  0.53114061999E+03  0.12498582248E+03 0.  0.
          2    1    1    2  501    0  0.14268516088E+03 -0.17721163408E+02 -0.17738497635E+04  0.17796674066E+04  0.00000000000E+00 0. -1.
          1    1    1    2  502    0 -0.65306359714E+02 -0.91576835113E+02  0.19170945641E+03  0.22226955038E+03  0.00000000000E+00 0. -1.
         22    1    3    3    0    0 -0.39958406574E+02  0.85293356501E+02 -0.46754252186E+03  0.47693567770E+03  0.00000000000E+00 0.  1.
         22    1    3    3    0    0 -0.37420394597E+02  0.24004642019E+02 -0.31010756164E+02  0.54204942285E+02  0.00000000000E+00 0.  1.
</event>
<event>
 7    1  0.6255318E-006  0.9412821E+02  0.7818608E-02  0.1434434E+00
          2   -1    0    0  502    0  0.00000000000E+00  0.00000000000E+00  0.15530203352E+03  0.15530203352E+03  0.00000000000E+00 0. -1.
          1   -1    0    0  501    0 -0.00000000000E+00 -0.00000000000E+00 -0.35899837573E+03  0.35899837573E+03  0.00000000000E+00 0. -1.
         25    2    1    2    0    0  0.50321525733E+02 -0.50865277559E+02  0.41863020039E+01  0.14409082093E+03  0.12500042856E+03 0.  0.
          2    1    1    2  501    0 -0.55501234879E+02  0.79211449736E+02 -0.27803065824E+03  0.29437372125E+03  0.00000000000E+00 0. -1.
          1    1    1    2  502    0  0.51797091461E+01 -0.28346172178E+02  0.70148014023E+02  0.75835867077E+02  0.00000000000E+00 0. -1.
         22    1    3    3    0    0  0.72338656716E+02 -0.44317439983E+02 -0.40378942673E+02  0.93954115150E+02  0.00000000000E+00 0.  1.
         22    1    3    3    0    0 -0.22017130984E+02 -0.65478375754E+01  0.44565244677E+02  0.50136705783E+02  0.00000000000E+00 0.  1.
</event>
<event>
 7    1  0.6255318E-006  0.6963561E+02  0.7818608E-02  0.1436917E+00
          2   -1    0    0  502    0  0.00000000000E+00  0.00000000000E+00  0.14985001562E+03  0.14985001562E+03  0.00000000000E+00 0. -1.
          1   -1    0    0  501    0 -0.00000000000E+00 -0.00000000000E+00 -0.35074783454E+03  0.35074783454E+03  0.00000000000E+00 0. -1.
         25    2    1    2    0    0 -0.82428781982E+02  0.30135138914E+02 -0.46901021400E+02  0.15977342095E+03  0.12500083815E+03 0.  0.
          2    1    1    2  501    0  0.48812301249E+02 -0.48341700468E+02 -0.23843510499E+03  0.24813476187E+03  0.00000000000E+00 0. -1.
          1    1    1    2  502    0  0.33616480733E+02  0.18206561553E+02  0.84438307478E+02  0.92689667332E+02  0.00000000000E+00 0. -1.
         22    1    3    3    0    0 -0.31992350638E+02 -0.47613188525E+02 -0.35843479040E+01  0.57474983870E+02  0.00000000000E+00 0. -1.
         22    1    3    3    0    0 -0.50436431344E+02  0.77748327440E+02 -0.43316673496E+02  0.10229843708E+03  0.00000000000E+00 0. -1.
</event>
<event>
 7    1  0.6255318E-006  0.3616961E+02  0.7818608E-02  0.1602196E+00
          2   -1    0    0  502    0  0.00000000000E+00  0.00000000000E+00  0.51942646504E+03  0.51942646504E+03  0.00000000000E+00 0. -1.
          1   -1    0    0  501    0 -0.00000000000E+00 -0.00000000000E+00 -0.10360342650E+04  0.10360342650E+04  0.00000000000E+00 0. -1.
         25    2    1    2    0    0 -0.49380127191E+01 -0.11684947127E+02 -0.25178585846E+03  0.28139290836E+03  0.12499971360E+03 0.  0.
          2    1    1    2  501    0  0.11034841361E+02  0.35182437709E+02 -0.76871076770E+03  0.76959457900E+03  0.00000000000E+00 0. -1.
          1    1    1    2  502    0 -0.60968286417E+01 -0.23497490582E+02  0.50388882621E+03  0.50447324266E+03  0.00000000000E+00 0. -1.
         22    1    3    3    0    0 -0.26574772384E+02 -0.63117330846E+02 -0.15900499685E+03  0.17312598015E+03  0.00000000000E+00 0. -1.
         22    1    3    3    0    0  0.21636759665E+02  0.51432383719E+02 -0.92780861610E+02  0.10826692821E+03  0.00000000000E+00 0. -1.
</event>
<event>
 7    1  0.6255318E-006  0.2347859E+03  0.7818608E-02  0.1292120E+00
          2   -1    0    0  502    0  0.00000000000E+00  0.00000000000E+00  0.18751006339E+04  0.18751006339E+04  0.00000000000E+00 0. -1.
          1   -1    0    0  501    0 -0.00000000000E+00 -0.00000000000E+00 -0.70487222643E+03  0.70487222643E+03  0.00000000000E+00 0. -1.
         25    2    1    2    0    0  0.14391891475E+02 -0.22619641325E+03  0.87878180402E+03  0.91610809046E+03  0.12499852171E+03 0.  0.
          2    1    1    2  501    0  0.36515185187E+02 -0.10880683919E+02 -0.67062478426E+03  0.67170629690E+03  0.00000000000E+00 0. -1.
          1    1    1    2  502    0 -0.50907076662E+02  0.23707709717E+03  0.96207138771E+03  0.99215847298E+03  0.00000000000E+00 0. -1.
         22    1    3    3    0    0 -0.31892415295E+01  0.12142974566E+02  0.13527804203E+02  0.18456017431E+02  0.00000000000E+00 0.  1.
         22    1    3    3    0    0  0.17581133004E+02 -0.23833938781E+03  0.86525399982E+03  0.89765207303E+03  0.00000000000E+00 0.  1.
</event>
<event>
 7    1  0.6255318E-006  0.1235762E+03  0.7818608E-02  0.1297019E+00
          2   -1    0    0  502    0  0.00000000000E+00  0.00000000000E+00  0.25837724325E+04  0.25837724325E+04  0.00000000000E+00 0. -1.
          1   -1    0    0  501    0 -0.00000000000E+00 -0.00000000000E+00 -0.23801088501E+03  0.23801088501E+03  0.00000000000E+00 0. -1.
         25    2    1    2    0    0 -0.74519748096E+02 -0.11017489537E+03  0.61903248677E+03  0.64538318406E+03  0.12500613651E+03 0.  0.
          2    1    1    2  501    0  0.11227126973E+03  0.52218290064E+02 -0.20712269348E+03  0.24131182727E+03  0.00000000000E+00 0. -1.
          1    1    1    2  502    0 -0.37751521637E+02  0.57956605301E+02  0.19338517542E+04  0.19350883062E+04  0.00000000000E+00 0. -1.
         22    1    3    3    0    0  0.21997744942E+01 -0.25892144553E+02  0.37661750889E+03  0.37751290065E+03  0.00000000000E+00 0.  1.
         22    1    3    3    0    0 -0.76719522590E+02 -0.84282750812E+02  0.24241497788E+03  0.26787028340E+03  0.00000000000E+00 0.  1.
</event>
<event>
 7    1  0.6255318E-006  0.1458371E+03  0.7818608E-02  0.1368324E+00
          2   -1    0    0  502    0  0.00000000000E+00  0.00000000000E+00  0.16531611340E+04  0.16531611340E+04  0.00000000000E+00 0. -1.
          1   -1    0    0  501    0 -0.00000000000E+00 -0.00000000000E+00 -0.33280842851E+04  0.33280842851E+04  0.00000000000E+00 0. -1.
         25    2    1    2    0    0 -0.19292545810E+02 -0.15648939373E+03 -0.13962723830E+04  0.14106966162E+04  0.12500897069E+03 0.  0.
          2    1    1    2  501    0 -0.85025430935E+01  0.14195149738E+03 -0.19218230494E+04  0.19270771531E+04  0.00000000000E+00 0. -1.
          1    1    1    2  502    0  0.27795088904E+02  0.14537896344E+02  0.16431722813E+04  0.16434716498E+04  0.00000000000E+00 0. -1.
         22    1    3    3    0    0 -0.42598382101E+02 -0.16593048177E+03 -0.12980914342E+04  0.13093467526E+04  0.00000000000E+00 0.  1.
         22    1    3    3    0    0  0.23305836291E+02  0.94410880451E+01 -0.98180948741E+02  0.10134986356E+03  0.00000000000E+00 0.  1.
</event>
<event>
 7    1  0.6255318E-006  0.7594234E+02  0.7818608E-02  0.1392293E+00
          2   -1    0    0  502    0  0.00000000000E+00  0.00000000000E+00  0.17496745025E+04  0.17496745025E+04  0.00000000000E+00 0. -1.
          1   -1    0    0  501    0 -0.00000000000E+00 -0.00000000000E+00 -0.41673897111E+03  0.41673897111E+03  0.00000000000E+00 0. -1.
         25    2    1    2    0    0 -0.10648427616E+03 -0.66017516960E+02 -0.34783673321E+03  0.39027058411E+03  0.12499408883E+03 0.  0.
          2    1    1    2  501    0  0.43269074163E+02  0.24135671660E+02 -0.33747540723E+02  0.59946975989E+02  0.00000000000E+00 0. -1.
          1    1    1    2  502    0  0.63215201997E+02  0.41881845300E+02  0.17145198053E+04  0.17161959135E+04  0.00000000000E+00 0. -1.
         22    1    3    3    0    0 -0.54136100575E+02 -0.10058942618E+03 -0.22657662880E+03  0.25374380537E+03  0.00000000000E+00 0. -1.
         22    1    3    3    0    0 -0.52348175585E+02  0.34571909218E+02 -0.12126010440E+03  0.13652677874E+03  0.00000000000E+00 0. -1.
</event>
<event>
 7    1  0.6255318E-006  0.8015079E+02  0.7818608E-02  0.1411762E+00
          2   -1    0    0  502    0  0.00000000000E+00  0.00000000000E+00  0.32645683185E+03  0.32645683185E+03  0.00000000000E+00 0. -1.
          1   -1    0    0  501    0 -0.00000000000E+00 -0.00000000000E+00 -0.46454724921E+03  0.46454724921E+03  0.00000000000E+00 0. -1.
         25    2    1    2    0    0 -0.41716817457E+02  0.97496392669E+02 -0.16488137491E+03  0.23250250619E+03  0.12500283257E+03 0.  0.
          2    1    1    2  501    0  0.49888887608E+02 -0.58078773150E+02 -0.25890235506E+03  0.26998606344E+03  0.00000000000E+00 0. -1.
          1    1    1    2  502    0 -0.81720701515E+01 -0.39417619520E+02  0.28569331261E+03  0.28851551142E+03  0.00000000000E+00 0. -1.
         22    1    3    3    0    0  0.39204892327E+02  0.27263070236E+01 -0.38574037639E+02  0.55067347059E+02  0.00000000000E+00 0.  1.
         22    1    3    3    0    0 -0.80921709784E+02  0.94770085646E+02 -0.12630733727E+03  0.17743515913E+03  0.00000000000E+00 0.  1.
</event>
<event>
 7    1  0.6255318E-006  0.8411517E+02  0.7818608E-02  0.1344713E+00
          2   -1    0    0  502    0  0.00000000000E+00  0.00000000000E+00  0.18787816602E+04  0.18787816602E+04  0.00000000000E+00 0. -1.
          1   -1    0    0  501    0 -0.00000000000E+00 -0.00000000000E+00 -0.32482956285E+04  0.32482956285E+04  0.00000000000E+00 0. -1.
         25    2    1    2    0    0 -0.95555099831E+01 -0.51930762283E+02  0.33005200877E+03  0.35685781745E+03  0.12500024617E+03 0.  0.
          2    1    1    2  501    0  0.74659189418E+02  0.38925951581E+02 -0.32336267749E+04  0.32347227615E+04  0.00000000000E+00 0. -1.
          1    1    1    2  502    0 -0.65103679435E+02  0.13004810702E+02  0.15340607978E+04  0.15354967097E+04  0.00000000000E+00 0. -1.
         22    1    3    3    0    0  0.46793701115E+02  0.15456989926E+01  0.61488677926E+02  0.77284520847E+02  0.00000000000E+00 0.  1.
         22    1    3    3    0    0 -0.56349211098E+02 -0.53476461275E+02  0.26856333084E+03  0.27957329660E+03  0.00000000000E+00 0.  1.
</event>
<event>
 7    1  0.6255318E-006  0.4860398E+02  0.7818608E-02  0.1530252E+00
          2   -1    0    0  502    0  0.00000000000E+00  0.00000000000E+00  0.51434477002E+03  0.51434477002E+03  0.00000000000E+00 0. -1.
          1   -1    0    0  501    0 -0.00000000000E+00 -0.00000000000E+00 -0.43027593106E+03  0.43027593106E+03  0.00000000000E+00 0. -1.
         25    2    1    2    0    0  0.30837983394E+02  0.35703890241E+02  0.43674699162E+03  0.45672574429E+03  0.12499888724E+03 0.  0.
          2    1    1    2  501    0 -0.53971162479E+01 -0.48334276125E+02 -0.41582220382E+03  0.41865670460E+03  0.00000000000E+00 0. -1.
          1    1    1    2  502    0 -0.25440867146E+02  0.12630385885E+02  0.63144051171E+02  0.69238252195E+02  0.00000000000E+00 0. -1.
         22    1    3    3    0    0  0.66645723148E+01  0.76304427626E+02  0.34641169276E+03  0.35477858318E+03  0.00000000000E+00 0. -1.
         22    1    3    3    0    0  0.24173411079E+02 -0.40600537385E+02  0.90335298855E+02  0.10194716111E+03  0.00000000000E+00 0. -1.
</event>
<event>
 7    1  0.6255318E-006  0.3127734E+03  0.7818608E-02  0.1219415E+00
          2   -1    0    0  502    0  0.00000000000E+00  0.00000000000E+00  0.10588343206E+04  0.10588343206E+04  0.00000000000E+00 0. -1.
          1   -1    0    0  501    0 -0.00000000000E+00 -0.00000000000E+00 -0.77856743564E+03  0.77856743564E+03  0.00000000000E+00 0. -1.
         25    2    1    2    0    0  0.33095064421E+03  0.82051391450E+02 -0.52324958435E+01  0.36319831811E+03  0.12499951810E+03 0.  0.
          2    1    1    2  501    0 -0.45673546989E+02  0.36973553592E+02 -0.56563339953E+03  0.56867764087E+03  0.00000000000E+00 0. -1.
          1    1    1    2  502    0 -0.28527709722E+03 -0.11902494504E+03  0.85113278031E+03  0.90552579724E+03  0.00000000000E+00 0. -1.
         22    1    3    3    0    0  0.94915296408E+02  0.56749007512E+02  0.46954564419E+02  0.12014197628E+03  0.00000000000E+00 0.  1.
         22    1    3    3    0    0  0.23603534780E+03  0.25302383937E+02 -0.52187060262E+02  0.24305634183E+03  0.00000000000E+00 0.  1.
</event>
<event>
 7    1  0.6255318E-006  0.8600502E+02  0.7818608E-02  0.1368176E+00
          2   -1    0    0  502    0  0.00000000000E+00  0.00000000000E+00  0.18373836106E+03  0.18373836106E+03  0.00000000000E+00 0. -1.
          1   -1    0    0  501    0 -0.00000000000E+00 -0.00000000000E+00 -0.18960931476E+04  0.18960931476E+04  0.00000000000E+00 0. -1.
         25    2    1    2    0    0 -0.11193698488E+03  0.76391636551E+02 -0.25776844635E+03  0.31691564439E+03  0.12500153202E+03 0.  0.
          2    1    1    2  501    0  0.49158968029E+02 -0.20479936672E+02 -0.15968136557E+04  0.15977014374E+04  0.00000000000E+00 0. -1.
          1    1    1    2  502    0  0.62778016852E+02 -0.55911699879E+02  0.14222731550E+03  0.16521442690E+03  0.00000000000E+00 0. -1.
         22    1    3    3    0    0 -0.13625954342E+01  0.70090687628E+02 -0.70998476633E+02  0.99776474395E+02  0.00000000000E+00 0.  1.
         22    1    3    3    0    0 -0.11057438945E+03  0.63009489233E+01 -0.18676996971E+03  0.21713916999E+03  0.00000000000E+00 0.  1.
</event>
<event>
 7    1  0.6255318E-006  0.7647882E+02  0.7818608E-02  0.1374184E+00
          2   -1    0    0  502    0  0.00000000000E+00  0.00000000000E+00  0.91957560121E+03  0.91957560121E+03  0.00000000000E+00 0. -1.
          1   -1    0    0  501    0 -0.00000000000E+00 -0.00000000000E+00 -0.33044615511E+03  0.33044615511E+03  0.00000000000E+00 0. -1.
         25    2    1    2    0    0  0.12190169112E+02 -0.11637494635E+03 -0.15462559911E+03  0.23068789338E+03  0.12496439451E+03 0.  0.
          2    1    1    2  501    0  0.26269164074E+02  0.50571530209E+02 -0.13016670948E+03  0.14209476030E+03  0.00000000000E+00 0. -1.
          1    1    1    2  502    0 -0.38459333186E+02  0.65803416137E+02  0.87392175469E+03  0.87723910264E+03  0.00000000000E+00 0. -1.
         22    1    3    3    0    0 -0.59795556697E+01  0.25633356208E+02 -0.36949186157E+02  0.45365916658E+02  0.00000000000E+00 0. -1.
         22    1    3    3    0    0  0.18169724781E+02 -0.14200830255E+03 -0.11767641295E+03  0.18532197673E+03  0.00000000000E+00 0. -1.
</event>
<event>
 7    1  0.6255318E-006  0.1082516E+03  0.7818608E-02  0.1338297E+00
          2   -1    0    0  502    0  0.00000000000E+00  0.00000000000E+00  0.10530335475E+04  0.10530335475E+04  0.00000000000E+00 0. -1.
          1   -1    0    0  501    0 -0.00000000000E+00 -0.00000000000E+00 -0.10634658096E+04  0.10634658096E+04  0.00000000000E+00 0. -1.
         25    2    1    2    0    0 -0.68810220017E+02 -0.43819180725E+02 -0.14199790617E+02  0.14993556044E+03  0.12499628496E+03 0.  0.
          2    1    1    2  501    0  0.15888249499E+02 -0.52162463250E+02 -0.97758746416E+03  0.97910704682E+03  0.00000000000E+00 0. -1.
          1    1    1    2  502    0  0.52921970518E+02  0.95981643975E+02  0.98135499273E+03  0.98745674978E+03  0.00000000000E+00 0. -1.
         22    1    3    3    0    0  0.11296863207E+02  0.12383427175E+02 -0.44453837412E+02  0.47509073318E+02  0.00000000000E+00 0. -1.
         22    1    3    3    0    0 -0.80107083224E+02 -0.56202607900E+02  0.30254046795E+02  0.10242648713E+03  0.00000000000E+00 0. -1.
</event>
<event>
 7    1  0.6255318E-006  0.7518321E+02  0.7818608E-02  0.1439213E+00
          2   -1    0    0  502    0  0.00000000000E+00  0.00000000000E+00  0.18669488578E+04  0.18669488578E+04  0.00000000000E+00 0. -1.
          1   -1    0    0  501    0 -0.00000000000E+00 -0.00000000000E+00 -0.16097994218E+03  0.16097994218E+03  0.00000000000E+00 0. -1.
         25    2    1    2    0    0 -0.22224376144E+02  0.52567668940E+02  0.21088230439E+03  0.25169818352E+03  0.12499338612E+03 0.  0.
          2    1    1    2  501    0 -0.33652680917E+01 -0.76159376206E+02 -0.13003636552E+03  0.15073497262E+03  0.00000000000E+00 0. -1.
          1    1    1    2  502    0  0.25589644235E+02  0.23591707266E+02  0.16251229767E+04  0.16254956438E+04  0.00000000000E+00 0. -1.
         22    1    3    3    0    0 -0.24407967542E+02  0.78071142576E+02  0.21078640954E+03  0.22610122209E+03  0.00000000000E+00 0.  1.
         22    1    3    3    0    0  0.21835913982E+01 -0.25503473635E+02  0.95894842831E-01  0.25596961435E+02  0.00000000000E+00 0.  1.
</event>
<event>
 7    1  0.6255318E-006  0.7481750E+02  0.7818608E-02  0.1428372E+00
          2   -1    0    0  502    0  0.00000000000E+00  0.00000000000E+00  0.10703248875E+04  0.10703248875E+04  0.00000000000E+00 0. -1.
          1   -1    0    0  501    0 -0.00000000000E+00 -0.00000000000E+00 -0.63757228753E+03  0.63757228753E+03  0.00000000000E+00 0. -1.
         25    2    1    2    0    0  0.65149802902E+02 -0.24187983250E+02  0.57153496817E+02  0.15401432368E+03  0.12499733736E+03 0.  0.
          2    1    1    2  501    0 -0.47830278162E+02  0.57959944244E+02 -0.58636981089E+03  0.59116549778E+03  0.00000000000E+00 0. -1.
          1    1    1    2  502    0 -0.17319524740E+02 -0.33771960995E+02  0.96196891405E+03  0.96271735358E+03  0.00000000000E+00 0. -1.
         22    1    3    3    0    0  0.28896429966E+02  0.49985722673E+02  0.89892109193E+01  0.58432713859E+02  0.00000000000E+00 0. -1.
         22    1    3    3    0    0  0.36253372936E+02 -0.74173705923E+02  0.48164285897E+02  0.95581609819E+02  0.00000000000E+00 0. -1.
</event>
<event>
 7    1  0.6255318E-006  0.1284362E+03  0.7818608E-02  0.1277857E+00
          2   -1    0    0  502    0  0.00000000000E+00  0.00000000000E+00  0.12856480656E+04  0.12856480656E+04  0.00000000000E+00 0. -1.
          1   -1    0    0  501    0 -0.00000000000E+00 -0.00000000000E+00 -0.14270949390E+03  0.14270949390E+03  0.00000000000E+00 0. -1.
         25    2    1    2    0    0  0.17182802159E+03 -0.10203125170E+03  0.27605618371E+03  0.36299718400E+03  0.12499877480E+03 0.  0.
          2    1    1    2  501    0 -0.10399357298E+03  0.60209989560E+02 -0.60516294990E+02  0.13454414897E+03  0.00000000000E+00 0. -1.
          1    1    1    2  502    0 -0.67834448608E+02  0.41821262139E+02  0.92739868298E+03  0.93081622653E+03  0.00000000000E+00 0. -1.
         22    1    3    3    0    0  0.94512379048E+02 -0.14991919825E+02  0.20595571263E+03  0.22710152579E+03  0.00000000000E+00 0. -1.
         22    1    3    3    0    0  0.77315642537E+02 -0.87039331874E+02  0.70100471085E+02  0.13589565821E+03  0.00000000000E+00 0. -1.
</event>
<event>
 7    1  0.6255318E-006  0.6898737E+02  0.7818608E-02  0.1514631E+00
          2   -1    0    0  502    0  0.00000000000E+00  0.00000000000E+00  0.38985853720E+03  0.38985853720E+03  0.00000000000E+00 0. -1.
          1   -1    0    0  501    0 -0.00000000000E+00 -0.00000000000E+00 -0.10505557197E+04  0.10505557197E+04  0.00000000000E+00 0. -1.
         25    2    1    2    0    0 -0.13516812099E+02 -0.86966351191E+02 -0.26650335793E+03  0.30723786592E+03  0.12500086406E+03 0.  0.
          2    1    1    2  501    0 -0.66236940880E+01  0.21196147943E+02 -0.76032031899E+03  0.76064455397E+03  0.00000000000E+00 0. -1.
          1    1    1    2  502    0  0.20140506187E+02  0.65770203248E+02  0.36612649445E+03  0.37253183698E+03  0.00000000000E+00 0. -1.
         22    1    3    3    0    0 -0.69278726247E+02 -0.52960049591E+02 -0.14185784460E+03  0.16651713677E+03  0.00000000000E+00 0. -1.
         22    1    3    3    0    0  0.55761914148E+02 -0.34006301600E+02 -0.12464551333E+03  0.14072072914E+03  0.00000000000E+00 0. -1.
</event>
<event>
 7    1  0.1169370E-005  0.5009347E+02  0.7818608E-02  0.1452709E+00
          2   -1    0    0  502    0  0.00000000000E+00  0.00000000000E+00  0.10680295580E+04  0.10680295580E+04  0.00000000000E+00 0. -1.
          1   -1    0    0  501    0 -0.00000000000E+00 -0.00000000000E+00 -0.11390042147E+04  0.11390042147E+04  0.00000000000E+00 0. -1.
         25    2    1    2    0    0 -0.10580242736E+02  0.54645594975E+02 -0.31691395505E+03  0.34519088149E+03  0.12499682865E+03 0.  0.
          2    1    1    2  501    0 -0.34362874385E+02 -0.32454866614E+02 -0.80666364033E+03  0.80804724746E+03  0.00000000000E+00 0. -1.
          1    1    1    2  502    0  0.44943117121E+02 -0.22190728362E+02  0.10526029387E+04  0.10537956438E+04  0.00000000000E+00 0. -1.
         22    1    3    3    0    0 -0.42623437402E+02 -0.26066004173E+02 -0.11911049793E+03  0.12916464186E+03  0.00000000000E+00 0. -1.
         22    1    3    3    0    0  0.32043194666E+02  0.80711599148E+02 -0.19780345711E+03  0.21602623963E+03  0.00000000000E+00 0. -1.
</event>
<event>
 7    1  0.6255318E-006  0.5495882E+02  0.7818608E-02  0.1495772E+00
          2   -1    0    0  502    0  0.00000000000E+00  0.00000000000E+00  0.20737153633E+04  0.20737153633E+04  0.00000000000E+00 0. -1.
          1   -1    0    0  501    0 -0.00000000000E+00 -0.00000000000E+00 -0.45711002923E+02  0.45711002923E+02  0.00000000000E+00 0. -1.
         25    2    1    2    0    0 -0.27495882775E+02 -0.43937690792E+02  0.42337771412E+03  0.44447778883E+03  0.12500108681E+03 0.  0.
          2    1    1    2  501    0  0.50811148959E+02  0.22455307120E+02 -0.12966240743E+02  0.57045044266E+02  0.00000000000E+00 0. -1.
          1    1    1    2  502    0 -0.23315266184E+02  0.21482383672E+02  0.16175928870E+04  0.16179035331E+04  0.00000000000E+00 0. -1.
         22    1    3    3    0    0  0.23309770859E+02 -0.50232906855E+02  0.35373297591E+03  0.35804149004E+03  0.00000000000E+00 0. -1.
         22    1    3    3    0    0 -0.50805653634E+02  0.62952160635E+01  0.69644738215E+02  0.86436298784E+02  0.00000000000E+00 0. -1.
</event>
<event>
 7    1  0.6255318E-006  0.6166262E+02  0.7818608E-02  0.1519744E+00
          2   -1    0    0  502    0  0.00000000000E+00  0.00000000000E+00  0.13634681981E+02  0.13634681981E+02  0.00000000000E+00 0. -1.
          1   -1    0    0  501    0 -0.00000000000E+00 -0.00000000000E+00 -0.26489180476E+04  0.26489180476E+04  0.00000000000E+00 0. -1.
         25    2    1    2    0    0 -0.40929379906E+02  0.72020855515E+02 -0.18761282455E+04  0.18821116794E+04  0.12499984878E+03 0.  0.
          2    1    1    2  501    0  0.43025210893E+01 -0.23618033628E+02 -0.68128817094E+03  0.68171100553E+03  0.00000000000E+00 0. -1.
          1    1    1    2  502    0  0.36626858816E+02 -0.48402821887E+02 -0.77866949191E+02  0.98730044716E+02  0.00000000000E+00 0. -1.
         22    1    3    3    0    0  0.29775765703E+02  0.61056987166E+02 -0.12624725166E+04  0.12642987807E+04  0.00000000000E+00 0.  1.
         22    1    3    3    0    0 -0.70705145608E+02  0.10963868350E+02 -0.61365572896E+03  0.61781289863E+03  0.00000000000E+00 0.  1.
</event>
<event>
 7    1  0.6255318E-006  0.1053676E+03  0.7818608E-02  0.1356899E+00
          2   -1    0    0  502    0  0.00000000000E+00  0.00000000000E+00  0.43844776073E+03  0.43844776073E+03  0.00000000000E+00 0. -1.
          1   -1    0    0  501    0 -0.00000000000E+00 -0.00000000000E+00 -0.66783746527E+03  0.66783746527E+03  0.00000000000E+00 0. -1.
         25    2    1    2    0    0 -0.36349339140E+02  0.84077956371E+02  0.17148955168E+03  0.23113698150E+03  0.12500104271E+03 0.  0.
          2    1    1    2  501    0  0.81281331119E+02 -0.67852760155E+02 -0.63115246707E+03  0.63997194355E+03  0.00000000000E+00 0. -1.
          1    1    1    2  502    0 -0.44931991979E+02 -0.16225196216E+02  0.23027321084E+03  0.23517630095E+03  0.00000000000E+00 0. -1.
         22    1    3    3    0    0  0.23963557399E+02 -0.21333488277E+02  0.49599856758E+02  0.59072121984E+02  0.00000000000E+00 0. -1.
         22    1    3    3    0    0 -0.60312896539E+02  0.10541144465E+03  0.12188969493E+03  0.17206485952E+03  0.00000000000E+00 0. -1.
</event>
<event>
 7    1  0.6255318E-006  0.5374847E+02  0.7818608E-02  0.1537976E+00
          2   -1    0    0  502    0  0.00000000000E+00  0.00000000000E+00  0.86508017484E+03  0.86508017484E+03  0.00000000000E+00 0. -1.
          1   -1    0    0  501    0 -0.00000000000E+00 -0.00000000000E+00 -0.14042431126E+04  0.14042431126E+04  0.00000000000E+00 0. -1.
         25    2    1    2    0    0 -0.33663190152E+01  0.35761146220E+02  0.57984618753E+02  0.14239805526E+03  0.12499919378E+03 0.  0.
          2    1    1    2  501    0 -0.15143209533E+02 -0.51683932082E+02 -0.13613089464E+04  0.13623738816E+04  0.00000000000E+00 0. -1.
          1    1    1    2  502    0  0.18509528548E+02  0.15922785862E+02  0.76416138994E+03  0.76455135055E+03  0.00000000000E+00 0. -1.
         22    1    3    3    0    0  0.17715758487E+02 -0.21182875247E+02  0.74514697108E+02  0.79466989294E+02  0.00000000000E+00 0. -1.
         22    1    3    3    0    0 -0.21082077502E+02  0.56944021467E+02 -0.16530078355E+02  0.62931065961E+02  0.00000000000E+00 0. -1.
</event>
<event>
 7    1  0.6255318E-006  0.2285049E+03  0.7818608E-02  0.1220541E+00
          2   -1    0    0  502    0  0.00000000000E+00  0.00000000000E+00  0.30397889420E+04  0.30397889420E+04  0.00000000000E+00 0. -1.
          1   -1    0    0  501    0 -0.00000000000E+00 -0.00000000000E+00 -0.15045269494E+03  0.15045269494E+03  0.00000000000E+00 0. -1.
         25    2    1    2    0    0  0.63218048903E+02  0.15469587748E+03  0.14818432944E+04  0.14964657884E+04  0.12499188170E+03 0.  0.
          2    1    1    2  501    0 -0.13448664768E+03 -0.18990007350E+03 -0.46761436232E+02  0.23735064406E+03  0.00000000000E+00 0. -1.
          1    1    1    2  502    0  0.71268598775E+02  0.35204196013E+02  0.14542543889E+04  0.14564252044E+04  0.00000000000E+00 0. -1.
         22    1    3    3    0    0  0.33859158933E+02  0.15725015879E+03  0.14047902319E+04  0.14139694659E+04  0.00000000000E+00 0. -1.
         22    1    3    3    0    0  0.29358889971E+02 -0.25542813046E+01  0.77053062531E+02  0.82496322456E+02  0.00000000000E+00 0. -1.
</event>
<event>
 7    1  0.6255318E-006  0.1597553E+03  0.7818608E-02  0.1294002E+00
          2   -1    0    0  502    0  0.00000000000E+00  0.00000000000E+00  0.20423394469E+04  0.20423394469E+04  0.00000000000E+00 0. -1.
          1   -1    0    0  501    0 -0.00000000000E+00 -0.00000000000E+00 -0.33104994888E+03  0.33104994888E+03  0.00000000000E+00 0. -1.
         25    2    1    2    0    0  0.14455736291E+02 -0.11824831113E+03  0.22871607550E+03  0.28657904985E+03  0.12499950891E+03 0.  0.
          2    1    1    2  501    0 -0.56866508784E+02  0.15330341500E+03 -0.27953398788E+03  0.32384407861E+03  0.00000000000E+00 0. -1.
          1    1    1    2  502    0  0.42410772493E+02 -0.35055103877E+02  0.17621074104E+04  0.17629662673E+04  0.00000000000E+00 0. -1.
         22    1    3    3    0    0 -0.36322819982E+01 -0.12347784324E+03  0.23601188384E+03  0.26638614934E+03  0.00000000000E+00 0. -1.
         22    1    3    3    0    0  0.18088018290E+02  0.52295321134E+01 -0.72958083472E+01  0.20192900515E+02  0.00000000000E+00 0. -1.
</event>
<event>
 7    1  0.6255318E-006  0.1542756E+03  0.7818608E-02  0.1249211E+00
          2   -1    0    0  502    0  0.00000000000E+00  0.00000000000E+00  0.76045841601E+03  0.76045841601E+03  0.00000000000E+00 0. -1.
          1   -1    0    0  501    0 -0.00000000000E+00 -0.00000000000E+00 -0.59691520044E+03  0.59691520044E+03  0.00000000000E+00 0. -1.
         25    2    1    2    0    0  0.11286956478E+03 -0.29765836582E+02 -0.75787582394E+02  0.18706827635E+03  0.12500095476E+03 0.  0.
          2    1    1    2  501    0  0.37144124257E+02  0.79528871445E+02 -0.45235463939E+03  0.46079197816E+03  0.00000000000E+00 0. -1.
          1    1    1    2  502    0 -0.15001368904E+03 -0.49763034862E+02  0.69168543735E+03  0.70951336194E+03  0.00000000000E+00 0. -1.
         22    1    3    3    0    0  0.67049841312E+02  0.43471323314E+02 -0.58327871046E+02  0.98932187438E+02  0.00000000000E+00 0.  1.
         22    1    3    3    0    0  0.45819723470E+02 -0.73237159897E+02 -0.17459711348E+02  0.88136088914E+02  0.00000000000E+00 0.  1.
</event>
<event>
 7    1  0.6255318E-006  0.1247610E+03  0.7818608E-02  0.1296578E+00
          2   -1    0    0  502    0  0.00000000000E+00  0.00000000000E+00  0.19960974097E+04  0.19960974097E+04  0.00000000000E+00 0. -1.
          1   -1    0    0  501    0 -0.00000000000E+00 -0.00000000000E+00 -0.40813381986E+02  0.40813381986E+02  0.00000000000E+00 0. -1.
         25    2    1    2    0    0 -0.56116787866E+01 -0.13524946099E+03  0.66256987487E+03  0.68771220417E+03  0.12500131619E+03 0.  0.
          2    1    1    2  501    0 -0.62225905263E+02  0.29328118697E+02  0.21926211868E+02  0.72200835169E+02  0.00000000000E+00 0. -1.
          1    1    1    2  502    0  0.67837584050E+02  0.10592134229E+03  0.12707879410E+04  0.12769977523E+04  0.00000000000E+00 0. -1.
         22    1    3    3    0    0  0.72235442663E+01 -0.75800362515E+02  0.58098018723E+03  0.58594867736E+03  0.00000000000E+00 0. -1.
         22    1    3    3    0    0 -0.12835223053E+02 -0.59449098471E+02  0.81589687640E+02  0.10176352681E+03  0.00000000000E+00 0. -1.
</event>
<event>
 7    1  0.6255318E-006  0.9076464E+02  0.7818608E-02  0.1325604E+00
          2   -1    0    0  502    0  0.00000000000E+00  0.00000000000E+00  0.11129412147E+04  0.11129412147E+04  0.00000000000E+00 0. -1.
          1   -1    0    0  501    0 -0.00000000000E+00 -0.00000000000E+00 -0.11054135732E+03  0.11054135732E+03  0.00000000000E+00 0. -1.
         25    2    1    2    0    0 -0.51531573401E+02  0.13089829471E+03  0.37988742720E+03  0.42394234806E+03  0.12499116177E+03 0.  0.
          2    1    1    2  501    0 -0.11105738942E+02 -0.71838971953E+02 -0.70462610338E+02  0.10123810935E+03  0.00000000000E+00 0. -1.
          1    1    1    2  502    0  0.62637312343E+02 -0.59059322753E+02  0.69297504047E+03  0.69830211458E+03  0.00000000000E+00 0. -1.
         22    1    3    3    0    0 -0.84924253074E+02  0.12348348046E+03  0.33888908372E+03  0.37054839059E+03  0.00000000000E+00 0.  1.
         22    1    3    3    0    0  0.33392679673E+02  0.74148142460E+01  0.40998343485E+02  0.53393957472E+02  0.00000000000E+00 0.  1.
</event>
<event>
 7    1  0.6255318E-006  0.9000761E+02  0.7818608E-02  0.1479894E+00
          2   -1    0    0  502    0  0.00000000000E+00  0.00000000000E+00  0.18866390677E+03  0.18866390677E+03  0.00000000000E+00 0. -1.
          1   -1    0    0  501    0 -0.00000000000E+00 -0.00000000000E+00 -0.41131795798E+03  0.41131795798E+03  0.00000000000E+00 0. -1.
         25    2    1    2    0    0  0.58247105574E+02 -0.57796586173E+02  0.27246186144E+02  0.15198957651E+03  0.12500122410E+03 0.  0.
          2    1    1    2  501    0 -0.48064156315E+02  0.76879088736E+02 -0.34177963884E+03  0.35360129939E+03  0.00000000000E+00 0. -1.
          1    1    1    2  502    0 -0.10182949259E+02 -0.19082502562E+02  0.91879401481E+02  0.94390988851E+02  0.00000000000E+00 0. -1.
         22    1    3    3    0    0 -0.32194689621E+02  0.10731530287E+02  0.17276642525E+02  0.38080784643E+02  0.00000000000E+00 0. -1.
         22    1    3    3    0    0  0.90441795195E+02 -0.68528116461E+02  0.99695436191E+01  0.11390879186E+03  0.00000000000E+00 0. -1.
</event>
<event>
 7    1  0.6255318E-006  0.1088327E+03  0.7818608E-02  0.1345471E+00
          2   -1    0    0  502    0  0.00000000000E+00  0.00000000000E+00  0.41303184811E+03  0.41303184811E+03  0.00000000000E+00 0. -1.
          1   -1    0    0  501    0 -0.00000000000E+00 -0.00000000000E+00 -0.55027941680E+03  0.55027941680E+03  0.00000000000E+00 0. -1.
         25    2    1    2    0    0 -0.71443475994E+02 -0.13933420313E+03 -0.32114737708E+03  0.37852114419E+03  0.12499771345E+03 0.  0.
          2    1    1    2  501    0  0.33515234328E+02  0.38412837712E+02 -0.18944805397E+03  0.19618711014E+03  0.00000000000E+00 0. -1.
          1    1    1    2  502    0  0.37928241666E+02  0.10092136541E+03  0.37334786235E+03  0.38860301059E+03  0.00000000000E+00 0. -1.
         22    1    3    3    0    0 -0.10147288140E+03 -0.11994128621E+03 -0.29501696510E+03  0.33424192959E+03  0.00000000000E+00 0.  1.
         22    1    3    3    0    0  0.30029405403E+02 -0.19392916916E+02 -0.26130411977E+02  0.44279214599E+02  0.00000000000E+00 0.  1.
</event>
<event>
 7    1  0.6255318E-006  0.8271540E+02  0.7818608E-02  0.1339119E+00
          2   -1    0    0  502    0  0.00000000000E+00  0.00000000000E+00  0.18973224899E+04  0.18973224899E+04  0.00000000000E+00 0. -1.
          1   -1    0    0  501    0 -0.00000000000E+00 -0.00000000000E+00 -0.69862419657E+02  0.69862419657E+02  0.00000000000E+00 0. -1.
         25    2    1    2    0    0 -0.53640424480E+02 -0.60402825597E+01  0.42141148681E+03  0.44286129898E+03  0.12499883508E+03 0.  0.
          2    1    1    2  501    0  0.57380859352E+02 -0.64716311253E+02 -0.26161858780E+02  0.90361533945E+02  0.00000000000E+00 0. -1.
          1    1    1    2  502    0 -0.37404348719E+01  0.70756593812E+02  0.14322104423E+04  0.14339620767E+04  0.00000000000E+00 0. -1.
         22    1    3    3    0    0  0.12897476358E+02 -0.26848447395E+02  0.31005179003E+03  0.31147920722E+03  0.00000000000E+00 0.  1.
         22    1    3    3    0    0 -0.66537900838E+02  0.20808164836E+02  0.11135969677E+03  0.13138209177E+03  0.00000000000E+00 0.  1.
</event>
<event>
 7    1  0.6255318E-006  0.1335775E+03  0.7818608E-02  0.1323467E+00
          2   -1    0    0  502    0  0.00000000000E+00  0.00000000000E+00  0.17882056913E+04  0.17882056913E+04  0.00000000000E+00 0. -1.
          1   -1    0    0  501    0 -0.00000000000E+00 -0.00000000000E+00 -0.11794946454E+03  0.11794946454E+03  0.00000000000E+00 0. -1.
         25    2    1    2    0    0  0.93995776050E+02 -0.28188301318E+02  0.19394762421E+03  0.25073763823E+03  0.12499558408E+03 0.  0.
          2    1    1    2  501    0 -0.12681756538E+03  0.66355484940E+02 -0.31677065651E+02  0.14659188845E+03  0.00000000000E+00 0. -1.
          1    1    1    2  502    0  0.32821789329E+02 -0.38167183622E+02  0.15079856682E+04  0.15088256292E+04  0.00000000000E+00 0. -1.
         22    1    3    3    0    0 -0.86803304946E+01 -0.52647931484E+02  0.66159785940E+02  0.84995706378E+02  0.00000000000E+00 0.  1.
         22    1    3    3    0    0  0.10267610655E+03  0.24459630166E+02  0.12778783827E+03  0.16574193185E+03  0.00000000000E+00 0.  1.
</event>
<event>
 7    1  0.6255318E-006  0.3551524E+03  0.7818608E-02  0.1296513E+00
          2   -1    0    0  502    0  0.00000000000E+00  0.00000000000E+00  0.48480050440E+03  0.48480050440E+03  0.00000000000E+00 0. -1.
          1   -1    0    0  501    0 -0.00000000000E+00 -0.00000000000E+00 -0.12885709206E+04  0.12885709206E+04  0.00000000000E+00 0. -1.
         25    2    1    2    0    0  0.88077344846E+02  0.32538395944E+03 -0.19909713680E+03  0.41097584213E+03  0.12501653167E+03 0.  0.
          2    1    1    2  501    0  0.13011379758E+02  0.20380916049E+02 -0.89770168252E+03  0.89802727605E+03  0.00000000000E+00 0. -1.
          1    1    1    2  502    0 -0.10108872460E+03 -0.34576487549E+03  0.29302840310E+03  0.46436830683E+03  0.00000000000E+00 0. -1.
         22    1    3    3    0    0 -0.74202408227E+00  0.21382111707E+03 -0.14551536371E+03  0.25864017821E+03  0.00000000000E+00 0.  1.
         22    1    3    3    0    0  0.88819368928E+02  0.11156284237E+03 -0.53581773093E+02  0.15233566392E+03  0.00000000000E+00 0.  1.
</event>
<event>
 7    1  0.6255318E-006  0.9959386E+02  0.7818608E-02  0.1296604E+00
          2   -1    0    0  502    0  0.00000000000E+00  0.00000000000E+00  0.39751474447E+03  0.39751474447E+03  0.00000000000E+00 0. -1.
          1   -1    0    0  501    0 -0.00000000000E+00 -0.00000000000E+00 -0.33551007364E+03  0.33551007364E+03  0.00000000000E+00 0. -1.
         25    2    1    2    0    0  0.85872888302E+02  0.56089569137E+02  0.85179642305E+02  0.18274659414E+03  0.12498221272E+03 0.  0.
          2    1    1    2  501    0  0.15691864110E+02 -0.84712867551E+02 -0.26916181373E+03  0.28261384697E+03  0.00000000000E+00 0. -1.
          1    1    1    2  502    0 -0.10156475241E+03  0.28623298414E+02  0.24598684226E+03  0.26766437699E+03  0.00000000000E+00 0. -1.
         22    1    3    3    0    0  0.30024487345E+02 -0.39344835490E+02  0.14736001988E+02  0.51639477870E+02  0.00000000000E+00 0.  1.
         22    1    3    3    0    0  0.55848400957E+02  0.95434404627E+02  0.70443640316E+02  0.13110711627E+03  0.00000000000E+00 0.  1.
</event>
<event>
 7    1  0.6255318E-006  0.1592463E+03  0.7818608E-02  0.1250226E+00
          2   -1    0    0  502    0  0.00000000000E+00  0.00000000000E+00  0.11739726942E+04  0.11739726942E+04  0.00000000000E+00 0. -1.
          1   -1    0    0  501    0 -0.00000000000E+00 -0.00000000000E+00 -0.61550781723E+03  0.61550781723E+03  0.00000000000E+00 0. -1.
         25    2    1    2    0    0  0.13677012002E+03  0.55078880299E+02 -0.22672559667E+03  0.29793986760E+03  0.12499567887E+03 0.  0.
          2    1    1    2  501    0  0.20987325435E+02 -0.81519509790E+02 -0.34243335735E+03  0.35262799454E+03  0.00000000000E+00 0. -1.
          1    1    1    2  502    0 -0.15775744546E+03  0.26440629492E+02  0.11276238310E+04  0.11389126493E+04  0.00000000000E+00 0. -1.
         22    1    3    3    0    0  0.19759970370E+02  0.17473544429E+02  0.12347740329E+02  0.29124695280E+02  0.00000000000E+00 0.  1.
         22    1    3    3    0    0  0.11701014965E+03  0.37605335870E+02 -0.23907333700E+03  0.26881517232E+03  0.00000000000E+00 0.  1.
</event>
<event>
 7    1  0.6255318E-006  0.9805999E+02  0.7818608E-02  0.1294052E+00
          2   -1    0    0  502    0  0.00000000000E+00  0.00000000000E+00  0.80359023308E+03  0.80359023308E+03  0.00000000000E+00 0. -1.
          1   -1    0    0  501    0 -0.00000000000E+00 -0.00000000000E+00 -0.88528647229E+02  0.88528647229E+02  0.00000000000E+00 0. -1.
         25    2    1    2    0    0  0.18313485511E+01 -0.10043208645E+03  0.92644723417E+02  0.18519796660E+03  0.12500113691E+03 0.  0.
          2    1    1    2  501    0 -0.86707062713E+02  0.51321253913E+02  0.28146627467E+02  0.10461461879E+03  0.00000000000E+00 0. -1.
          1    1    1    2  502    0  0.84875714162E+02  0.49110832535E+02  0.59427023497E+03  0.60230629492E+03  0.00000000000E+00 0. -1.
         22    1    3    3    0    0  0.24532573953E+02 -0.36949565081E+02 -0.24031016301E+02  0.50444100635E+02  0.00000000000E+00 0. -1.
         22    1    3    3    0    0 -0.22701225402E+02 -0.63482521367E+02  0.11667573972E+03  0.13475386597E+03  0.00000000000E+00 0. -1.
</event>
<event>
 7    1  0.6255318E-006  0.9752030E+02  0.7818608E-02  0.1290637E+00
          2   -1    0    0  502    0  0.00000000000E+00  0.00000000000E+00  0.16248275036E+03  0.16248275036E+03  0.00000000000E+00 0. -1.
          1   -1    0    0  501    0 -0.00000000000E+00 -0.00000000000E+00 -0.14026773596E+04  0.14026773596E+04  0.00000000000E+00 0. -1.
         25    2    1    2    0    0  0.47885245779E+02  0.62034844981E+02  0.15231422711E+02  0.14832197803E+03  0.12500437662E+03 0.  0.
          2    1    1    2  501    0  0.71107397703E+02 -0.66737893927E+02 -0.12893359414E+04  0.12930187076E+04  0.00000000000E+00 0. -1.
          1    1    1    2  502    0 -0.11899264348E+03  0.47030489465E+01  0.33909909458E+02  0.12381942429E+03  0.00000000000E+00 0. -1.
         22    1    3    3    0    0  0.78348058102E+02  0.68939862796E+02  0.36470348870E+02  0.11054957819E+03  0.00000000000E+00 0.  1.
         22    1    3    3    0    0 -0.30462812323E+02 -0.69050178152E+01 -0.21238926160E+02  0.37772399845E+02  0.00000000000E+00 0.  1.
</event>
<event>
 7    1  0.6255318E-006  0.1354048E+03  0.7818608E-02  0.1231061E+00
          2   -1    0    0  502    0  0.00000000000E+00  0.00000000000E+00  0.13591275287E+04  0.13591275287E+04  0.00000000000E+00 0. -1.
          1   -1    0    0  501    0 -0.00000000000E+00 -0.00000000000E+00 -0.60690881088E+03  0.60690881088E+03  0.00000000000E+00 0. -1.
         25    2    1    2    0    0  0.11992010756E+03 -0.16666881506E+03 -0.36087015151E+03  0.43360197052E+03  0.12499630587E+03 0.  0.
          2    1    1    2  501    0 -0.11601056749E+03  0.31629373708E+02 -0.18864491118E+03  0.22370912266E+03  0.00000000000E+00 0. -1.
          1    1    1    2  502    0 -0.39095400699E+01  0.13503944135E+03  0.13017337805E+04  0.13087252464E+04  0.00000000000E+00 0. -1.
         22    1    3    3    0    0  0.38028432579E+02 -0.12203238182E+03 -0.28851023766E+03  0.31555700140E+03  0.00000000000E+00 0.  1.
         22    1    3    3    0    0  0.81891674979E+02 -0.44636433233E+02 -0.72359913845E+02  0.11804496912E+03  0.00000000000E+00 0.  1.
</event>
<event>
 7    1  0.6255318E-006  0.1130512E+03  0.7818608E-02  0.1372931E+00
          2   -1    0    0  502    0  0.00000000000E+00  0.00000000000E+00  0.46492602248E+03  0.46492602248E+03  0.00000000000E+00 0. -1.
          1   -1    0    0  501    0 -0.00000000000E+00 -0.00000000000E+00 -0.26989704390E+03  0.26989704390E+03  0.00000000000E+00 0. -1.
         25    2    1    2    0    0 -0.37386235427E+02 -0.68208262913E+02 -0.58418134450E+02  0.15838473794E+03  0.12499179594E+03 0.  0.
          2    1    1    2  501    0 -0.27444394738E+02 -0.27641290580E+02 -0.15090676598E+03  0.15585277593E+03  0.00000000000E+00 0. -1.
          1    1    1    2  502    0  0.64830630165E+02  0.95849553493E+02  0.40435387901E+03  0.42058555251E+03  0.00000000000E+00 0. -1.
         22    1    3    3    0    0 -0.22784551364E+01  0.63245147813E+01  0.33951946872E+02  0.34611060969E+02  0.00000000000E+00 0.  1.
         22    1    3    3    0    0 -0.35107780291E+02 -0.74532777694E+02 -0.92370081322E+02  0.12377367697E+03  0.00000000000E+00 0.  1.
</event>
<event>
 7    1  0.6255318E-006  0.1036673E+03  0.7818608E-02  0.1353589E+00
          2   -1    0    0  502    0  0.00000000000E+00  0.00000000000E+00  0.12613480854E+04  0.12613480854E+04  0.00000000000E+00 0. -1.
          1   -1    0    0  501    0 -0.00000000000E+00 -0.00000000000E+00 -0.77335585402E+02  0.77335585402E+02  0.00000000000E+00 0. -1.
         25    2    1    2    0    0 -0.50448174339E+02  0.42081866040E+02  0.41199029997E+03  0.43551941338E+03  0.12500100167E+03 0.  0.
          2    1    1    2  501    0  0.57369978102E+02 -0.91534553259E+02 -0.19751011142E+02  0.10981799155E+03  0.00000000000E+00 0. -1.
          1    1    1    2  502    0 -0.69218037627E+01  0.49452687219E+02  0.79177321117E+03  0.79334626587E+03  0.00000000000E+00 0. -1.
         22    1    3    3    0    0 -0.59662331572E+02  0.77150402454E+02  0.35345723357E+03  0.36666578020E+03  0.00000000000E+00 0. -1.
         22    1    3    3    0    0  0.92141572324E+01 -0.35068536413E+02  0.58533066393E+02  0.68853633173E+02  0.00000000000E+00 0. -1.
</event>
<event>
 7    1  0.6255318E-006  0.6133431E+02  0.7818608E-02  0.1393045E+00
          2   -1    0    0  502    0  0.00000000000E+00  0.00000000000E+00  0.17542002277E+04  0.17542002277E+04  0.00000000000E+00 0. -1.
          1   -1    0    0  501    0 -0.00000000000E+00 -0.00000000000E+00 -0.28850064594E+02  0.28850064594E+02  0.00000000000E+00 0. -1.
         25    2    1    2    0    0 -0.20465676948E+02 -0.74738244686E+02  0.25486939916E+03  0.29425940106E+03  0.12500214132E+03 0.  0.
          2    1    1    2  501    0  0.55952778012E+02  0.24238976143E+02  0.10142027549E+03  0.11833982260E+03  0.00000000000E+00 0. -1.
          1    1    1    2  502    0 -0.35487101064E+02  0.50499268543E+02  0.13690604884E+04  0.13704510686E+04  0.00000000000E+00 0. -1.
         22    1    3    3    0    0  0.94369655088E+01 -0.10400406163E+03  0.16750607437E+03  0.19739348040E+03  0.00000000000E+00 0. -1.
         22    1    3    3    0    0 -0.29902642457E+02  0.29265816949E+02  0.87363324788E+02  0.96865920662E+02  0.00000000000E+00 0. -1.
</event>
<event>
 7    1  0.6255318E-006  0.1706552E+03  0.7818608E-02  0.1254997E+00
          2   -1    0    0  502    0  0.00000000000E+00  0.00000000000E+00  0.17315910076E+03  0.17315910076E+03  0.00000000000E+00 0. -1.
          1   -1    0    0  501    0 -0.00000000000E+00 -0.00000000000E+00 -0.16729016431E+04  0.16729016431E+04  0.00000000000E+00 0. -1.
         25    2    1    2    0    0  0.12449174927E+03  0.16675986841E+03 -0.12054315169E+04  0.12296329978E+04  0.12500047229E+03 0.  0.
          2    1    1    2  501    0 -0.99691676959E+02 -0.96074767101E+02 -0.43529261170E+03  0.45678052622E+03  0.00000000000E+00 0. -1.
          1    1    1    2  502    0 -0.24800072313E+02 -0.70685101308E+02  0.14098158625E+03  0.15964721982E+03  0.00000000000E+00 0. -1.
         22    1    3    3    0    0  0.79971293802E+02  0.17427087291E+03 -0.10649606118E+04  0.10820844928E+04  0.00000000000E+00 0.  1.
         22    1    3    3    0    0  0.44520455471E+02 -0.75110044986E+01 -0.14047090514E+03  0.14754850502E+03  0.00000000000E+00 0.  1.
</event>
<event>
 7    1  0.7297983E-006  0.1025234E+03  0.7818608E-02  0.1364990E+00
          2   -1    0    0  502    0  0.00000000000E+00  0.00000000000E+00  0.13746409318E+04  0.13746409318E+04  0.00000000000E+00 0. -1.
          1   -1    0    0  501    0 -0.00000000000E+00 -0.00000000000E+00 -0.11279271942E+04  0.11279271942E+04  0.00000000000E+00 0. -1.
         25    2    1    2    0    0  0.63516786472E+02  0.27753781182E+02 -0.76142409796E+02  0.16194805979E+03  0.12499941187E+03 0.  0.
          2    1    1    2  501    0  0.97997551075E+01  0.44815338750E+02 -0.10063609709E+04  0.10074060023E+04  0.00000000000E+00 0. -1.
          1    1    1    2  502    0 -0.73316541579E+02 -0.72569119932E+02  0.13292171184E+04  0.13332140639E+04  0.00000000000E+00 0. -1.
         22    1    3    3    0    0  0.61764218598E+01 -0.44979966689E+02 -0.45790448585E+02  0.64483414705E+02  0.00000000000E+00 0. -1.
         22    1    3    3    0    0  0.57340364612E+02  0.72733747871E+02 -0.30351961211E+02  0.97464645090E+02  0.00000000000E+00 0. -1.
</event>
<event>
 7    1  0.6255318E-006  0.2049266E+03  0.7818608E-02  0.1217018E+00
          2   -1    0    0  502    0  0.00000000000E+00  0.00000000000E+00  0.77194098476E+03  0.77194098476E+03  0.00000000000E+00 0. -1.
          1   -1    0    0  501    0 -0.00000000000E+00 -0.00000000000E+00 -0.99560342982E+03  0.99560342982E+03  0.00000000000E+00 0. -1.
         25    2    1    2    0    0 -0.13643260761E+03 -0.12554173703E+01 -0.12901629127E+02  0.18548622087E+03  0.12499301423E+03 0.  0.
          2    1    1    2  501    0  0.20760750252E+03  0.59519809491E+02 -0.88021052443E+03  0.90631895608E+03  0.00000000000E+00 0. -1.
          1    1    1    2  502    0 -0.71174894913E+02 -0.58264392120E+02  0.66944970851E+03  0.67573923763E+03  0.00000000000E+00 0. -1.
         22    1    3    3    0    0 -0.12820839017E+03  0.29514067298E+02  0.27130437772E+02  0.13432993759E+03  0.00000000000E+00 0. -1.
         22    1    3    3    0    0 -0.82242174424E+01 -0.30769484669E+02 -0.40032066899E+02  0.51156283284E+02  0.00000000000E+00 0. -1.
</event>
<event>
 7    1  0.6255318E-006  0.6243491E+02  0.7818608E-02  0.1457275E+00
          2   -1    0    0  502    0  0.00000000000E+00  0.00000000000E+00  0.30749404270E+03  0.30749404270E+03  0.00000000000E+00 0. -1.
          1   -1    0    0  501    0 -0.00000000000E+00 -0.00000000000E+00 -0.49670645303E+02  0.49670645303E+02  0.00000000000E+00 0. -1.
         25    2    1    2    0    0  0.77127660515E+02  0.19495570397E+02  0.12885129622E+03  0.19632297998E+03  0.12494519858E+03 0.  0.
          2    1    1    2  501    0 -0.44274567047E+02 -0.35802789107E+02  0.59955700841E+02  0.82684720828E+02  0.00000000000E+00 0. -1.
          1    1    1    2  502    0 -0.32853093468E+02  0.16307218710E+02  0.69016400335E+02  0.78156987196E+02  0.00000000000E+00 0. -1.
         22    1    3    3    0    0 -0.30859771296E+02  0.14000914315E+02  0.57605884419E+02  0.66834040771E+02  0.00000000000E+00 0. -1.
         22    1    3    3    0    0  0.10798743181E+03  0.54946560820E+01  0.71245411804E+02  0.12948893921E+03  0.00000000000E+00 0. -1.
</event>
<event>
 7    1  0.6255318E-006  0.8174992E+02  0.7818608E-02  0.1401273E+00
          2   -1    0    0  502    0  0.00000000000E+00  0.00000000000E+00  0.12138787349E+03  0.12138787349E+03  0.00000000000E+00 0. -1.
          1   -1    0    0  501    0 -0.00000000000E+00 -0.00000000000E+00 -0.34289310838E+04  0.34289310838E+04  0.00000000000E+00 0. -1.
         25    2    1    2    0    0 -0.89045934674E+02 -0.35053768055E+01 -0.46476560262E+03  0.48946320022E+03  0.12500277134E+03 0.  0.
          2    1    1    2  501    0  0.18798962524E+02 -0.38508854274E+02 -0.29362772035E+04  0.29365898843E+04  0.00000000000E+00 0. -1.
          1    1    1    2  502    0  0.70246972150E+02  0.42014231080E+02  0.93499595825E+02  0.12426587274E+03  0.00000000000E+00 0. -1.
         22    1    3    3    0    0 -0.16102036519E+02  0.40247190881E+02 -0.30864909152E+03  0.31167831758E+03  0.00000000000E+00 0.  1.
         22    1    3    3    0    0 -0.72943898155E+02 -0.43752567686E+02 -0.15611651110E+03  0.17778488264E+03  0.00000000000E+00 0.  1.
</event>
<event>
 7    1  0.6255318E-006  0.1671639E+03  0.7818608E-02  0.1389087E+00
          2   -1    0    0  502    0  0.00000000000E+00  0.00000000000E+00  0.10926215337E+03  0.10926215337E+03  0.00000000000E+00 0. -1.
          1   -1    0    0  501    0 -0.00000000000E+00 -0.00000000000E+00 -0.68720807573E+03  0.68720807573E+03  0.00000000000E+00 0. -1.
         25    2    1    2    0    0  0.95840766340E+02  0.12425722517E+03 -0.11392561347E+03  0.23071498759E+03  0.12500019838E+03 0.  0.
          2    1    1    2  501    0 -0.87282977863E+02 -0.14570828092E+03 -0.49715344453E+03  0.52536727036E+03  0.00000000000E+00 0. -1.
          1    1    1    2  502    0 -0.85577884764E+01  0.21451055752E+02  0.33133135638E+02  0.40387971151E+02  0.00000000000E+00 0. -1.
         22    1    3    3    0    0  0.18052750056E+02  0.74954119634E+02  0.84469185943E+01  0.77558831015E+02  0.00000000000E+00 0. -1.
         22    1    3    3    0    0  0.77788016284E+02  0.49303105534E+02 -0.12237253207E+03  0.15315615658E+03  0.00000000000E+00 0. -1.
</event>
<event>
 7    1  0.6255318E-006  0.1604493E+03  0.7818608E-02  0.1264304E+00
          2   -1    0    0  502    0  0.00000000000E+00  0.00000000000E+00  0.48664936595E+03  0.48664936595E+03  0.00000000000E+00 0. -1.
          1   -1    0    0  501    0 -0.00000000000E+00 -0.00000000000E+00 -0.13029314098E+04  0.13029314098E+04  0.00000000000E+00 0. -1.
         25    2    1    2    0    0  0.21344001442E+03  0.23390580732E+02 -0.27619769852E+02  0.24998389720E+03  0.12500135260E+03 0.  0.
          2    1    1    2  501    0 -0.67306850847E+02  0.27496074408E+02 -0.11469864674E+04  0.11492885637E+04  0.00000000000E+00 0. -1.
          1    1    1    2  502    0 -0.14613316357E+03 -0.50886655141E+02  0.35832419332E+03  0.39030831491E+03  0.00000000000E+00 0. -1.
         22    1    3    3    0    0  0.13234217918E+03 -0.34859698516E+02 -0.53325565032E+02  0.14687840841E+03  0.00000000000E+00 0. -1.
         22    1    3    3    0    0  0.81097835235E+02  0.58250279249E+02  0.25705795180E+02  0.10310548879E+03  0.00000000000E+00 0. -1.
</event>
<event>
 7    1  0.6255318E-006  0.9102974E+02  0.7818608E-02  0.1317515E+00
          2   -1    0    0  502    0  0.00000000000E+00  0.00000000000E+00  0.99160412054E+02  0.99160412054E+02  0.00000000000E+00 0. -1.
          1   -1    0    0  501    0 -0.00000000000E+00 -0.00000000000E+00 -0.16469350578E+04  0.16469350578E+04  0.00000000000E+00 0. -1.
         25    2    1    2    0    0 -0.23807484413E+02  0.82310799392E+02 -0.11503708745E+03  0.19026490902E+03  0.12500136042E+03 0.  0.
          2    1    1    2  501    0 -0.53767476427E+02 -0.75219499152E+02 -0.14675837701E+04  0.14704934671E+04  0.00000000000E+00 0. -1.
          1    1    1    2  502    0  0.77574960839E+02 -0.70913002402E+01  0.34846211792E+02  0.85337093720E+02  0.00000000000E+00 0. -1.
         22    1    3    3    0    0 -0.18029308396E+02  0.80586427538E+02 -0.78970962857E+01  0.82955363867E+02  0.00000000000E+00 0. -1.
         22    1    3    3    0    0 -0.57781760164E+01  0.17243718546E+01 -0.10713999116E+03  0.10730954516E+03  0.00000000000E+00 0. -1.
</event>
<event>
 7    1  0.6255318E-006  0.1433207E+03  0.7818608E-02  0.1279833E+00
          2   -1    0    0  502    0  0.00000000000E+00  0.00000000000E+00  0.28637536560E+04  0.28637536560E+04  0.00000000000E+00 0. -1.
          1   -1    0    0  501    0 -0.00000000000E+00 -0.00000000000E+00 -0.13172896014E+03  0.13172896014E+03  0.00000000000E+00 0. -1.
         25    2    1    2    0    0 -0.81380375601E+02 -0.57535264010E+02  0.34128023030E+03  0.37686963309E+03  0.12500181045E+03 0.  0.
          2    1    1    2  501    0  0.14682484321E+03  0.32465957591E+02 -0.63599909202E+02  0.16326824993E+03  0.00000000000E+00 0. -1.
          1    1    1    2  502    0 -0.65444467609E+02  0.25069306419E+02  0.24543443748E+04  0.24553447332E+04  0.00000000000E+00 0. -1.
         22    1    3    3    0    0 -0.48328283414E+02 -0.40369478966E+02  0.42949718682E+02  0.76223330711E+02  0.00000000000E+00 0.  1.
         22    1    3    3    0    0 -0.33052092187E+02 -0.17165785044E+02  0.29833051161E+03  0.30064630238E+03  0.00000000000E+00 0.  1.
</event>
<event>
 7    1  0.6255318E-006  0.1733439E+03  0.7818608E-02  0.1269867E+00
          2   -1    0    0  502    0  0.00000000000E+00  0.00000000000E+00  0.80495327740E+03  0.80495327740E+03  0.00000000000E+00 0. -1.
          1   -1    0    0  501    0 -0.00000000000E+00 -0.00000000000E+00 -0.77995637284E+03  0.77995637284E+03  0.00000000000E+00 0. -1.
         25    2    1    2    0    0  0.39049985083E+02  0.21416128037E+03 -0.28235473947E+03  0.37780802301E+03  0.12499899203E+03 0.  0.
          2    1    1    2  501    0  0.29831417680E+02 -0.56348004693E+02 -0.43774677083E+03  0.44236551231E+03  0.00000000000E+00 0. -1.
          1    1    1    2  502    0 -0.68881402763E+02 -0.15781327567E+03  0.74509841486E+03  0.76473611491E+03  0.00000000000E+00 0. -1.
         22    1    3    3    0    0  0.69589921716E+02  0.17653605008E+03 -0.16734598850E+03  0.25300674704E+03  0.00000000000E+00 0.  1.
         22    1    3    3    0    0 -0.30539936633E+02  0.37625230285E+02 -0.11500875097E+03  0.12480127597E+03  0.00000000000E+00 0.  1.
</event>
<event>
 7    1  0.6255318E-006  0.8488752E+02  0.7818608E-02  0.1416868E+00
          2   -1    0    0  502    0  0.00000000000E+00  0.00000000000E+00  0.88300029638E+03  0.88300029638E+03  0.00000000000E+00 0. -1.
          1   -1    0    0  501    0 -0.00000000000E+00 -0.00000000000E+00 -0.10155106752E+04  0.10155106752E+04  0.00000000000E+00 0. -1.
         25    2    1    2    0    0  0.95250187861E+02  0.41793763817E+02  0.10484475798E+03  0.19348512884E+03  0.12499901930E+03 0.  0.
          2    1    1    2  501    0 -0.62249158980E+02 -0.57467322459E+02 -0.96888617318E+03  0.97258309029E+03  0.00000000000E+00 0. -1.
          1    1    1    2  502    0 -0.33001028881E+02  0.15673558642E+02  0.73153103641E+03  0.73244275242E+03  0.00000000000E+00 0. -1.
         22    1    3    3    0    0  0.10734933217E+03  0.67884996683E+02  0.10489080231E+03  0.16472502026E+03  0.00000000000E+00 0. -1.
         22    1    3    3    0    0 -0.12099144307E+02 -0.26091232865E+02 -0.46044334940E-01  0.28760108579E+02  0.00000000000E+00 0. -1.
</event>
<event>
 7    1  0.6255318E-006  0.3917198E+02  0.7818608E-02  0.1516549E+00
          2   -1    0    0  502    0  0.00000000000E+00  0.00000000000E+00  0.30283897533E+04  0.30283897533E+04  0.00000000000E+00 0. -1.
          1   -1    0    0  501    0 -0.00000000000E+00 -0.00000000000E+00 -0.46285979630E+02  0.46285979630E+02  0.00000000000E+00 0. -1.
         25    2    1    2    0    0  0.63335797812E+02  0.26212406784E+02  0.21223013582E+03  0.25566759200E+03  0.12500309395E+03 0.  0.
          2    1    1    2  501    0 -0.38417388918E+02  0.38358239458E+01 -0.91764058319E+01  0.39683948148E+02  0.00000000000E+00 0. -1.
          1    1    1    2  502    0 -0.24918408893E+02 -0.30048230729E+02  0.27790500437E+04  0.27793241928E+04  0.00000000000E+00 0. -1.
         22    1    3    3    0    0  0.51824891159E+02  0.37216414477E+01  0.22243229311E+03  0.22842021578E+03  0.00000000000E+00 0. -1.
         22    1    3    3    0    0  0.11510906653E+02  0.22490765336E+02 -0.10202157295E+02  0.27247376219E+02  0.00000000000E+00 0. -1.
</event>
<event>
 7    1  0.6255318E-006  0.6656296E+02  0.7818608E-02  0.1439738E+00
          2   -1    0    0  502    0  0.00000000000E+00  0.00000000000E+00  0.63804567011E+02  0.63804567011E+02  0.00000000000E+00 0. -1.
          1   -1    0    0  501    0 -0.00000000000E+00 -0.00000000000E+00 -0.12946242144E+04  0.12946242144E+04  0.00000000000E+00 0. -1.
         25    2    1    2    0    0  0.40758018924E+01  0.54496911298E+02 -0.30631133751E+03  0.33531733050E+03  0.12499820458E+03 0.  0.
          2    1    1    2  501    0  0.34848532319E+02 -0.58774912982E+02 -0.96463033736E+03  0.96704736097E+03  0.00000000000E+00 0. -1.
          1    1    1    2  502    0 -0.38924334211E+02  0.42780016843E+01  0.40122027476E+02  0.56064089941E+02  0.00000000000E+00 0. -1.
         22    1    3    3    0    0 -0.59808092775E+02  0.31585058732E+02 -0.13347767230E+03  0.14963593452E+03  0.00000000000E+00 0.  1.
         22    1    3    3    0    0  0.63883894668E+02  0.22911852566E+02 -0.17283366521E+03  0.18568139599E+03  0.00000000000E+00 0.  1.
</event>
<event>
 7    1  0.6255318E-006  0.7986863E+02  0.7818608E-02  0.1394313E+00
          2   -1    0    0  502    0  0.00000000000E+00  0.00000000000E+00  0.30462182643E+03  0.30462182643E+03  0.00000000000E+00 0. -1.
          1   -1    0    0  501    0 -0.00000000000E+00 -0.00000000000E+00 -0.84465339615E+03  0.84465339615E+03  0.00000000000E+00 0. -1.
         25    2    1    2    0    0  0.47977849456E+02  0.25267381396E+02  0.36276799346E+02  0.14100306584E+03  0.12500217520E+03 0.  0.
          2    1    1    2  501    0  0.36991340310E+02 -0.27935937619E+02 -0.78321320092E+03  0.78458377116E+03  0.00000000000E+00 0. -1.
          1    1    1    2  502    0 -0.84969189767E+02  0.26685562223E+01  0.20690483185E+03  0.22368838558E+03  0.00000000000E+00 0. -1.
         22    1    3    3    0    0  0.89453873880E+02  0.27232270765E+02  0.16270638263E+02  0.94912200441E+02  0.00000000000E+00 0. -1.
         22    1    3    3    0    0 -0.41476024424E+02 -0.19648893681E+01  0.20006161083E+02  0.46090865402E+02  0.00000000000E+00 0. -1.
</event>
<event>
 7    1  0.6255318E-006  0.1412638E+03  0.7818608E-02  0.1275941E+00
          2   -1    0    0  502    0  0.00000000000E+00  0.00000000000E+00  0.27863224431E+03  0.27863224431E+03  0.00000000000E+00 0. -1.
          1   -1    0    0  501    0 -0.00000000000E+00 -0.00000000000E+00 -0.18701082270E+04  0.18701082270E+04  0.00000000000E+00 0. -1.
         25    2    1    2    0    0  0.82708770408E+02 -0.52765544133E+02  0.20825083803E+02  0.16028206501E+03  0.12502684871E+03 0.  0.
          2    1    1    2  501    0  0.73789769097E+02  0.74441737429E+00 -0.17633066556E+04  0.17648500916E+04  0.00000000000E+00 0. -1.
          1    1    1    2  502    0 -0.15649853950E+03  0.52021126759E+02  0.15100558905E+03  0.22360831474E+03  0.00000000000E+00 0. -1.
         22    1    3    3    0    0  0.22959968517E+02 -0.82812568986E+02 -0.10233157051E+02  0.86543626222E+02  0.00000000000E+00 0. -1.
         22    1    3    3    0    0  0.59748801891E+02  0.30047024853E+02  0.31058240854E+02  0.73738438788E+02  0.00000000000E+00 0. -1.
</event>
<event>
 7    1  0.6255318E-006  0.1376408E+03  0.7818608E-02  0.1225604E+00
          2   -1    0    0  502    0  0.00000000000E+00  0.00000000000E+00  0.15905542605E+04  0.15905542605E+04  0.00000000000E+00 0. -1.
          1   -1    0    0  501    0 -0.00000000000E+00 -0.00000000000E+00 -0.73192578355E+02  0.73192578355E+02  0.00000000000E+00 0. -1.
         25    2    1    2    0    0 -0.30816221670E+02 -0.54020384176E+00  0.21768435203E+03  0.25290544842E+03  0.12499902953E+03 0.  0.
          2    1    1    2  501    0 -0.61048776113E+02  0.12336139172E+03  0.42085427060E+02  0.14393112659E+03  0.00000000000E+00 0. -1.
          1    1    1    2  502    0  0.91864997783E+02 -0.12282118788E+03  0.12575919030E+04  0.12669102638E+04  0.00000000000E+00 0. -1.
         22    1    3    3    0    0 -0.11630985949E+01  0.57817546231E+02  0.13901678049E+03  0.15056522410E+03  0.00000000000E+00 0.  1.
         22    1    3    3    0    0 -0.29653123075E+02 -0.58357750073E+02  0.78667571547E+02  0.10234022432E+03  0.00000000000E+00 0.  1.
</event>
<event>
 7    1  0.6255318E-006  0.4525601E+02  0.7818608E-02  0.1535607E+00
          2   -1    0    0  502    0  0.00000000000E+00  0.00000000000E+00  0.96164544974E+03  0.96164544974E+03  0.00000000000E+00 0. -1.
          1   -1    0    0  501    0 -0.00000000000E+00 -0.00000000000E+00 -0.34326490365E+03  0.34326490365E+03  0.00000000000E+00 0. -1.
         25    2    1    2    0    0  0.46291004440E+02 -0.31226331145E+02 -0.91742731501E+02  0.16480291588E+03  0.12500132580E+03 0.  0.
          2    1    1    2  501    0 -0.45036990352E+02  0.18028321213E+01 -0.21239212404E+03  0.21712207409E+03  0.00000000000E+00 0. -1.
          1    1    1    2  502    0 -0.12540140880E+01  0.29423499024E+02  0.92251540163E+03  0.92298536342E+03  0.00000000000E+00 0. -1.
         22    1    3    3    0    0  0.14367636920E+02 -0.75399899496E+02 -0.29908002652E+02  0.82377560399E+02  0.00000000000E+00 0. -1.
         22    1    3    3    0    0  0.31923367520E+02  0.44173568351E+02 -0.61834728849E+02  0.82425355483E+02  0.00000000000E+00 0. -1.
</event>
<event>
 7    1  0.6255318E-006  0.1250380E+03  0.7818608E-02  0.1346308E+00
          2   -1    0    0  502    0  0.00000000000E+00  0.00000000000E+00  0.16547675977E+04  0.16547675977E+04  0.00000000000E+00 0. -1.
          1   -1    0    0  501    0 -0.00000000000E+00 -0.00000000000E+00 -0.10081978723E+04  0.10081978723E+04  0.00000000000E+00 0. -1.
         25    2    1    2    0    0 -0.31005585264E+02 -0.93289181842E+02  0.14461665153E+03  0.21494905685E+03  0.12499961350E+03 0.  0.
          2    1    1    2  501    0 -0.42746818475E+02 -0.10651172376E+02 -0.96977760720E+03  0.97077770133E+03  0.00000000000E+00 0. -1.
          1    1    1    2  502    0  0.73752403739E+02  0.10394035422E+03  0.14717306811E+04  0.14772387119E+04  0.00000000000E+00 0. -1.
         22    1    3    3    0    0 -0.30763852484E+02 -0.74229727325E+02  0.16713475984E+03  0.18544674434E+03  0.00000000000E+00 0.  1.
         22    1    3    3    0    0 -0.24173278033E+00 -0.19059454517E+02 -0.22518108317E+02  0.29502312509E+02  0.00000000000E+00 0.  1.
</event>
<event>
 7    1  0.6255318E-006  0.5568267E+02  0.7818608E-02  0.1542480E+00
          2   -1    0    0  502    0  0.00000000000E+00  0.00000000000E+00  0.17133765390E+04  0.17133765390E+04  0.00000000000E+00 0. -1.
          1   -1    0    0  501    0 -0.00000000000E+00 -0.00000000000E+00 -0.70497657924E+03  0.70497657924E+03  0.00000000000E+00 0. -1.
         25    2    1    2    0    0  0.18660808432E+02  0.63380138162E+02  0.54149032463E+03  0.55964444224E+03  0.12499944953E+03 0.  0.
          2    1    1    2  501    0 -0.21341626656E+02 -0.82675761738E+01 -0.69505648247E+03  0.69543319713E+03  0.00000000000E+00 0. -1.
          1    1    1    2  502    0  0.26808182237E+01 -0.55112561988E+02  0.11619661176E+04  0.11632754788E+04  0.00000000000E+00 0. -1.
         22    1    3    3    0    0 -0.25323701669E+02  0.68315752432E+01  0.19304541426E+02  0.32567247446E+02  0.00000000000E+00 0. -1.
         22    1    3    3    0    0  0.43984510101E+02  0.56548562919E+02  0.52218578320E+03  0.52707719480E+03  0.00000000000E+00 0. -1.
</event>
<event>
 7    1  0.6255318E-006  0.6104786E+02  0.7818608E-02  0.1523382E+00
          2   -1    0    0  502    0  0.00000000000E+00  0.00000000000E+00  0.48578933329E+03  0.48578933329E+03  0.00000000000E+00 0. -1.
          1   -1    0    0  501    0 -0.00000000000E+00 -0.00000000000E+00 -0.11940264144E+04  0.11940264144E+04  0.00000000000E+00 0. -1.
         25    2    1    2    0    0  0.37278861339E+02 -0.72069553789E+02  0.45275892524E+02  0.15575358880E+03  0.12500215956E+03 0.  0.
          2    1    1    2  501    0 -0.18156020153E+02  0.58125354279E+02 -0.11376090113E+04  0.11392376664E+04  0.00000000000E+00 0. -1.
          1    1    1    2  502    0 -0.19122841186E+02  0.13944199510E+02  0.38409603776E+03  0.38482449243E+03  0.00000000000E+00 0. -1.
         22    1    3    3    0    0  0.38376775371E+01 -0.13503877857E+00 -0.39479518244E+02  0.39665833725E+02  0.00000000000E+00 0.  1.
         22    1    3    3    0    0  0.33441183802E+02 -0.71934515010E+02  0.84755410767E+02  0.11608775507E+03  0.00000000000E+00 0.  1.
</event>
<event>
 7    1  0.6255318E-006  0.6551274E+02  0.7818608E-02  0.1428602E+00
          2   -1    0    0  502    0  0.00000000000E+00  0.00000000000E+00  0.12429100778E+04  0.12429100778E+04  0.00000000000E+00 0. -1.
          1   -1    0    0  501    0 -0.00000000000E+00 -0.00000000000E+00 -0.28186301104E+03  0.28186301104E+03  0.00000000000E+00 0. -1.
         25    2    1    2    0    0 -0.36142524039E+02  0.51522687207E+02 -0.25387580076E+02  0.14223554923E+03  0.12500221159E+03 0.  0.
          2    1    1    2  501    0 -0.27097041330E+02 -0.33733624074E+02 -0.19476451285E+03  0.19951296326E+03  0.00000000000E+00 0. -1.
          1    1    1    2  502    0  0.63239565369E+02 -0.17789063133E+02  0.11811991596E+04  0.11830245763E+04  0.00000000000E+00 0. -1.
         22    1    3    3    0    0  0.30330768879E+02  0.52745093928E+02  0.17264090140E+02  0.63245942816E+02  0.00000000000E+00 0.  1.
         22    1    3    3    0    0 -0.66473292919E+02 -0.12224067207E+01 -0.42651670217E+02  0.78989606417E+02  0.00000000000E+00 0.  1.
</event>
<event>
 7    1  0.8198964E-006  0.7132126E+02  0.7818608E-02  0.1359062E+00
          2   -1    0    0  502    0  0.00000000000E+00  0.00000000000E+00  0.23235479199E+04  0.23235479199E+04  0.00000000000E+00 0. -1.
          1   -1    0    0  501    0 -0.00000000000E+00 -0.00000000000E+00 -0.18587006663E+04  0.18587006663E+04  0.00000000000E+00 0. -1.
         25    2    1    2    0    0  0.13069173831E+03  0.45654367969E+02 -0.10976549977E+03  0.21642513765E+03  0.12500689377E+03 0.  0.
          2    1    1    2  501    0 -0.68343431813E+02 -0.11482929948E+02 -0.16943401695E+04  0.16957568494E+04  0.00000000000E+00 0. -1.
          1    1    1    2  502    0 -0.62348306497E+02 -0.34171438021E+02  0.22689529229E+04  0.22700665992E+04  0.00000000000E+00 0. -1.
         22    1    3    3    0    0  0.19416189755E+02  0.16738083449E+00  0.27689169565E+02  0.33818730788E+02  0.00000000000E+00 0. -1.
         22    1    3    3    0    0  0.11127554855E+03  0.45486987134E+02 -0.13745466933E+03  0.18260640686E+03  0.00000000000E+00 0. -1.
</event>
<event>
 7    1  0.6255318E-006  0.9018308E+02  0.7818608E-02  0.1479194E+00
          2   -1    0    0  502    0  0.00000000000E+00  0.00000000000E+00  0.17946622768E+04  0.17946622768E+04  0.00000000000E+00 0. -1.
          1   -1    0    0  501    0 -0.00000000000E+00 -0.00000000000E+00 -0.46343741571E+03  0.46343741571E+03  0.00000000000E+00 0. -1.
         25    2    1    2    0    0 -0.10458320131E+03 -0.17546434055E+01  0.10726597991E+04  0.10849727668E+04  0.12500454098E+03 0.  0.
          2    1    1    2  501    0  0.88617173561E+02  0.16442381986E+02 -0.45267281368E+03  0.46155826460E+03  0.00000000000E+00 0. -1.
          1    1    1    2  502    0  0.15966027751E+02 -0.14687738580E+02  0.71123787571E+03  0.71156866117E+03  0.00000000000E+00 0. -1.
         22    1    3    3    0    0  0.28296635927E+01 -0.16437761486E+02  0.59215233221E+03  0.59238719731E+03  0.00000000000E+00 0.  1.
         22    1    3    3    0    0 -0.10741286490E+03  0.14683118081E+02  0.48050746689E+03  0.49258556946E+03  0.00000000000E+00 0.  1.
</event>
<event>
 7    1  0.6255318E-006  0.6113300E+02  0.7818608E-02  0.1484573E+00
          2   -1    0    0  502    0  0.00000000000E+00  0.00000000000E+00  0.34983012772E+03  0.34983012772E+03  0.00000000000E+00 0. -1.
          1   -1    0    0  501    0 -0.00000000000E+00 -0.00000000000E+00 -0.72919391788E+03  0.72919391788E+03  0.00000000000E+00 0. -1.
         25    2    1    2    0    0  0.50209648606E+02 -0.68440453644E+02 -0.15506076019E+03  0.21650527285E+03  0.12500235723E+03 0.  0.
          2    1    1    2  501    0 -0.25220557718E+01  0.30710019331E+02 -0.54007085805E+03  0.54094916375E+03  0.00000000000E+00 0. -1.
          1    1    1    2  502    0 -0.47687592834E+02  0.37730434313E+02  0.31576782808E+03  0.32156960900E+03  0.00000000000E+00 0. -1.
         22    1    3    3    0    0  0.19365859520E+02  0.12743154372E+02 -0.12103023111E+03  0.12323043999E+03  0.00000000000E+00 0.  1.
         22    1    3    3    0    0  0.30843789087E+02 -0.81183608016E+02 -0.34030529080E+02  0.93274832860E+02  0.00000000000E+00 0.  1.
</event>
<event>
 7    1  0.6255318E-006  0.6588851E+02  0.7818608E-02  0.1425220E+00
          2   -1    0    0  502    0  0.00000000000E+00  0.00000000000E+00  0.14244459093E+02  0.14244459093E+02  0.00000000000E+00 0. -1.
          1   -1    0    0  501    0 -0.00000000000E+00 -0.00000000000E+00 -0.37151035293E+04  0.37151035293E+04  0.00000000000E+00 0. -1.
         25    2    1    2    0    0  0.94546930474E+02  0.41934248445E+02 -0.15814085366E+04  0.15897091647E+04  0.12499866221E+03 0.  0.
          2    1    1    2  501    0 -0.31968536019E+02 -0.30442503584E+02 -0.20265996645E+04  0.20270803964E+04  0.00000000000E+00 0. -1.
          1    1    1    2  502    0 -0.62578394454E+02 -0.11491744861E+02 -0.92850869096E+02  0.11255842725E+03  0.00000000000E+00 0. -1.
         22    1    3    3    0    0 -0.21169275865E+02 -0.18230969634E+02 -0.16920559576E+03  0.17149647265E+03  0.00000000000E+00 0.  1.
         22    1    3    3    0    0  0.11571620634E+03  0.60165218079E+02 -0.14122029408E+04  0.14182126921E+04  0.00000000000E+00 0.  1.
</event>
<event>
 7    1  0.6255318E-006  0.1072635E+03  0.7818608E-02  0.1369310E+00
          2   -1    0    0  502    0  0.00000000000E+00  0.00000000000E+00  0.11407439774E+04  0.11407439774E+04  0.00000000000E+00 0. -1.
          1   -1    0    0  501    0 -0.00000000000E+00 -0.00000000000E+00 -0.28916934588E+03  0.28916934588E+03  0.00000000000E+00 0. -1.
         25    2    1    2    0    0 -0.11976436981E+03  0.38469621465E+02  0.62719669677E+02  0.18810003247E+03  0.12499779678E+03 0.  0.
          2    1    1    2  501    0  0.13061173161E+02 -0.40233302018E+02 -0.22166950677E+03  0.22566941102E+03  0.00000000000E+00 0. -1.
          1    1    1    2  502    0  0.10670319665E+03  0.17636805536E+01  0.10105244686E+04  0.10161438798E+04  0.00000000000E+00 0. -1.
         22    1    3    3    0    0 -0.10376017908E+03  0.72603030091E+02  0.76511424460E+02  0.14795733444E+03  0.00000000000E+00 0. -1.
         22    1    3    3    0    0 -0.16004190725E+02 -0.34133408626E+02 -0.13791754783E+02  0.40142698031E+02  0.00000000000E+00 0. -1.
</event>
<event>
 7    1  0.6255318E-006  0.1255429E+03  0.7818608E-02  0.1237801E+00
          2   -1    0    0  502    0  0.00000000000E+00  0.00000000000E+00  0.54563305418E+03  0.54563305418E+03  0.00000000000E+00 0. -1.
          1   -1    0    0  501    0 -0.00000000000E+00 -0.00000000000E+00 -0.28378236871E+03  0.28378236871E+03  0.00000000000E+00 0. -1.
         25    2    1    2    0    0  0.90866307473E+02 -0.42965861646E+02  0.20600224501E+03  0.26107857065E+03  0.12498937555E+03 0.  0.
          2    1    1    2  501    0 -0.77900253421E+01  0.13098770677E+03 -0.22614967813E+03  0.26146154735E+03  0.00000000000E+00 0. -1.
          1    1    1    2  502    0 -0.83076282130E+02 -0.88021845123E+02  0.28199811859E+03  0.30687530490E+03  0.00000000000E+00 0. -1.
         22    1    3    3    0    0  0.85170543251E+02 -0.22249790649E+02  0.21895723974E+03  0.23599014271E+03  0.00000000000E+00 0.  1.
         22    1    3    3    0    0  0.56957642211E+01 -0.20716070998E+02 -0.12954994731E+02  0.25088427933E+02  0.00000000000E+00 0.  1.
</event>
<event>
 7    1  0.6255318E-006  0.3697822E+02  0.7818608E-02  0.1554937E+00
          2   -1    0    0  502    0  0.00000000000E+00  0.00000000000E+00  0.25091356808E+04  0.25091356808E+04  0.00000000000E+00 0. -1.
          1   -1    0    0  501    0 -0.00000000000E+00 -0.00000000000E+00 -0.83460156340E+02  0.83460156340E+02  0.00000000000E+00 0. -1.
         25    2    1    2    0    0  0.20129528782E+02  0.53799364306E+00  0.39665438301E+03  0.41637244081E+03  0.12500329010E+03 0.  0.
          2    1    1    2  501    0 -0.18606844812E+02 -0.32311046667E+02 -0.68750662845E+02  0.78210434421E+02  0.00000000000E+00 0. -1.
          1    1    1    2  502    0 -0.15226839693E+01  0.31773053024E+02  0.20977718043E+04  0.20980129619E+04  0.00000000000E+00 0. -1.
         22    1    3    3    0    0 -0.75591375502E+01 -0.35866339896E+02  0.34673903857E+03  0.34867104234E+03  0.00000000000E+00 0. -1.
         22    1    3    3    0    0  0.27688666332E+02  0.36404333539E+02  0.49915344441E+02  0.67701398466E+02  0.00000000000E+00 0. -1.
</event>
<event>
 7    1  0.6255318E-006  0.4898445E+02  0.7818608E-02  0.1498304E+00
          2   -1    0    0  502    0  0.00000000000E+00  0.00000000000E+00  0.18171365420E+03  0.18171365420E+03  0.00000000000E+00 0. -1.
          1   -1    0    0  501    0 -0.00000000000E+00 -0.00000000000E+00 -0.15217081952E+03  0.15217081952E+03  0.00000000000E+00 0. -1.
         25    2    1    2    0    0 -0.68522512105E+02 -0.41823427048E+02  0.26164549548E+01  0.14858344041E+03  0.12500263683E+03 0.  0.
          2    1    1    2  501    0  0.42040333811E+02  0.19009810834E+02 -0.69113049372E+02  0.83098593059E+02  0.00000000000E+00 0. -1.
          1    1    1    2  502    0  0.26482178294E+02  0.22813616214E+02  0.96039429093E+02  0.10220244025E+03  0.00000000000E+00 0. -1.
         22    1    3    3    0    0 -0.91589212274E+01  0.24801401013E+02 -0.41369716256E+02  0.49096321179E+02  0.00000000000E+00 0. -1.
         22    1    3    3    0    0 -0.59363590878E+02 -0.66624828060E+02  0.43986171210E+02  0.99487119235E+02  0.00000000000E+00 0. -1.
</event>
<event>
 7    1  0.6255318E-006  0.8155917E+02  0.7818608E-02  0.1472928E+00
          2   -1    0    0  502    0  0.00000000000E+00  0.00000000000E+00  0.23357727071E+03  0.23357727071E+03  0.00000000000E+00 0. -1.
          1   -1    0    0  501    0 -0.00000000000E+00 -0.00000000000E+00 -0.45858689215E+03  0.45858689215E+03  0.00000000000E+00 0. -1.
         25    2    1    2    0    0  0.38689681742E+02 -0.79387210565E+02 -0.11159515329E+03  0.18938653704E+03  0.12495823902E+03 0.  0.
          2    1    1    2  501    0 -0.54547274465E+02  0.59956741093E+02 -0.30191978830E+03  0.31261121944E+03  0.00000000000E+00 0. -1.
          1    1    1    2  502    0  0.15857592723E+02  0.19430469472E+02  0.18850532015E+03  0.19016640638E+03  0.00000000000E+00 0. -1.
         22    1    3    3    0    0  0.73280077193E+02 -0.85781665019E+02 -0.10390843628E+03  0.15338000814E+03  0.00000000000E+00 0. -1.
         22    1    3    3    0    0 -0.34590395451E+02  0.63944544539E+01 -0.76867170172E+01  0.36006528904E+02  0.00000000000E+00 0. -1.
</event>
<event>
 7    1  0.6255318E-006  0.8337499E+02  0.7818608E-02  0.1441950E+00
          2   -1    0    0  502    0  0.00000000000E+00  0.00000000000E+00  0.10318439724E+04  0.10318439724E+04  0.00000000000E+00 0. -1.
          1   -1    0    0  501    0 -0.00000000000E+00 -0.00000000000E+00 -0.36959469449E+02  0.36959469449E+02  0.00000000000E+00 0. -1.
         25    2    1    2    0    0  0.49941030028E+02 -0.25868479340E+02  0.23441488860E+03  0.27155721963E+03  0.12501879392E+03 0.  0.
          2    1    1    2  501    0  0.27170894413E+02 -0.14399611667E+02 -0.10550794726E+01  0.30768807452E+02  0.00000000000E+00 0. -1.
          1    1    1    2  502    0 -0.77111924440E+02  0.40268091007E+02  0.76152469378E+03  0.76647741472E+03  0.00000000000E+00 0. -1.
         22    1    3    3    0    0  0.86035930011E+02 -0.42815964759E+02  0.18062338956E+03  0.20459764649E+03  0.00000000000E+00 0.  1.
         22    1    3    3    0    0 -0.36094899983E+02  0.16947485419E+02  0.53791499034E+02  0.66959573140E+02  0.00000000000E+00 0.  1.
</event>
<event>
 7    1  0.6255318E-006  0.7781450E+02  0.7818608E-02  0.1485308E+00
          2   -1    0    0  502    0  0.00000000000E+00  0.00000000000E+00  0.11360269924E+04  0.11360269924E+04  0.00000000000E+00 0. -1.
          1   -1    0    0  501    0 -0.00000000000E+00 -0.00000000000E+00 -0.33064449899E+03  0.33064449899E+03  0.00000000000E+00 0. -1.
         25    2    1    2    0    0  0.70429744685E+02 -0.71878466429E+02  0.41275114450E+03  0.44284994662E+03  0.12500282021E+03 0.  0.
          2    1    1    2  501    0 -0.49784704019E+02  0.59477594948E+02 -0.31062017877E+03  0.32015776817E+03  0.00000000000E+00 0. -1.
          1    1    1    2  502    0 -0.20645040666E+02  0.12400871482E+02  0.70325152769E+03  0.70366377661E+03  0.00000000000E+00 0. -1.
         22    1    3    3    0    0  0.64479624147E+02 -0.62805529214E+02  0.12055049254E+03  0.15044792349E+03  0.00000000000E+00 0. -1.
         22    1    3    3    0    0  0.59501205377E+01 -0.90729372154E+01  0.29220065196E+03  0.29240202313E+03  0.00000000000E+00 0. -1.
</event>
<event>
 7    1  0.6255318E-006  0.2103215E+03  0.7818608E-02  0.1271951E+00
          2   -1    0    0  502    0  0.00000000000E+00  0.00000000000E+00  0.17309071365E+04  0.17309071365E+04  0.00000000000E+00 0. -1.
          1   -1    0    0  501    0 -0.00000000000E+00 -0.00000000000E+00 -0.60859653334E+03  0.60859653334E+03  0.00000000000E+00 0. -1.
         25    2    1    2    0    0  0.20385393953E+03  0.68671957570E+02 -0.17129915508E+03  0.30206119836E+03  0.12500120243E+03 0.  0.
          2    1    1    2  501    0  0.57749957951E+01 -0.51176129682E+02 -0.36345165661E+03  0.36708235250E+03  0.00000000000E+00 0. -1.
          1    1    1    2  502    0 -0.20962893533E+03 -0.17495827887E+02  0.16570614149E+04  0.16703601190E+04  0.00000000000E+00 0. -1.
         22    1    3    3    0    0  0.51104785143E+02 -0.23511498187E+02 -0.89691354200E+02  0.10587270012E+03  0.00000000000E+00 0. -1.
         22    1    3    3    0    0  0.15274915439E+03  0.92183455757E+02 -0.81607800876E+02  0.19618849825E+03  0.00000000000E+00 0. -1.
</event>
<event>
 7    1  0.6255318E-006  0.4422088E+02  0.7818608E-02  0.1495459E+00
          2   -1    0    0  502    0  0.00000000000E+00  0.00000000000E+00  0.29330982516E+03  0.29330982516E+03  0.00000000000E+00 0. -1.
          1   -1    0    0  501    0 -0.00000000000E+00 -0.00000000000E+00 -0.15286898719E+04  0.15286898719E+04  0.00000000000E+00 0. -1.
         25    2    1    2    0    0  0.65460035820E+02 -0.40927074066E+02 -0.14828131434E+03  0.20873868178E+03  0.12499778961E+03 0.  0.
          2    1    1    2  501    0 -0.39056859491E+02  0.58123777156E+01 -0.13480545604E+04  0.13486327595E+04  0.00000000000E+00 0. -1.
          1    1    1    2  502    0 -0.26403176330E+02  0.35114696350E+02  0.26095582800E+03  0.26462825584E+03  0.00000000000E+00 0. -1.
         22    1    3    3    0    0  0.10104250993E+03 -0.45854034541E+02 -0.11394036899E+03  0.15904272691E+03  0.00000000000E+00 0. -1.
         22    1    3    3    0    0 -0.35582474107E+02  0.49269604754E+01 -0.34340945348E+02  0.49695954871E+02  0.00000000000E+00 0. -1.
</event>
<event>
 7    1  0.6255318E-006  0.7006798E+02  0.7818608E-02  0.1434657E+00
          2   -1    0    0  502    0  0.00000000000E+00  0.00000000000E+00  0.90115989999E+03  0.90115989999E+03  0.00000000000E+00 0. -1.
          1   -1    0    0  501    0 -0.00000000000E+00 -0.00000000000E+00 -0.46649024266E+03  0.46649024266E+03  0.00000000000E+00 0. -1.
         25    2    1    2    0    0 -0.23124344070E+02 -0.74343532942E+02  0.53798410719E+03  0.55777543531E+03  0.12499936185E+03 0.  0.
          2    1    1    2  501    0  0.51229743202E+02  0.47819229999E+02 -0.45283430134E+03  0.45822491182E+03  0.00000000000E+00 0. -1.
          1    1    1    2  502    0 -0.28105399132E+02  0.26524302942E+02  0.34951985148E+03  0.35164979551E+03  0.00000000000E+00 0. -1.
         22    1    3    3    0    0 -0.36567293105E+02  0.24153673731E+02  0.23023214503E+03  0.23436596913E+03  0.00000000000E+00 0.  1.
         22    1    3    3    0    0  0.13442949035E+02 -0.98497206673E+02  0.30775196216E+03  0.32340946618E+03  0.00000000000E+00 0.  1.
</event>
<event>
 7    1  0.6255318E-006  0.8827897E+02  0.7818608E-02  0.1429092E+00
          2   -1    0    0  502    0  0.00000000000E+00  0.00000000000E+00  0.23611787055E+03  0.23611787055E+03  0.00000000000E+00 0. -1.
          1   -1    0    0  501    0 -0.00000000000E+00 -0.00000000000E+00 -0.39040178002E+03  0.39040178002E+03  0.00000000000E+00 0. -1.
         25    2    1    2    0    0 -0.63157470492E+02  0.87886820022E+02  0.86961566931E+02  0.18681126157E+03  0.12499269624E+03 0.  0.
          2    1    1    2  501    0  0.34067087901E+01 -0.31809223108E+02 -0.32263274832E+03  0.32421493277E+03  0.00000000000E+00 0. -1.
          1    1    1    2  502    0  0.59750761702E+02 -0.56077596915E+02  0.81387271931E+02  0.11549345623E+03  0.00000000000E+00 0. -1.
         22    1    3    3    0    0 -0.31966479200E+01 -0.31384833728E+02  0.12335877831E+02  0.33873296679E+02  0.00000000000E+00 0.  1.
         22    1    3    3    0    0 -0.59960822572E+02  0.11927165375E+03  0.74625689100E+02  0.15293796489E+03  0.00000000000E+00 0.  1.
</event>
<event>
 7    1  0.6255318E-006  0.2082875E+03  0.7818608E-02  0.1301939E+00
          2   -1    0    0  502    0  0.00000000000E+00  0.00000000000E+00  0.25263948804E+04  0.25263948804E+04  0.00000000000E+00 0. -1.
          1   -1    0    0  501    0 -0.00000000000E+00 -0.00000000000E+00 -0.13386523535E+04  0.13386523535E+04  0.00000000000E+00 0. -1.
         25    2    1    2    0    0  0.19459857780E+03 -0.18577486970E+02  0.34274578273E+03  0.41389979987E+03  0.12499857300E+03 0.  0.
          2    1    1    2  501    0  0.15209939868E+02  0.36145931629E+02 -0.12976193385E+04  0.12982117772E+04  0.00000000000E+00 0. -1.
          1    1    1    2  502    0 -0.20980851767E+03 -0.17568444659E+02  0.21426160827E+04  0.21529356568E+04  0.00000000000E+00 0. -1.
         22    1    3    3    0    0  0.47003731218E+02 -0.22293240857E+02  0.20666227718E+03  0.21310944640E+03  0.00000000000E+00 0.  1.
         22    1    3    3    0    0  0.14759484659E+03  0.37157538869E+01  0.13608350555E+03  0.20079035348E+03  0.00000000000E+00 0.  1.
</event>
<event>
 7    1  0.6255318E-006  0.2774192E+03  0.7818608E-02  0.1275848E+00
          2   -1    0    0  502    0  0.00000000000E+00  0.00000000000E+00  0.14175089286E+04  0.14175089286E+04  0.00000000000E+00 0. -1.
          1   -1    0    0  501    0 -0.00000000000E+00 -0.00000000000E+00 -0.21884247797E+04  0.21884247797E+04  0.00000000000E+00 0. -1.
         25    2    1    2    0    0  0.26438276526E+03  0.49117741014E+02  0.32002112524E+03  0.43629002558E+03  0.12499866708E+03 0.  0.
          2    1    1    2  501    0  0.26776572065E+01  0.37514333265E+02 -0.21111593452E+04  0.21114943230E+04  0.00000000000E+00 0. -1.
          1    1    1    2  502    0 -0.26706042247E+03 -0.86632074278E+02  0.10202223689E+04  0.10581493597E+04  0.00000000000E+00 0. -1.
         22    1    3    3    0    0  0.48934087907E+02 -0.23917436860E+02  0.12610884511E+03  0.13736822617E+03  0.00000000000E+00 0. -1.
         22    1    3    3    0    0  0.21544867735E+03  0.73035177874E+02  0.19391228013E+03  0.29892179942E+03  0.00000000000E+00 0. -1.
</event>
<event>
 7    1  0.6255318E-006  0.3729820E+02  0.7818608E-02  0.1560631E+00
          2   -1    0    0  502    0  0.00000000000E+00  0.00000000000E+00  0.79943177542E+03  0.79943177542E+03  0.00000000000E+00 0. -1.
          1   -1    0    0  501    0 -0.00000000000E+00 -0.00000000000E+00 -0.44007097907E+03  0.44007097907E+03  0.00000000000E+00 0. -1.
         25    2    1    2    0    0 -0.17864649477E+02 -0.63042672850E+02  0.41046194380E+03  0.43404532433E+03  0.12499124757E+03 0.  0.
          2    1    1    2  501    0  0.56983051593E+01  0.29876945598E+02 -0.42690985708E+03  0.42799197263E+03  0.00000000000E+00 0. -1.
          1    1    1    2  502    0  0.12166344317E+02  0.33165727252E+02  0.37580870963E+03  0.37746545754E+03  0.00000000000E+00 0. -1.
         22    1    3    3    0    0 -0.59961488349E+02 -0.56953058120E+02  0.16114788841E+03  0.18112888465E+03  0.00000000000E+00 0. -1.
         22    1    3    3    0    0  0.42096838873E+02 -0.60896147296E+01  0.24931405538E+03  0.25291643968E+03  0.00000000000E+00 0. -1.
</event>
<event>
 7    1  0.6255318E-006  0.8531813E+02  0.7818608E-02  0.1443857E+00
          2   -1    0    0  502    0  0.00000000000E+00  0.00000000000E+00  0.16047939460E+04  0.16047939460E+04  0.00000000000E+00 0. -1.
          1   -1    0    0  501    0 -0.00000000000E+00 -0.00000000000E+00 -0.42866050870E+03  0.42866050870E+03  0.00000000000E+00 0. -1.
         25    2    1    2    0    0 -0.79531268366E+02 -0.43351522164E+02  0.12926668558E+03  0.20134164377E+03  0.12499601750E+03 0.  0.
          2    1    1    2  501    0 -0.46002371440E+01  0.29267533435E+02 -0.39079810643E+03  0.39191952067E+03  0.00000000000E+00 0. -1.
          1    1    1    2  502    0  0.84131505510E+02  0.14083988729E+02  0.14376648581E+04  0.14401932903E+04  0.00000000000E+00 0. -1.
         22    1    3    3    0    0 -0.26372312949E+02  0.29736276116E+02 -0.44008354051E+01  0.39988902958E+02  0.00000000000E+00 0. -1.
         22    1    3    3    0    0 -0.53158955417E+02 -0.73087798280E+02  0.13366752099E+03  0.16135274081E+03  0.00000000000E+00 0. -1.
</event>
<event>
 7    1  0.6255318E-006  0.8875564E+02  0.7818608E-02  0.1441612E+00
          2   -1    0    0  502    0  0.00000000000E+00  0.00000000000E+00  0.84729940443E+03  0.84729940443E+03  0.00000000000E+00 0. -1.
          1   -1    0    0  501    0 -0.00000000000E+00 -0.00000000000E+00 -0.30014751414E+03  0.30014751414E+03  0.00000000000E+00 0. -1.
         25    2    1    2    0    0  0.75837678232E+02 -0.68372525195E+02  0.11607076050E+03  0.19880589598E+03  0.12500082877E+03 0.  0.
          2    1    1    2  501    0 -0.47513914310E+02  0.74406193833E+02 -0.25093429908E+03  0.26601104524E+03  0.00000000000E+00 0. -1.
          1    1    1    2  502    0 -0.28323763922E+02 -0.60336686385E+01  0.68201542887E+03  0.68262997735E+03  0.00000000000E+00 0. -1.
         22    1    3    3    0    0  0.24264145874E+02 -0.98566815646E+02  0.76926371343E+02  0.12736495801E+03  0.00000000000E+00 0.  1.
         22    1    3    3    0    0  0.51573532358E+02  0.30194290451E+02  0.39144389153E+02  0.71440937969E+02  0.00000000000E+00 0.  1.
</event>
<event>
 7    1  0.6255318E-006  0.1044971E+03  0.7818608E-02  0.1422084E+00
          2   -1    0    0  502    0  0.00000000000E+00  0.00000000000E+00  0.14740129664E+03  0.14740129664E+03  0.00000000000E+00 0. -1.
          1   -1    0    0  501    0 -0.00000000000E+00 -0.00000000000E+00 -0.56085013513E+03  0.56085013513E+03  0.00000000000E+00 0. -1.
         25    2    1    2    0    0 -0.46828723465E+01  0.83201211212E+02 -0.31968193971E+03  0.35322175890E+03  0.12499879018E+03 0.  0.
          2    1    1    2  501    0 -0.20632432729E+02  0.19675875920E+02 -0.20174857504E+03  0.20375309790E+03  0.00000000000E+00 0. -1.
          1    1    1    2  502    0  0.25315305076E+02 -0.10287708713E+03  0.10798167625E+03  0.15127657497E+03  0.00000000000E+00 0. -1.
         22    1    3    3    0    0 -0.47179050473E+02 -0.73949732917E+01 -0.75555792092E+02  0.89382471168E+02  0.00000000000E+00 0. -1.
         22    1    3    3    0    0  0.42496178126E+02  0.90596184504E+02 -0.24412614761E+03  0.26383928773E+03  0.00000000000E+00 0. -1.
</event>
<event>
 7    1  0.6255318E-006  0.5718315E+02  0.7818608E-02  0.1482771E+00
          2   -1    0    0  502    0  0.00000000000E+00  0.00000000000E+00  0.12741882855E+04  0.12741882855E+04  0.00000000000E+00 0. -1.
          1   -1    0    0  501    0 -0.00000000000E+00 -0.00000000000E+00 -0.14586914996E+02  0.14586914996E+02  0.00000000000E+00 0. -1.
         25    2    1    2    0    0  0.86853212327E+02 -0.49722800184E+01  0.91460956816E+03  0.92720222159E+03  0.12500037393E+03 0.  0.
          2    1    1    2  501    0 -0.53923962798E+02 -0.38100824061E+00  0.93965799991E+02  0.10833979185E+03  0.00000000000E+00 0. -1.
          1    1    1    2  502    0 -0.32929249529E+02  0.53532882590E+01  0.25102600239E+03  0.25323318709E+03  0.00000000000E+00 0. -1.
         22    1    3    3    0    0  0.42365373137E+02 -0.17832675952E+02  0.82549119934E+03  0.82676994948E+03  0.00000000000E+00 0. -1.
         22    1    3    3    0    0  0.44487839190E+02  0.12860395934E+02  0.89118368819E+02  0.10043227211E+03  0.00000000000E+00 0. -1.
</event>
<event>
 7    1  0.6255318E-006  0.2227476E+03  0.7818608E-02  0.1309683E+00
          2   -1    0    0  502    0  0.00000000000E+00  0.00000000000E+00  0.12227177518E+04  0.12227177518E+04  0.00000000000E+00 0. -1.
          1   -1    0    0  501    0 -0.00000000000E+00 -0.00000000000E+00 -0.12931010000E+04  0.12931010000E+04  0.00000000000E+00 0. -1.
         25    2    1    2    0    0 -0.19428450020E+03  0.10382394150E+03  0.24661130543E+03  0.35350912765E+03  0.12500275805E+03 0.  0.
          2    1    1    2  501    0  0.21038229944E+03 -0.73688038669E+02 -0.12293086531E+04  0.12493559955E+04  0.00000000000E+00 0. -1.
          1    1    1    2  502    0 -0.16097799240E+02 -0.30135902832E+02  0.91231409948E+03  0.91295362855E+03  0.00000000000E+00 0. -1.
         22    1    3    3    0    0 -0.20328362675E+03  0.10657918152E+03  0.25340433430E+03  0.34190219578E+03  0.00000000000E+00 0.  1.
         22    1    3    3    0    0  0.89991265473E+01 -0.27552400143E+01 -0.67930288731E+01  0.11606931869E+02  0.00000000000E+00 0.  1.
</event>
<event>
 7    1  0.6255318E-006  0.3152105E+02  0.7818608E-02  0.1581955E+00
          2   -1    0    0  502    0  0.00000000000E+00  0.00000000000E+00  0.56914946628E+03  0.56914946628E+03  0.00000000000E+00 0. -1.
          1   -1    0    0  501    0 -0.00000000000E+00 -0.00000000000E+00 -0.48260403845E+02  0.48260403845E+02  0.00000000000E+00 0. -1.
         25    2    1    2    0    0  0.22720693899E+02 -0.16742404179E+01  0.15544236303E+03  0.20076369913E+03  0.12499880661E+03 0.  0.
          2    1    1    2  501    0 -0.10998974954E+02  0.30934758137E+02 -0.14143996001E+02  0.35748976684E+02  0.00000000000E+00 0. -1.
          1    1    1    2  502    0 -0.11721718946E+02 -0.29260517719E+02  0.37959069540E+03  0.38089719430E+03  0.00000000000E+00 0. -1.
         22    1    3    3    0    0  0.68391296960E+02 -0.20532565759E+02  0.12111792807E+03  0.14060052723E+03  0.00000000000E+00 0.  1.
         22    1    3    3    0    0 -0.45670603060E+02  0.18858325341E+02  0.34324434959E+02  0.60163171906E+02  0.00000000000E+00 0.  1.
</event>
<event>
 7    1  0.6255318E-006  0.3817074E+02  0.7818608E-02  0.1532863E+00
          2   -1    0    0  502    0  0.00000000000E+00  0.00000000000E+00  0.19036338278E+03  0.19036338278E+03  0.00000000000E+00 0. -1.
          1   -1    0    0  501    0 -0.00000000000E+00 -0.00000000000E+00 -0.44087164933E+03  0.44087164933E+03  0.00000000000E+00 0. -1.
         25    2    1    2    0    0  0.79117605990E+01 -0.71952929583E+02 -0.20026800422E+02  0.14582519680E+03  0.12499638097E+03 0.  0.
          2    1    1    2  501    0  0.13047681536E+01  0.37617602917E+02 -0.35445078620E+03  0.35644374915E+03  0.00000000000E+00 0. -1.
          1    1    1    2  502    0 -0.92165287526E+01  0.34335326666E+02  0.12396932008E+03  0.12896608616E+03  0.00000000000E+00 0. -1.
         22    1    3    3    0    0  0.51889308721E+02  0.82516965849E+01 -0.18970548427E+01  0.52575561558E+02  0.00000000000E+00 0.  1.
         22    1    3    3    0    0 -0.43977548122E+02 -0.80204626168E+02 -0.18129745579E+02  0.93249635240E+02  0.00000000000E+00 0.  1.
</event>
<event>
 7    1  0.6255318E-006  0.1147668E+03  0.7818608E-02  0.1339851E+00
          2   -1    0    0  502    0  0.00000000000E+00  0.00000000000E+00  0.31284763424E+03  0.31284763424E+03  0.00000000000E+00 0. -1.
          1   -1    0    0  501    0 -0.00000000000E+00 -0.00000000000E+00 -0.18959778699E+04  0.18959778699E+04  0.00000000000E+00 0. -1.
         25    2    1    2    0    0 -0.49813942344E+02 -0.13957957016E+03 -0.26103049805E+03  0.32515543127E+03  0.12500099327E+03 0.  0.
          2    1    1    2  501    0 -0.17189165632E+02  0.47744239380E+02 -0.15909575235E+04  0.15917665725E+04  0.00000000000E+00 0. -1.
          1    1    1    2  502    0  0.67003107976E+02  0.91835330776E+02  0.26885778591E+03  0.29190350033E+03  0.00000000000E+00 0. -1.
         22    1    3    3    0    0  0.13683736625E+02 -0.12867290582E+03 -0.17782679778E+03  0.21992346702E+03  0.00000000000E+00 0.  1.
         22    1    3    3    0    0 -0.63497678969E+02 -0.10906664337E+02 -0.83203700270E+02  0.10523196425E+03  0.00000000000E+00 0.  1.
</event>
<event>
 7    1  0.6255318E-006  0.2128940E+03  0.7818608E-02  0.1166717E+00
          2   -1    0    0  502    0  0.00000000000E+00  0.00000000000E+00  0.10674824862E+04  0.10674824862E+04  0.00000000000E+00 0. -1.
          1   -1    0    0  501    0 -0.00000000000E+00 -0.00000000000E+00 -0.60591709812E+03  0.60591709812E+03  0.00000000000E+00 0. -1.
         25    2    1    2    0    0  0.14999131774E+03 -0.11501444043E+03 -0.19485929100E+01  0.22661534839E+03  0.12500000883E+03 0.  0.
          2    1    1    2  501    0 -0.22778426746E+03 -0.18007156183E+02 -0.45834058393E+03  0.51213867366E+03  0.00000000000E+00 0. -1.
          1    1    1    2  502    0  0.77792949719E+02  0.13302159661E+03  0.92185456495E+03  0.93464556229E+03  0.00000000000E+00 0. -1.
         22    1    3    3    0    0  0.11771841117E+03 -0.27775449536E+02  0.35940123008E+02  0.12617762229E+03  0.00000000000E+00 0. -1.
         22    1    3    3    0    0  0.32272906573E+02 -0.87238990891E+02 -0.37888715918E+02  0.10043772610E+03  0.00000000000E+00 0. -1.
</event>
<event>
 7    1  0.6255318E-006  0.2953696E+03  0.7818608E-02  0.1187475E+00
          2   -1    0    0  502    0  0.00000000000E+00  0.00000000000E+00  0.19436912695E+04  0.19436912695E+04  0.00000000000E+00 0. -1.
          1   -1    0    0  501    0 -0.00000000000E+00 -0.00000000000E+00 -0.17875263490E+04  0.17875263490E+04  0.00000000000E+00 0. -1.
         25    2    1    2    0    0 -0.21551027615E+03  0.49717523333E+02  0.52041224016E+02  0.25932700867E+03  0.12500278867E+03 0.  0.
          2    1    1    2  501    0 -0.72827102969E+02  0.49135692047E+02 -0.16697294918E+04  0.16720390781E+04  0.00000000000E+00 0. -1.
          1    1    1    2  502    0  0.28833737912E+03 -0.98853215380E+02  0.17738531883E+04  0.17998515316E+04  0.00000000000E+00 0. -1.
         22    1    3    3    0    0 -0.12362714116E+03  0.16113547382E+02 -0.33797995439E+02  0.12917283358E+03  0.00000000000E+00 0. -1.
         22    1    3    3    0    0 -0.91883134990E+02  0.33603975951E+02  0.85839219455E+02  0.13015417508E+03  0.00000000000E+00 0. -1.
</event>
<event>
 7    1  0.6255318E-006  0.1129937E+03  0.7818608E-02  0.1256976E+00
          2   -1    0    0  502    0  0.00000000000E+00  0.00000000000E+00  0.10142318257E+04  0.10142318257E+04  0.00000000000E+00 0. -1.
          1   -1    0    0  501    0 -0.00000000000E+00 -0.00000000000E+00 -0.37596115060E+03  0.37596115060E+03  0.00000000000E+00 0. -1.
         25    2    1    2    0    0  0.82590530714E+02  0.65034898154E+02 -0.23698425683E+03  0.28780299117E+03  0.12497315712E+03 0.  0.
          2    1    1    2  501    0 -0.15764389352E+03  0.16668456815E+02 -0.53290460114E+02  0.16724026954E+03  0.00000000000E+00 0. -1.
          1    1    1    2  502    0  0.75053362808E+02 -0.81703354969E+02  0.92854539204E+03  0.93514971558E+03  0.00000000000E+00 0. -1.
         22    1    3    3    0    0  0.61562707018E+02 -0.28177612713E+02 -0.10168422481E+03  0.12216229504E+03  0.00000000000E+00 0.  1.
         22    1    3    3    0    0  0.21027823696E+02  0.93212510868E+02 -0.13530003202E+03  0.16564069613E+03  0.00000000000E+00 0.  1.
</event>
<event>
 7    1  0.6255318E-006  0.7463178E+02  0.7818608E-02  0.1427276E+00
          2   -1    0    0  502    0  0.00000000000E+00  0.00000000000E+00  0.66244688744E+03  0.66244688744E+03  0.00000000000E+00 0. -1.
          1   -1    0    0  501    0 -0.00000000000E+00 -0.00000000000E+00 -0.26708791561E+03  0.26708791561E+03  0.00000000000E+00 0. -1.
         25    2    1    2    0    0  0.51115560844E+02 -0.54247295078E+02  0.36582470270E+03  0.39371136620E+03  0.12500142871E+03 0.  0.
          2    1    1    2  501    0 -0.17479360691E+02  0.72703437632E+02 -0.24626567512E+03  0.25736763712E+03  0.00000000000E+00 0. -1.
          1    1    1    2  502    0 -0.33636200153E+02 -0.18456142554E+02  0.27579994425E+03  0.27845579974E+03  0.00000000000E+00 0. -1.
         22    1    3    3    0    0  0.48955944742E+02  0.19100180542E+02  0.62593404346E+02  0.81727814665E+02  0.00000000000E+00 0. -1.
         22    1    3    3    0    0  0.21596161018E+01 -0.73347475620E+02  0.30323129836E+03  0.31198355153E+03  0.00000000000E+00 0. -1.
</event>
<event>
 7    1  0.6255318E-006  0.8111016E+02  0.7818608E-02  0.1340000E+00
          2   -1    0    0  502    0  0.00000000000E+00  0.00000000000E+00  0.10102013114E+04  0.10102013114E+04  0.00000000000E+00 0. -1.
          1   -1    0    0  501    0 -0.00000000000E+00 -0.00000000000E+00 -0.25670762388E+03  0.25670762388E+03  0.00000000000E+00 0. -1.
         25    2    1    2    0    0  0.10965007305E+03 -0.19249836172E+00  0.26247081340E+03  0.31070759205E+03  0.12500041718E+03 0.  0.
          2    1    1    2  501    0 -0.48684456096E+02 -0.52648263917E+02 -0.22474167327E+03  0.23590429344E+03  0.00000000000E+00 0. -1.
          1    1    1    2  502    0 -0.60965616959E+02  0.52840762278E+02  0.71576454742E+03  0.72029704980E+03  0.00000000000E+00 0. -1.
         22    1    3    3    0    0  0.67898194225E+02 -0.61146548670E+02  0.16205823099E+03  0.18604283223E+03  0.00000000000E+00 0.  1.
         22    1    3    3    0    0  0.41751878829E+02  0.60954050308E+02  0.10041258241E+03  0.12466475982E+03  0.00000000000E+00 0.  1.
</event>
<event>
 7    1  0.6255318E-006  0.1008754E+03  0.7818608E-02  0.1283221E+00
          2   -1    0    0  502    0  0.00000000000E+00  0.00000000000E+00  0.55385146136E+03  0.55385146136E+03  0.00000000000E+00 0. -1.
          1   -1    0    0  501    0 -0.00000000000E+00 -0.00000000000E+00 -0.11906691571E+04  0.11906691571E+04  0.00000000000E+00 0. -1.
         25    2    1    2    0    0  0.34842348971E+02  0.44543038636E+02  0.88716973805E+01  0.13748314123E+03  0.12499934214E+03 0.  0.
          2    1    1    2  501    0  0.62195565036E+02 -0.79420142225E+02 -0.11185373040E+04  0.11230768218E+04  0.00000000000E+00 0. -1.
          1    1    1    2  502    0 -0.97037914007E+02  0.34877103589E+02  0.47284791091E+03  0.48396065538E+03  0.00000000000E+00 0. -1.
         22    1    3    3    0    0  0.37770903880E+02  0.86887409184E+02  0.53989404265E+01  0.94895793438E+02  0.00000000000E+00 0. -1.
         22    1    3    3    0    0 -0.29285549087E+01 -0.42344370548E+02  0.34727569540E+01  0.42587347790E+02  0.00000000000E+00 0. -1.
</event>
<event>
 7    1  0.6255318E-006  0.1507229E+03  0.7818608E-02  0.1268974E+00
          2   -1    0    0  502    0  0.00000000000E+00  0.00000000000E+00  0.65066793939E+03  0.65066793939E+03  0.00000000000E+00 0. -1.
          1   -1    0    0  501    0 -0.00000000000E+00 -0.00000000000E+00 -0.25989032070E+03  0.25989032070E+03  0.00000000000E+00 0. -1.
         25    2    1    2    0    0 -0.45974582334E+02  0.19154339852E+03 -0.31704410473E+02  0.23544485768E+03  0.12500630235E+03 0.  0.
          2    1    1    2  501    0  0.63330095878E+02 -0.11964556999E+03 -0.86589479879E+02  0.16069692433E+03  0.00000000000E+00 0. -1.
          1    1    1    2  502    0 -0.17355513544E+02 -0.71897828529E+02  0.50907150905E+03  0.51441647808E+03  0.00000000000E+00 0. -1.
         22    1    3    3    0    0 -0.87848385186E+02  0.11231000823E+03 -0.83328881327E+01  0.14282966692E+03  0.00000000000E+00 0. -1.
         22    1    3    3    0    0  0.41873802852E+02  0.79233390295E+02 -0.23371522341E+02  0.92615190759E+02  0.00000000000E+00 0. -1.
</event>
<event>
 7    1  0.6255318E-006  0.1029396E+03  0.7818608E-02  0.1350182E+00
          2   -1    0    0  502    0  0.00000000000E+00  0.00000000000E+00  0.44527639910E+02  0.44527639910E+02  0.00000000000E+00 0. -1.
          1   -1    0    0  501    0 -0.00000000000E+00 -0.00000000000E+00 -0.19893751254E+04  0.19893751254E+04  0.00000000000E+00 0. -1.
         25    2    1    2    0    0 -0.25733315337E+02  0.47952732552E+02 -0.17025595300E+03  0.21811459097E+03  0.12500086874E+03 0.  0.
          2    1    1    2  501    0  0.49858786974E+02 -0.93754156529E+02 -0.17583211307E+04  0.17615246065E+04  0.00000000000E+00 0. -1.
          1    1    1    2  502    0 -0.24125471637E+02  0.45801423977E+02 -0.16270401739E+02  0.54263567822E+02  0.00000000000E+00 0. -1.
         22    1    3    3    0    0  0.17928290646E+02 -0.73609031493E+01  0.11941419112E+02  0.22764094339E+02  0.00000000000E+00 0. -1.
         22    1    3    3    0    0 -0.43661605982E+02  0.55313635701E+02 -0.18219737211E+03  0.19535049663E+03  0.00000000000E+00 0. -1.
</event>
<event>
 7    1  0.6255318E-006  0.9034100E+02  0.7818608E-02  0.1387940E+00
          2   -1    0    0  502    0  0.00000000000E+00  0.00000000000E+00  0.12069427133E+04  0.12069427133E+04  0.00000000000E+00 0. -1.
          1   -1    0    0  501    0 -0.00000000000E+00 -0.00000000000E+00 -0.12303497055E+04  0.12303497055E+04  0.00000000000E+00 0. -1.
         25    2    1    2    0    0  0.29067358976E+02 -0.57922253839E+02  0.54334538472E+03  0.56129498970E+03  0.12501183750E+03 0.  0.
          2    1    1    2  501    0 -0.72072858891E+02  0.54631861672E+02 -0.12189874900E+04  0.12223377757E+04  0.00000000000E+00 0. -1.
          1    1    1    2  502    0  0.43005499915E+02  0.32903921672E+01  0.65223511310E+03  0.65365965339E+03  0.00000000000E+00 0. -1.
         22    1    3    3    0    0  0.64678033895E+02 -0.54895864595E+02  0.21691467387E+03  0.23291367447E+03  0.00000000000E+00 0.  1.
         22    1    3    3    0    0 -0.35610674919E+02 -0.30263892448E+01  0.32643071085E+03  0.32838131522E+03  0.00000000000E+00 0.  1.
</event>
<event>
 7    1  0.6255318E-006  0.4211213E+02  0.7818608E-02  0.1507098E+00
          2   -1    0    0  502    0  0.00000000000E+00  0.00000000000E+00  0.30369230649E+04  0.30369230649E+04  0.00000000000E+00 0. -1.
          1   -1    0    0  501    0 -0.00000000000E+00 -0.00000000000E+00 -0.48751126417E+02  0.48751126417E+02  0.00000000000E+00 0. -1.
         25    2    1    2    0    0  0.33981890026E+02 -0.22089854838E+02  0.43028851266E+03  0.44990675683E+03  0.12500062070E+03 0.  0.
          2    1    1    2  501    0  0.54055236186E+01  0.37899121075E+02 -0.29317091178E+02  0.48218823077E+02  0.00000000000E+00 0. -1.
          1    1    1    2  502    0 -0.39387413645E+02 -0.15809266236E+02  0.25872005170E+04  0.25875486115E+04  0.00000000000E+00 0. -1.
         22    1    3    3    0    0 -0.46625362123E+02  0.31802726984E+01  0.14161700787E+03  0.14912885517E+03  0.00000000000E+00 0. -1.
         22    1    3    3    0    0  0.80607252149E+02 -0.25270127537E+02  0.28867150480E+03  0.30077790166E+03  0.00000000000E+00 0. -1.
</event>
<event>
 7    1  0.6255318E-006  0.9842259E+02  0.7818608E-02  0.1429373E+00
          2   -1    0    0  502    0  0.00000000000E+00  0.00000000000E+00  0.17382216048E+03  0.17382216048E+03  0.00000000000E+00 0. -1.
          1   -1    0    0  501    0 -0.00000000000E+00 -0.00000000000E+00 -0.14618890022E+04  0.14618890022E+04  0.00000000000E+00 0. -1.
         25    2    1    2    0    0 -0.64809532077E+02 -0.42818609886E+02 -0.18669361592E+03  0.23772577713E+03  0.12500132033E+03 0.  0.
          2    1    1    2  501    0 -0.28125060978E+02  0.53692795686E+01 -0.12325707834E+04  0.12329033150E+04  0.00000000000E+00 0. -1.
          1    1    1    2  502    0  0.92934593055E+02  0.37449330317E+02  0.13119755751E+03  0.16508207057E+03  0.00000000000E+00 0. -1.
         22    1    3    3    0    0 -0.78791373129E+02 -0.62527711489E+02 -0.80545570619E+02  0.12886188005E+03  0.00000000000E+00 0. -1.
         22    1    3    3    0    0  0.13981841052E+02  0.19709101604E+02 -0.10614804530E+03  0.10886389708E+03  0.00000000000E+00 0. -1.
</event>
<event>
 7    1  0.6255318E-006  0.8820871E+02  0.7818608E-02  0.1365717E+00
          2   -1    0    0  502    0  0.00000000000E+00  0.00000000000E+00  0.12494611669E+04  0.12494611669E+04  0.00000000000E+00 0. -1.
          1   -1    0    0  501    0 -0.00000000000E+00 -0.00000000000E+00 -0.11229284444E+04  0.11229284444E+04  0.00000000000E+00 0. -1.
         25    2    1    2    0    0  0.10946534003E+03 -0.41308963865E+01  0.40809358569E+02  0.17114403995E+03  0.12500061476E+03 0.  0.
          2    1    1    2  501    0 -0.75708666538E+02  0.44986004734E+02 -0.10553119860E+04  0.10589801370E+04  0.00000000000E+00 0. -1.
          1    1    1    2  502    0 -0.33756673494E+02 -0.40855108348E+02  0.11410353499E+04  0.11422654344E+04  0.00000000000E+00 0. -1.
         22    1    3    3    0    0  0.35493084302E+02 -0.61452211331E+02  0.57062220160E+01  0.71194763013E+02  0.00000000000E+00 0. -1.
         22    1    3    3    0    0  0.73972255730E+02  0.57321314945E+02  0.35103136553E+02  0.99949276939E+02  0.00000000000E+00 0. -1.
</event>
<event>
 7    1  0.6255318E-006  0.4869662E+02  0.7818608E-02  0.1474988E+00
          2   -1    0    0  502    0  0.00000000000E+00  0.00000000000E+00  0.19079498183E+03  0.19079498183E+03  0.00000000000E+00 0. -1.
          1   -1    0    0  501    0 -0.00000000000E+00 -0.00000000000E+00 -0.41819698306E+03  0.41819698306E+03  0.00000000000E+00 0. -1.
         25    2    1    2    0    0 -0.29376991289E+02 -0.60228570296E+01  0.37085133961E+02  0.13379068174E+03  0.12500142773E+03 0.  0.
          2    1    1    2  501    0  0.18145954077E+02  0.45863410431E+02 -0.36405029122E+03  0.36737629565E+03  0.00000000000E+00 0. -1.
          1    1    1    2  502    0  0.11231037212E+02 -0.39840553401E+02  0.99563156026E+02  0.10782498750E+03  0.00000000000E+00 0. -1.
         22    1    3    3    0    0  0.32914416833E+02  0.25749780418E+02 -0.17275263344E+02  0.45219959649E+02  0.00000000000E+00 0.  1.
         22    1    3    3    0    0 -0.62291408122E+02 -0.31772637448E+02  0.54360397305E+02  0.88570722089E+02  0.00000000000E+00 0.  1.
</event>
<event>
 7    1  0.6255318E-006  0.8663839E+02  0.7818608E-02  0.1328644E+00
          2   -1    0    0  502    0  0.00000000000E+00  0.00000000000E+00  0.32351201643E+03  0.32351201643E+03  0.00000000000E+00 0. -1.
          1   -1    0    0  501    0 -0.00000000000E+00 -0.00000000000E+00 -0.11583623167E+03  0.11583623167E+03  0.00000000000E+00 0. -1.
         25    2    1    2    0    0 -0.88033309506E+01  0.42085108491E+02  0.22879786045E+03  0.26423866038E+03  0.12499981480E+03 0.  0.
          2    1    1    2  501    0 -0.57664343140E+02 -0.74920948630E+02 -0.32776577658E+02  0.10006312536E+03  0.00000000000E+00 0. -1.
          1    1    1    2  502    0  0.66467674091E+02  0.32835840139E+02  0.11654501964E+02  0.75046462360E+02  0.00000000000E+00 0. -1.
         22    1    3    3    0    0  0.50203542036E+02 -0.10277173610E+02  0.68162829694E+02  0.85277120509E+02  0.00000000000E+00 0. -1.
         22    1    3    3    0    0 -0.59006872987E+02  0.52362282101E+02  0.16063503076E+03  0.17896153987E+03  0.00000000000E+00 0. -1.
</event>
<event>
 7    1  0.6255318E-006  0.9948076E+02  0.7818608E-02  0.1364622E+00
          2   -1    0    0  502    0  0.00000000000E+00  0.00000000000E+00  0.23930467796E+03  0.23930467796E+03  0.00000000000E+00 0. -1.
          1   -1    0    0  501    0 -0.00000000000E+00 -0.00000000000E+00 -0.30807505633E+04  0.30807505633E+04  0.00000000000E+00 0. -1.
         25    2    1    2    0    0 -0.54251504337E+02  0.12886320265E+02 -0.10556033784E+03  0.17283957809E+03  0.12498500652E+03 0.  0.
          2    1    1    2  501    0  0.10059076896E+03 -0.28061525646E+01 -0.29379439327E+04  0.29396668058E+04  0.00000000000E+00 0. -1.
          1    1    1    2  502    0 -0.46339264627E+02 -0.10080167700E+02  0.20205838514E+03  0.20754885746E+03  0.00000000000E+00 0. -1.
         22    1    3    3    0    0  0.29201485568E+02  0.35729976633E+02 -0.57964449251E+02  0.74089374181E+02  0.00000000000E+00 0.  1.
         22    1    3    3    0    0 -0.83452989905E+02 -0.22843656369E+02 -0.47595888592E+02  0.98750203905E+02  0.00000000000E+00 0.  1.
</event>
<event>
 7    1  0.6255318E-006  0.1112837E+03  0.7818608E-02  0.1275551E+00
          2   -1    0    0  502    0  0.00000000000E+00  0.00000000000E+00  0.22570487760E+04  0.22570487760E+04  0.00000000000E+00 0. -1.
          1   -1    0    0  501    0 -0.00000000000E+00 -0.00000000000E+00 -0.74763823845E+03  0.74763823845E+03  0.00000000000E+00 0. -1.
         25    2    1    2    0    0  0.10885040025E+03  0.10477001365E+03  0.81193033608E+02  0.21223377268E+03  0.12500280064E+03 0.  0.
          2    1    1    2  501    0 -0.14971638939E+02 -0.11001091727E+03 -0.67654359804E+03  0.68559302209E+03  0.00000000000E+00 0. -1.
          1    1    1    2  502    0 -0.93878761308E+02  0.52409036198E+01  0.21047611020E+04  0.21068602197E+04  0.00000000000E+00 0. -1.
         22    1    3    3    0    0  0.23956878675E+02  0.73730524077E+01 -0.31870624540E+02  0.40546647780E+02  0.00000000000E+00 0. -1.
         22    1    3    3    0    0  0.84893521572E+02  0.97396961240E+02  0.11306365815E+03  0.17168712490E+03  0.00000000000E+00 0. -1.
</event>
<event>
 7    1  0.6255318E-006  0.1677131E+03  0.7818608E-02  0.1305534E+00
          2   -1    0    0  502    0  0.00000000000E+00  0.00000000000E+00  0.75175659295E+02  0.75175659295E+02  0.00000000000E+00 0. -1.
          1   -1    0    0  501    0 -0.00000000000E+00 -0.00000000000E+00 -0.16914238593E+04  0.16914238593E+04  0.00000000000E+00 0. -1.
         25    2    1    2    0    0  0.10752732601E+03 -0.10864709901E+03 -0.39920165282E+03  0.44536545013E+03  0.12498842585E+03 0.  0.
          2    1    1    2  501    0 -0.20621046249E+02 -0.42373567324E+02 -0.11215498006E+04  0.11225393989E+04  0.00000000000E+00 0. -1.
          1    1    1    2  502    0 -0.86906279760E+02  0.15102066633E+03 -0.95496746576E+02  0.19869466960E+03  0.00000000000E+00 0. -1.
         22    1    3    3    0    0  0.12218667181E+03 -0.12533614693E+03 -0.36031472042E+03  0.40058136533E+03  0.00000000000E+00 0.  1.
         22    1    3    3    0    0 -0.14659345805E+02  0.16689047928E+02 -0.38886932396E+02  0.44784084800E+02  0.00000000000E+00 0.  1.
</event>
<event>
 7    1  0.6255318E-006  0.1264483E+03  0.7818608E-02  0.1288396E+00
          2   -1    0    0  502    0  0.00000000000E+00  0.00000000000E+00  0.14468681192E+03  0.14468681192E+03  0.00000000000E+00 0. -1.
          1   -1    0    0  501    0 -0.00000000000E+00 -0.00000000000E+00 -0.10766118959E+04  0.10766118959E+04  0.00000000000E+00 0. -1.
         25    2    1    2    0    0 -0.25133539671E+02  0.17418849986E+03 -0.61368731507E+02  0.22442428519E+03  0.12500724089E+03 0.  0.
          2    1    1    2  501    0 -0.25930905293E+02 -0.12166321997E+03 -0.90669538082E+03  0.91518897750E+03  0.00000000000E+00 0. -1.
          1    1    1    2  502    0  0.51064444964E+02 -0.52525279890E+02  0.36139028378E+02  0.81685445087E+02  0.00000000000E+00 0. -1.
         22    1    3    3    0    0  0.40640833250E+02  0.63158722612E+02 -0.58740671605E+02  0.95347617012E+02  0.00000000000E+00 0.  1.
         22    1    3    3    0    0 -0.65774372921E+02  0.11102977725E+03 -0.26280599019E+01  0.12907666818E+03  0.00000000000E+00 0.  1.
</event>
<event>
 7    1  0.6255318E-006  0.3436161E+02  0.7818608E-02  0.1592820E+00
          2   -1    0    0  502    0  0.00000000000E+00  0.00000000000E+00  0.98235613280E+02  0.98235613280E+02  0.00000000000E+00 0. -1.
          1   -1    0    0  501    0 -0.00000000000E+00 -0.00000000000E+00 -0.11332606605E+04  0.11332606605E+04  0.00000000000E+00 0. -1.
         25    2    1    2    0    0  0.26484508328E+02 -0.85242709537E+01 -0.92946145521E+03  0.93824171289E+03  0.12499929084E+03 0.  0.
          2    1    1    2  501    0 -0.19820581823E+02  0.34730944796E+02 -0.19539323353E+03  0.19944324933E+03  0.00000000000E+00 0. -1.
          1    1    1    2  502    0 -0.66639265054E+01 -0.26206673843E+02  0.89829641554E+02  0.93811311535E+02  0.00000000000E+00 0. -1.
         22    1    3    3    0    0  0.25668137551E+02 -0.55164274247E+02 -0.25456660620E+03  0.26173671395E+03  0.00000000000E+00 0. -1.
         22    1    3    3    0    0  0.81637077700E+00  0.46640003294E+02 -0.67489484901E+03  0.67650499894E+03  0.00000000000E+00 0. -1.
</event>
<event>
 7    1  0.6255318E-006  0.3919555E+02  0.7818608E-02  0.1545520E+00
          2   -1    0    0  502    0  0.00000000000E+00  0.00000000000E+00  0.51328072213E+03  0.51328072213E+03  0.00000000000E+00 0. -1.
          1   -1    0    0  501    0 -0.00000000000E+00 -0.00000000000E+00 -0.10640434408E+03  0.10640434408E+03  0.00000000000E+00 0. -1.
         25    2    1    2    0    0  0.77626000252E+01 -0.35416232528E+02  0.94421623046E+02  0.16079275947E+03  0.12499720443E+03 0.  0.
          2    1    1    2  501    0 -0.35055279661E+02  0.18939508016E+02 -0.67079868963E+02  0.78021063925E+02  0.00000000000E+00 0. -1.
          1    1    1    2  502    0  0.27292679636E+02  0.16476724512E+02  0.37953462397E+03  0.38087124282E+03  0.00000000000E+00 0. -1.
         22    1    3    3    0    0  0.23395014032E+02  0.24830339598E+02 -0.13109107322E+02  0.36547518943E+02  0.00000000000E+00 0.  1.
         22    1    3    3    0    0 -0.15632414007E+02 -0.60246572126E+02  0.10753073037E+03  0.12424524053E+03  0.00000000000E+00 0.  1.
</event>
<event>
 7    1  0.6255318E-006  0.9964018E+02  0.7818608E-02  0.1299937E+00
          2   -1    0    0  502    0  0.00000000000E+00  0.00000000000E+00  0.13236801268E+04  0.13236801268E+04  0.00000000000E+00 0. -1.
          1   -1    0    0  501    0 -0.00000000000E+00 -0.00000000000E+00 -0.41495131228E+03  0.41495131228E+03  0.00000000000E+00 0. -1.
         25    2    1    2    0    0  0.45311073135E+02  0.13023982638E+03 -0.78594742577E+02  0.20203308145E+03  0.12499890686E+03 0.  0.
          2    1    1    2  501    0  0.37248750864E+02 -0.74733214291E+02 -0.26627385896E+03  0.27905965442E+03  0.00000000000E+00 0. -1.
          1    1    1    2  502    0 -0.82559823999E+02 -0.55506612091E+02  0.12535974161E+04  0.12575387033E+04  0.00000000000E+00 0. -1.
         22    1    3    3    0    0  0.72783130196E+02  0.43915502365E+02 -0.47146856123E+01  0.85136265184E+02  0.00000000000E+00 0. -1.
         22    1    3    3    0    0 -0.27472057061E+02  0.86324324018E+02 -0.73880056964E+02  0.11689681627E+03  0.00000000000E+00 0. -1.
</event>
<event>
 7    1  0.6255318E-006  0.4822508E+02  0.7818608E-02  0.1467855E+00
          2   -1    0    0  502    0  0.00000000000E+00  0.00000000000E+00  0.13002319696E+03  0.13002319696E+03  0.00000000000E+00 0. -1.
          1   -1    0    0  501    0 -0.00000000000E+00 -0.00000000000E+00 -0.76187176094E+03  0.76187176094E+03  0.00000000000E+00 0. -1.
         25    2    1    2    0    0 -0.24224678247E+02  0.22329492883E+02 -0.13376848352E+03  0.18602323310E+03  0.12500077912E+03 0.  0.
          2    1    1    2  501    0 -0.22743041812E+02 -0.37648141130E+02 -0.59524547100E+03  0.59686832654E+03  0.00000000000E+00 0. -1.
          1    1    1    2  502    0  0.46967720059E+02  0.15318648247E+02  0.97165390544E+02  0.10900339826E+03  0.00000000000E+00 0. -1.
         22    1    3    3    0    0  0.19171874901E+02 -0.31633454139E+02 -0.18521074847E+01  0.37036016391E+02  0.00000000000E+00 0. -1.
         22    1    3    3    0    0 -0.43396553147E+02  0.53962947023E+02 -0.13191637603E+03  0.14898721671E+03  0.00000000000E+00 0. -1.
</event>
<event>
 7    1  0.6255318E-006  0.2903553E+03  0.7818608E-02  0.1318851E+00
          2   -1    0    0  502    0  0.00000000000E+00  0.00000000000E+00  0.62984644197E+03  0.62984644197E+03  0.00000000000E+00 0. -1.
          1   -1    0    0  501    0 -0.00000000000E+00 -0.00000000000E+00 -0.10318716536E+04  0.10318716536E+04  0.00000000000E+00 0. -1.
         25    2    1    2    0    0 -0.20441753953E+03 -0.22316669950E+03 -0.44179383159E+03  0.54990686364E+03  0.12500345121E+03 0.  0.
          2    1    1    2  501    0  0.18138529531E+03  0.21596609754E+03 -0.49863399900E+03  0.57286808743E+03  0.00000000000E+00 0. -1.
          1    1    1    2  502    0  0.23032244221E+02  0.72006019538E+01  0.53840261894E+03  0.53894314452E+03  0.00000000000E+00 0. -1.
         22    1    3    3    0    0 -0.32064041570E+02  0.12202859235E+02 -0.63698427059E+02  0.72349859330E+02  0.00000000000E+00 0.  1.
         22    1    3    3    0    0 -0.17235349796E+03 -0.23536955873E+03 -0.37809540453E+03  0.47755700431E+03  0.00000000000E+00 0.  1.
</event>
<event>
 7    1  0.6255318E-006  0.4120051E+02  0.7818608E-02  0.1553519E+00
          2   -1    0    0  502    0  0.00000000000E+00  0.00000000000E+00  0.16508798232E+04  0.16508798232E+04  0.00000000000E+00 0. -1.
          1   -1    0    0  501    0 -0.00000000000E+00 -0.00000000000E+00 -0.19988332751E+03  0.19988332751E+03  0.00000000000E+00 0. -1.
         25    2    1    2    0    0  0.55780950304E+02  0.34971405400E+02  0.75852356807E+03  0.77156711295E+03  0.12499317126E+03 0.  0.
          2    1    1    2  501    0 -0.18221667655E+02 -0.22314668773E+02 -0.19184212504E+03  0.19399323327E+03  0.00000000000E+00 0. -1.
          1    1    1    2  502    0 -0.37559282648E+02 -0.12656736627E+02  0.88431505267E+03  0.88520280449E+03  0.00000000000E+00 0. -1.
         22    1    3    3    0    0  0.63562736671E+01 -0.41750633577E+02  0.37325969446E+03  0.37564120797E+03  0.00000000000E+00 0. -1.
         22    1    3    3    0    0  0.49424676637E+02  0.76722038977E+02  0.38526387361E+03  0.39592590498E+03  0.00000000000E+00 0. -1.
</event>
<event>
 7    1  0.6255318E-006  0.7826993E+02  0.7818608E-02  0.1351309E+00
          2   -1    0    0  502    0  0.00000000000E+00  0.00000000000E+00  0.78493268049E+03  0.78493268049E+03  0.00000000000E+00 0. -1.
          1   -1    0    0  501    0 -0.00000000000E+00 -0.00000000000E+00 -0.13124470070E+04  0.13124470070E+04  0.00000000000E+00 0. -1.
         25    2    1    2    0    0 -0.12387704016E+03  0.61994965807E+02 -0.52982500792E+02  0.19396798612E+03  0.12501014914E+03 0.  0.
          2    1    1    2  501    0  0.47927031903E+02 -0.47435660548E+02 -0.11859184779E+04  0.11878340703E+04  0.00000000000E+00 0. -1.
          1    1    1    2  502    0  0.75950008252E+02 -0.14559305260E+02  0.71138665222E+03  0.71557763106E+03  0.00000000000E+00 0. -1.
         22    1    3    3    0    0 -0.11784951354E+03  0.25559781480E+02  0.99506275403E+01  0.12099927793E+03  0.00000000000E+00 0. -1.
         22    1    3    3    0    0 -0.60275266181E+01  0.36435184327E+02 -0.62933128333E+02  0.72968708196E+02  0.00000000000E+00 0. -1.
</event>
<event>
 7    1  0.6255318E-006  0.3871029E+02  0.7818608E-02  0.1527865E+00
          2   -1    0    0  502    0  0.00000000000E+00  0.00000000000E+00  0.70938691720E+03  0.70938691720E+03  0.00000000000E+00 0. -1.
          1   -1    0    0  501    0 -0.00000000000E+00 -0.00000000000E+00 -0.14870415252E+03  0.14870415252E+03  0.00000000000E+00 0. -1.
         25    2    1    2    0    0 -0.66930297964E+01 -0.57844897827E+01  0.43078997534E+03  0.44864620319E+03  0.12500062324E+03 0.  0.
          2    1    1    2  501    0 -0.28648158726E+02 -0.22178700794E+02 -0.13549641378E+03  0.14025651469E+03  0.00000000000E+00 0. -1.
          1    1    1    2  502    0  0.35341188522E+02  0.27963190576E+02  0.26538920312E+03  0.26918835184E+03  0.00000000000E+00 0. -1.
         22    1    3    3    0    0  0.28592457502E+01 -0.29425169475E+02  0.41986849092E+03  0.42090802505E+03  0.00000000000E+00 0.  1.
         22    1    3    3    0    0 -0.95522755466E+01  0.23640679693E+02  0.10921484423E+02  0.27738178139E+02  0.00000000000E+00 0.  1.
</event>
<event>
 7    1  0.6255318E-006  0.1840671E+03  0.7818608E-02  0.1174640E+00
          2   -1    0    0  502    0  0.00000000000E+00  0.00000000000E+00  0.13488332138E+04  0.13488332138E+04  0.00000000000E+00 0. -1.
          1   -1    0    0  501    0 -0.00000000000E+00 -0.00000000000E+00 -0.21236186753E+03  0.21236186753E+03  0.00000000000E+00 0. -1.
         25    2    1    2    0    0 -0.21610998272E+03  0.17713682363E+02  0.16289658019E+03  0.29862606334E+03  0.12499972279E+03 0.  0.
          2    1    1    2  501    0  0.14115582797E+03  0.12681800786E+03 -0.73067941185E+02  0.20333887704E+03  0.00000000000E+00 0. -1.
          1    1    1    2  502    0  0.74954154754E+02 -0.14453169022E+03  0.10466427073E+04  0.10592301409E+04  0.00000000000E+00 0. -1.
         22    1    3    3    0    0 -0.16513461786E+03 -0.32095922388E+02  0.15161991697E+03  0.22646895918E+03  0.00000000000E+00 0. -1.
         22    1    3    3    0    0 -0.50975364860E+02  0.49809604751E+02  0.11276663215E+02  0.72157104164E+02  0.00000000000E+00 0. -1.
</event>
<event>
 7    1  0.6255318E-006  0.7200037E+02  0.7818608E-02  0.1356808E+00
          2   -1    0    0  502    0  0.00000000000E+00  0.00000000000E+00  0.24014357022E+03  0.24014357022E+03  0.00000000000E+00 0. -1.
          1   -1    0    0  501    0 -0.00000000000E+00 -0.00000000000E+00 -0.38569960151E+03  0.38569960151E+03  0.00000000000E+00 0. -1.
         25    2    1    2    0    0  0.66140509596E+01 -0.10931850674E+03  0.57202546027E+02  0.17576322796E+03  0.12500519768E+03 0.  0.
          2    1    1    2  501    0  0.41316393052E+02  0.58351151853E+02 -0.31214704404E+03  0.32023066430E+03  0.00000000000E+00 0. -1.
          1    1    1    2  502    0 -0.47930444011E+02  0.50967354885E+02  0.10938846671E+03  0.12984927946E+03  0.00000000000E+00 0. -1.
         22    1    3    3    0    0  0.18436856170E+02  0.18360471660E+02  0.38079064371E+02  0.46119840940E+02  0.00000000000E+00 0. -1.
         22    1    3    3    0    0 -0.11822805211E+02 -0.12767897840E+03  0.19123481656E+02  0.12964338702E+03  0.00000000000E+00 0. -1.
</event>
<event>
 7    1  0.6255318E-006  0.7927319E+02  0.7818608E-02  0.1336822E+00
          2   -1    0    0  502    0  0.00000000000E+00  0.00000000000E+00  0.69173904879E+03  0.69173904879E+03  0.00000000000E+00 0. -1.
          1   -1    0    0  501    0 -0.00000000000E+00 -0.00000000000E+00 -0.30877788817E+03  0.30877788817E+03  0.00000000000E+00 0. -1.
         25    2    1    2    0    0 -0.61202647311E+02  0.50313295108E+02  0.10081591548E+03  0.17907033658E+03  0.12500057970E+03 0.  0.
          2    1    1    2  501    0  0.77305982163E+02  0.23370081257E+02 -0.26093847193E+03  0.27315062092E+03  0.00000000000E+00 0. -1.
          1    1    1    2  502    0 -0.16103334853E+02 -0.73683376365E+02  0.54308371707E+03  0.54829597947E+03  0.00000000000E+00 0. -1.
         22    1    3    3    0    0 -0.75225770952E+02  0.79165883324E+02  0.52742823907E+02  0.12127637516E+03  0.00000000000E+00 0. -1.
         22    1    3    3    0    0  0.14023123641E+02 -0.28852588217E+02  0.48073091568E+02  0.57793961418E+02  0.00000000000E+00 0. -1.
</event>
<event>
 7    1  0.6255318E-006  0.1649090E+03  0.7818608E-02  0.1218082E+00
          2   -1    0    0  502    0  0.00000000000E+00  0.00000000000E+00  0.16085784016E+04  0.16085784016E+04  0.00000000000E+00 0. -1.
          1   -1    0    0  501    0 -0.00000000000E+00 -0.00000000000E+00 -0.80245472552E+03  0.80245472552E+03  0.00000000000E+00 0. -1.
         25    2    1    2    0    0  0.14083579551E+03  0.82211583214E+02  0.91520204335E+03  0.93798361784E+03  0.12500008584E+03 0.  0.
          2    1    1    2  501    0  0.43934634268E+02 -0.10413897533E+03 -0.77419231554E+03  0.78239946301E+03  0.00000000000E+00 0. -1.
          1    1    1    2  502    0 -0.18477042978E+03  0.21927392112E+02  0.66511394822E+03  0.69065004623E+03  0.00000000000E+00 0. -1.
         22    1    3    3    0    0  0.60312374130E+01 -0.24802694963E+02  0.23341802487E+03  0.23480954801E+03  0.00000000000E+00 0. -1.
         22    1    3    3    0    0  0.13480455809E+03  0.10701427818E+03  0.68178401848E+03  0.70317406983E+03  0.00000000000E+00 0. -1.
</event>
<event>
 7    1  0.6255318E-006  0.1381417E+03  0.7818608E-02  0.1275151E+00
          2   -1    0    0  502    0  0.00000000000E+00  0.00000000000E+00  0.17622251162E+04  0.17622251162E+04  0.00000000000E+00 0. -1.
          1   -1    0    0  501    0 -0.00000000000E+00 -0.00000000000E+00 -0.66488275512E+02  0.66488275512E+02  0.00000000000E+00 0. -1.
         25    2    1    2    0    0  0.94087390997E+02  0.18207509844E+03  0.71180799461E+03  0.75119854681E+03  0.12499942771E+03 0.  0.
          2    1    1    2  501    0 -0.67127969703E+02 -0.11098003463E+03  0.47687841721E+02  0.13819139862E+03  0.00000000000E+00 0. -1.
          1    1    1    2  502    0 -0.26959421294E+02 -0.71095063806E+02  0.93624100436E+03  0.93932344629E+03  0.00000000000E+00 0. -1.
         22    1    3    3    0    0 -0.10288161917E+02  0.11564244834E+03  0.32794228548E+03  0.34788671250E+03  0.00000000000E+00 0.  1.
         22    1    3    3    0    0  0.10437555291E+03  0.66432650101E+02  0.38386570913E+03  0.40331183431E+03  0.00000000000E+00 0.  1.
</event>
<event>
 7    1  0.6255318E-006  0.2312003E+03  0.7818608E-02  0.1156648E+00
          2   -1    0    0  502    0  0.00000000000E+00  0.00000000000E+00  0.60657468508E+03  0.60657468508E+03  0.00000000000E+00 0. -1.
          1   -1    0    0  501    0 -0.00000000000E+00 -0.00000000000E+00 -0.18184264173E+04  0.18184264173E+04  0.00000000000E+00 0. -1.
         25    2    1    2    0    0  0.22831829736E+03 -0.12491306023E+03 -0.21312784270E+02  0.28949558111E+03  0.12498375568E+03 0.  0.
          2    1    1    2  501    0 -0.94864990850E+02  0.21224123651E+03 -0.16411340014E+04  0.16575181808E+04  0.00000000000E+00 0. -1.
          1    1    1    2  502    0 -0.13345330651E+03 -0.87328176282E+02  0.45059505351E+03  0.47798734046E+03  0.00000000000E+00 0. -1.
         22    1    3    3    0    0  0.22483698286E+03 -0.73264849797E+02 -0.23819841790E+02  0.23766950149E+03  0.00000000000E+00 0.  1.
         22    1    3    3    0    0  0.34813145072E+01 -0.51648210433E+02  0.25070575200E+01  0.51826079622E+02  0.00000000000E+00 0.  1.
</event>
<event>
 7    1  0.6255318E-006  0.4312302E+02  0.7818608E-02  0.1536139E+00
          2   -1    0    0  502    0  0.00000000000E+00  0.00000000000E+00  0.11234222649E+04  0.11234222649E+04  0.00000000000E+00 0. -1.
          1   -1    0    0  501    0 -0.00000000000E+00 -0.00000000000E+00 -0.62483123103E+03  0.62483123103E+03  0.00000000000E+00 0. -1.
         25    2    1    2    0    0  0.68652847806E+01 -0.21417563771E+02 -0.12781149993E+03  0.18018639927E+03  0.12500205915E+03 0.  0.
          2    1    1    2  501    0  0.30798220763E+02  0.26556129777E+00 -0.46990279997E+03  0.47091107690E+03  0.00000000000E+00 0. -1.
          1    1    1    2  502    0 -0.37663505543E+02  0.21152002473E+02  0.10963053337E+04  0.10971560197E+04  0.00000000000E+00 0. -1.
         22    1    3    3    0    0 -0.76915132851E+01 -0.36987575757E+02 -0.14683482155E+03  0.15161696790E+03  0.00000000000E+00 0. -1.
         22    1    3    3    0    0  0.14556798066E+02  0.15570011986E+02  0.19023321616E+02  0.28569431364E+02  0.00000000000E+00 0. -1.
</event>
<event>
 7    1  0.6255318E-006  0.1566316E+03  0.7818608E-02  0.1240358E+00
          2   -1    0    0  502    0  0.00000000000E+00  0.00000000000E+00  0.95807221618E+03  0.95807221618E+03  0.00000000000E+00 0. -1.
          1   -1    0    0  501    0 -0.00000000000E+00 -0.00000000000E+00 -0.52429137925E+03  0.52429137925E+03  0.00000000000E+00 0. -1.
         25    2    1    2    0    0 -0.23228459510E+03  0.64693766903E+02  0.22362143549E+03  0.35181762199E+03  0.12501070406E+03 0.  0.
          2    1    1    2  501    0  0.13778229822E+03 -0.66584209333E+02 -0.44398030542E+03  0.46961253202E+03  0.00000000000E+00 0. -1.
          1    1    1    2  502    0  0.94502296889E+02  0.18904424295E+01  0.65413970686E+03  0.66093344142E+03  0.00000000000E+00 0. -1.
         22    1    3    3    0    0 -0.34137410647E+02  0.12516908950E+02 -0.13178123247E+02  0.38674264669E+02  0.00000000000E+00 0. -1.
         22    1    3    3    0    0 -0.19814718446E+03  0.52176857953E+02  0.23679955874E+03  0.31314335732E+03  0.00000000000E+00 0. -1.
</event>
<event>
 7    1  0.6255318E-006  0.1059699E+03  0.7818608E-02  0.1336320E+00
          2   -1    0    0  502    0  0.00000000000E+00  0.00000000000E+00  0.47467381412E+03  0.47467381412E+03  0.00000000000E+00 0. -1.
          1   -1    0    0  501    0 -0.00000000000E+00 -0.00000000000E+00 -0.19184472599E+04  0.19184472599E+04  0.00000000000E+00 0. -1.
         25    2    1    2    0    0 -0.80310386187E+02  0.69059725146E+02 -0.18329589032E+02  0.16485421423E+03  0.12498773679E+03 0.  0.
          2    1    1    2  501    0 -0.25180222327E+02 -0.50767127829E+02 -0.18192672010E+04  0.18201495800E+04  0.00000000000E+00 0. -1.
          1    1    1    2  502    0  0.10549060851E+03 -0.18292597317E+02  0.39382334426E+03  0.40811727981E+03  0.00000000000E+00 0. -1.
         22    1    3    3    0    0 -0.56535788224E+02  0.50932976808E+02  0.49465647919E+02  0.90759648527E+02  0.00000000000E+00 0.  1.
         22    1    3    3    0    0 -0.23774597963E+02  0.18126748337E+02 -0.67795236951E+02  0.74094565704E+02  0.00000000000E+00 0.  1.
</event>
<event>
 7    1  0.6255318E-006  0.8521997E+02  0.7818608E-02  0.1456150E+00
          2   -1    0    0  502    0  0.00000000000E+00  0.00000000000E+00  0.34168138586E+04  0.34168138586E+04  0.00000000000E+00 0. -1.
          1   -1    0    0  501    0 -0.00000000000E+00 -0.00000000000E+00 -0.10867831965E+03  0.10867831965E+03  0.00000000000E+00 0. -1.
         25    2    1    2    0    0  0.48251286981E+02  0.45844425990E+02  0.13992006243E+04  0.14063491011E+04  0.12500203577E+03 0.  0.
          2    1    1    2  501    0  0.69665662955E+01  0.26181796849E+02 -0.10231766298E+03  0.10584386468E+03  0.00000000000E+00 0. -1.
          1    1    1    2  502    0 -0.55217853277E+02 -0.72026222839E+02  0.20112525777E+04  0.20132992125E+04  0.00000000000E+00 0. -1.
         22    1    3    3    0    0  0.86921022018E+02  0.48173575647E+02  0.11321464975E+04  0.11364997357E+04  0.00000000000E+00 0. -1.
         22    1    3    3    0    0 -0.38669735037E+02 -0.23291496568E+01  0.26705412683E+03  0.26984936539E+03  0.00000000000E+00 0. -1.
</event>
<event>
 7    1  0.6255318E-006  0.8196558E+02  0.7818608E-02  0.1452291E+00
          2   -1    0    0  502    0  0.00000000000E+00  0.00000000000E+00  0.11182981027E+03  0.11182981027E+03  0.00000000000E+00 0. -1.
          1   -1    0    0  501    0 -0.00000000000E+00 -0.00000000000E+00 -0.68550229106E+03  0.68550229106E+03  0.00000000000E+00 0. -1.
         25    2    1    2    0    0  0.83912510765E+02 -0.46645558507E+02 -0.57217566883E+03  0.59348747278E+03  0.12500106702E+03 0.  0.
          2    1    1    2  501    0 -0.59861164593E+02  0.30485978790E+02 -0.89092653335E+02  0.11158070984E+03  0.00000000000E+00 0. -1.
          1    1    1    2  502    0 -0.24051346172E+02  0.16159579717E+02  0.87595841375E+02  0.92263918709E+02  0.00000000000E+00 0. -1.
         22    1    3    3    0    0  0.14769762911E+02  0.42350459806E+02 -0.17061160635E+03  0.17640869469E+03  0.00000000000E+00 0. -1.
         22    1    3    3    0    0  0.69142747853E+02 -0.88996018313E+02 -0.40156406248E+03  0.41707877809E+03  0.00000000000E+00 0. -1.
</event>
<event>
 7    1  0.6255318E-006  0.6996020E+02  0.7818608E-02  0.1373849E+00
          2   -1    0    0  502    0  0.00000000000E+00  0.00000000000E+00  0.26701641073E+03  0.26701641073E+03  0.00000000000E+00 0. -1.
          1   -1    0    0  501    0 -0.00000000000E+00 -0.00000000000E+00 -0.46801001278E+03  0.46801001278E+03  0.00000000000E+00 0. -1.
         25    2    1    2    0    0 -0.99753600214E+02  0.40619134763E+01  0.74312189643E+02  0.17639392700E+03  0.12500094422E+03 0.  0.
          2    1    1    2  501    0  0.44601826261E+02 -0.43738502656E+02 -0.40629637452E+03  0.41107070374E+03  0.00000000000E+00 0. -1.
          1    1    1    2  502    0  0.55151773953E+02  0.39676589179E+02  0.13099058283E+03  0.14756179278E+03  0.00000000000E+00 0. -1.
         22    1    3    3    0    0  0.24793570520E+02 -0.13919450126E+02  0.33856257570E+02  0.44212197498E+02  0.00000000000E+00 0. -1.
         22    1    3    3    0    0 -0.12454717073E+03  0.17981363602E+02  0.40455932072E+02  0.13218172950E+03  0.00000000000E+00 0. -1.
</event>
<event>
 7    1  0.6255318E-006  0.6056922E+02  0.7818608E-02  0.1466718E+00
          2   -1    0    0  502    0  0.00000000000E+00  0.00000000000E+00  0.81822734103E+03  0.81822734103E+03  0.00000000000E+00 0. -1.
          1   -1    0    0  501    0 -0.00000000000E+00 -0.00000000000E+00 -0.51089626076E+03  0.51089626076E+03  0.00000000000E+00 0. -1.
         25    2    1    2    0    0  0.69463680007E+01 -0.26459698328E+02  0.18965237792E+03  0.22878481617E+03  0.12500439992E+03 0.  0.
          2    1    1    2  501    0  0.96266880586E+00  0.60870357284E+02 -0.48892896337E+03  0.49270443305E+03  0.00000000000E+00 0. -1.
          1    1    1    2  502    0 -0.79090368065E+01 -0.34410658956E+02  0.60660766572E+03  0.60763435257E+03  0.00000000000E+00 0. -1.
         22    1    3    3    0    0 -0.15998959491E+02  0.41130904652E+02  0.12469095741E+03  0.13227075596E+03  0.00000000000E+00 0.  1.
         22    1    3    3    0    0  0.22945327492E+02 -0.67590602980E+02  0.64961420507E+02  0.96514060215E+02  0.00000000000E+00 0.  1.
</event>
<event>
 7    1  0.6255318E-006  0.1400535E+03  0.7818608E-02  0.1356290E+00
          2   -1    0    0  502    0  0.00000000000E+00  0.00000000000E+00  0.25356130615E+03  0.25356130615E+03  0.00000000000E+00 0. -1.
          1   -1    0    0  501    0 -0.00000000000E+00 -0.00000000000E+00 -0.45737434618E+03  0.45737434618E+03  0.00000000000E+00 0. -1.
         25    2    1    2    0    0 -0.15455896846E+03  0.50040328812E+02  0.13712586741E+03  0.24661879502E+03  0.12499926922E+03 0.  0.
          2    1    1    2  501    0  0.13760133192E+03 -0.18141614477E+02 -0.38388049208E+03  0.40820029020E+03  0.00000000000E+00 0. -1.
          1    1    1    2  502    0  0.16957636546E+02 -0.31898714336E+02  0.42941584639E+02  0.56116567116E+02  0.00000000000E+00 0. -1.
         22    1    3    3    0    0  0.42991704507E+01  0.44982709667E+02  0.21314460379E+02  0.49962318369E+02  0.00000000000E+00 0. -1.
         22    1    3    3    0    0 -0.15885813891E+03  0.50576191453E+01  0.11581140703E+03  0.19665647665E+03  0.00000000000E+00 0. -1.
</event>
<event>
 7    1  0.6255318E-006  0.5767446E+02  0.7818608E-02  0.1448575E+00
          2   -1    0    0  502    0  0.00000000000E+00  0.00000000000E+00  0.12788414464E+04  0.12788414464E+04  0.00000000000E+00 0. -1.
          1   -1    0    0  501    0 -0.00000000000E+00 -0.00000000000E+00 -0.63685793696E+03  0.63685793696E+03  0.00000000000E+00 0. -1.
         25    2    1    2    0    0  0.19900486128E+02 -0.75269799698E+01  0.47599558878E+03  0.49259535598E+03  0.12500279767E+03 0.  0.
          2    1    1    2  501    0  0.41943725678E+02 -0.56461867104E+01 -0.62658505927E+03  0.62801273239E+03  0.00000000000E+00 0. -1.
          1    1    1    2  502    0 -0.61844211806E+02  0.13173166680E+02  0.79257297993E+03  0.79509129499E+03  0.00000000000E+00 0. -1.
         22    1    3    3    0    0  0.69283589625E+02  0.16887134372E+02  0.28774360914E+03  0.29644860549E+03  0.00000000000E+00 0.  1.
         22    1    3    3    0    0 -0.49383103497E+02 -0.24414114342E+02  0.18825197964E+03  0.19614675049E+03  0.00000000000E+00 0.  1.
</event>
<event>
 7    1  0.6255318E-006  0.5148246E+02  0.7818608E-02  0.1444345E+00
          2   -1    0    0  502    0  0.00000000000E+00  0.00000000000E+00  0.21101653952E+04  0.21101653952E+04  0.00000000000E+00 0. -1.
          1   -1    0    0  501    0 -0.00000000000E+00 -0.00000000000E+00 -0.11863288449E+02  0.11863288449E+02  0.00000000000E+00 0. -1.
         25    2    1    2    0    0 -0.16882593305E+02  0.18930046249E+02  0.90838023918E+03  0.91728970521E+03  0.12498950257E+03 0.  0.
          2    1    1    2  501    0 -0.34569975117E+02 -0.38149183752E+02  0.91848992372E+02  0.10529330843E+03  0.00000000000E+00 0. -1.
          1    1    1    2  502    0  0.51452568422E+02  0.19219137503E+02  0.10980728752E+04  0.10994456700E+04  0.00000000000E+00 0. -1.
         22    1    3    3    0    0  0.78177060478E+01  0.54133120060E+02  0.77965375669E+03  0.78156988909E+03  0.00000000000E+00 0.  1.
         22    1    3    3    0    0 -0.24700299353E+02 -0.35203073811E+02  0.12872648249E+03  0.13571981612E+03  0.00000000000E+00 0.  1.
</event>
<event>
 7    1  0.6255318E-006  0.1141983E+03  0.7818608E-02  0.1413038E+00
          2   -1    0    0  502    0  0.00000000000E+00  0.00000000000E+00  0.15896343891E+04  0.15896343891E+04  0.00000000000E+00 0. -1.
          1   -1    0    0  501    0 -0.00000000000E+00 -0.00000000000E+00 -0.57511336524E+03  0.57511336524E+03  0.00000000000E+00 0. -1.
         25    2    1    2    0    0  0.63761286374E+02  0.12068484845E+03 -0.97715400044E+02  0.20930973831E+03  0.12502772836E+03 0.  0.
          2    1    1    2  501    0 -0.61513532568E+02 -0.92800598347E+02 -0.41411991739E+03  0.42882533942E+03  0.00000000000E+00 0. -1.
          1    1    1    2  502    0 -0.22477538056E+01 -0.27884250107E+02  0.15263563413E+04  0.15266126766E+04  0.00000000000E+00 0. -1.
         22    1    3    3    0    0  0.50426261697E+02  0.12930346932E+03 -0.11895536950E+03  0.18279106920E+03  0.00000000000E+00 0. -1.
         22    1    3    3    0    0  0.13335024677E+02 -0.86186208698E+01  0.21239969454E+02  0.26518669108E+02  0.00000000000E+00 0. -1.
</event>
<event>
 7    1  0.6255318E-006  0.1064426E+03  0.7818608E-02  0.1324644E+00
          2   -1    0    0  502    0  0.00000000000E+00  0.00000000000E+00  0.23526633137E+03  0.23526633137E+03  0.00000000000E+00 0. -1.
          1   -1    0    0  501    0 -0.00000000000E+00 -0.00000000000E+00 -0.15906761373E+04  0.15906761373E+04  0.00000000000E+00 0. -1.
         25    2    1    2    0    0 -0.52710120494E+02  0.13221529550E+03 -0.83552526283E+03  0.85672995499E+03  0.12499803915E+03 0.  0.
          2    1    1    2  501    0  0.66692898270E+02 -0.71283988466E+02 -0.73691765967E+03  0.74335522250E+03  0.00000000000E+00 0. -1.
          1    1    1    2  502    0 -0.13982777775E+02 -0.60931307037E+02  0.21703311661E+03  0.22585729113E+03  0.00000000000E+00 0. -1.
         22    1    3    3    0    0  0.16949875313E+02  0.10474980963E+03 -0.35887478825E+03  0.37423379662E+03  0.00000000000E+00 0. -1.
         22    1    3    3    0    0 -0.69659995807E+02  0.27465485874E+02 -0.47665047458E+03  0.48249615837E+03  0.00000000000E+00 0. -1.
</event>
<event>
 7    1  0.6255318E-006  0.2056183E+03  0.7818608E-02  0.1183610E+00
          2   -1    0    0  502    0  0.00000000000E+00  0.00000000000E+00  0.15582368513E+04  0.15582368513E+04  0.00000000000E+00 0. -1.
          1   -1    0    0  501    0 -0.00000000000E+00 -0.00000000000E+00 -0.25660040588E+04  0.25660040588E+04  0.00000000000E+00 0. -1.
         25    2    1    2    0    0 -0.27718264268E+03  0.14198993970E+03  0.17909491138E+03  0.38036897073E+03  0.12495681748E+03 0.  0.
          2    1    1    2  501    0  0.14544110455E+03 -0.14337460741E+03 -0.24577262155E+04  0.24661969799E+04  0.00000000000E+00 0. -1.
          1    1    1    2  502    0  0.13174153813E+03  0.13846677110E+01  0.12708640966E+04  0.12776749596E+04  0.00000000000E+00 0. -1.
         22    1    3    3    0    0 -0.23252470397E+03  0.59366027049E+02  0.14536034435E+03  0.28057386342E+03  0.00000000000E+00 0.  1.
         22    1    3    3    0    0 -0.44657938715E+02  0.82623912646E+02  0.33734567025E+02  0.99795107313E+02  0.00000000000E+00 0.  1.
</event>
<event>
 7    1  0.6255318E-006  0.1495122E+03  0.7818608E-02  0.1233104E+00
          2   -1    0    0  502    0  0.00000000000E+00  0.00000000000E+00  0.21896881624E+03  0.21896881624E+03  0.00000000000E+00 0. -1.
          1   -1    0    0  501    0 -0.00000000000E+00 -0.00000000000E+00 -0.93629499492E+03  0.93629499492E+03  0.00000000000E+00 0. -1.
         25    2    1    2    0    0  0.17296924357E+03  0.15541526665E+03 -0.31532080988E+02  0.26587736049E+03  0.12499693740E+03 0.  0.
          2    1    1    2  501    0 -0.72319561675E+02 -0.78363092136E+02 -0.74278967925E+03  0.75040482462E+03  0.00000000000E+00 0. -1.
          1    1    1    2  502    0 -0.10064968190E+03 -0.77052174510E+02  0.56995581562E+02  0.13898162605E+03  0.00000000000E+00 0. -1.
         22    1    3    3    0    0  0.10874117791E+03  0.42134426959E+02  0.32077241966E+02  0.12095000273E+03  0.00000000000E+00 0.  1.
         22    1    3    3    0    0  0.64228065660E+02  0.11328083969E+03 -0.63609322954E+02  0.14492735775E+03  0.00000000000E+00 0.  1.
</event>
<event>
 7    1  0.6255318E-006  0.3535724E+02  0.7818608E-02  0.1622396E+00
          2   -1    0    0  502    0  0.00000000000E+00  0.00000000000E+00  0.14430118588E+04  0.14430118588E+04  0.00000000000E+00 0. -1.
          1   -1    0    0  501    0 -0.00000000000E+00 -0.00000000000E+00 -0.17832090958E+02  0.17832090958E+02  0.00000000000E+00 0. -1.
         25    2    1    2    0    0 -0.46561107465E+02  0.25077872169E+02  0.73998676993E+03  0.75233576160E+03  0.12502736541E+03 0.  0.
          2    1    1    2  501    0  0.24531076739E+02 -0.24702706783E+02  0.14924979257E+02  0.37878126329E+02  0.00000000000E+00 0. -1.
          1    1    1    2  502    0  0.22030030726E+02 -0.37516538566E+00  0.67026801870E+03  0.67063006188E+03  0.00000000000E+00 0. -1.
         22    1    3    3    0    0 -0.27716852930E+02  0.39220376239E+02  0.71953669252E+03  0.72113765241E+03  0.00000000000E+00 0. -1.
         22    1    3    3    0    0 -0.18844254535E+02 -0.14142504070E+02  0.20450077413E+02  0.31198109182E+02  0.00000000000E+00 0. -1.
</event>
<event>
 7    1  0.6255318E-006  0.5505701E+02  0.7818608E-02  0.1424919E+00
          2   -1    0    0  502    0  0.00000000000E+00  0.00000000000E+00  0.22437075715E+02  0.22437075715E+02  0.00000000000E+00 0. -1.
          1   -1    0    0  501    0 -0.00000000000E+00 -0.00000000000E+00 -0.24708959092E+04  0.24708959092E+04  0.00000000000E+00 0. -1.
         25    2    1    2    0    0 -0.48929974693E+02  0.22872843964E+02 -0.24800362020E+03  0.28293223813E+03  0.12501018489E+03 0.  0.
          2    1    1    2  501    0  0.32348768832E+02  0.41920838746E+02 -0.19627921188E+04  0.19635062264E+04  0.00000000000E+00 0. -1.
          1    1    1    2  502    0  0.16581205861E+02 -0.64793682710E+02 -0.23766309450E+03  0.24689452038E+03  0.00000000000E+00 0. -1.
         22    1    3    3    0    0  0.14985137416E+01 -0.23318485720E+02  0.22766768844E+01  0.23477235300E+02  0.00000000000E+00 0. -1.
         22    1    3    3    0    0 -0.50428488434E+02  0.46191329684E+02 -0.25028029708E+03  0.25945500283E+03  0.00000000000E+00 0. -1.
</event>
<event>
 7    1  0.6255318E-006  0.6997774E+02  0.7818608E-02  0.1430824E+00
          2   -1    0    0  502    0  0.00000000000E+00  0.00000000000E+00  0.40339036494E+03  0.40339036494E+03  0.00000000000E+00 0. -1.
          1   -1    0    0  501    0 -0.00000000000E+00 -0.00000000000E+00 -0.29969891794E+03  0.29969891794E+03  0.00000000000E+00 0. -1.
         25    2    1    2    0    0  0.39502492714E+02 -0.83000844663E+02  0.79853943878E+01  0.15536490733E+03  0.12499960304E+03 0.  0.
          2    1    1    2  501    0  0.12851827457E+02  0.37701008092E+02 -0.22047926127E+03  0.22404829866E+03  0.00000000000E+00 0. -1.
          1    1    1    2  502    0 -0.52354320170E+02  0.45299836571E+02  0.31618531389E+03  0.32367607689E+03  0.00000000000E+00 0. -1.
         22    1    3    3    0    0 -0.27586992074E+00 -0.10557247708E+03 -0.10374195902E+02  0.10608132711E+03  0.00000000000E+00 0.  1.
         22    1    3    3    0    0  0.39778362634E+02  0.22571632416E+02  0.18359590289E+02  0.49283580221E+02  0.00000000000E+00 0.  1.
</event>
<event>
 7    1  0.6255318E-006  0.9463105E+02  0.7818608E-02  0.1396346E+00
          2   -1    0    0  502    0  0.00000000000E+00  0.00000000000E+00  0.10453078495E+03  0.10453078495E+03  0.00000000000E+00 0. -1.
          1   -1    0    0  501    0 -0.00000000000E+00 -0.00000000000E+00 -0.49431904016E+03  0.49431904016E+03  0.00000000000E+00 0. -1.
         25    2    1    2    0    0 -0.21335783189E+02 -0.11946973279E+03 -0.16618508614E+03  0.24077162781E+03  0.12500104482E+03 0.  0.
          2    1    1    2  501    0 -0.33054529972E+01  0.89895409177E+02 -0.27757353207E+03  0.29178618253E+03  0.00000000000E+00 0. -1.
          1    1    1    2  502    0  0.24641236186E+02  0.29574323614E+02  0.53970363005E+02  0.66292014760E+02  0.00000000000E+00 0. -1.
         22    1    3    3    0    0  0.26783705899E+02 -0.43125475808E+02 -0.13671785403E+03  0.14583876431E+03  0.00000000000E+00 0. -1.
         22    1    3    3    0    0 -0.48119489088E+02 -0.76344256983E+02 -0.29467232110E+02  0.94932863502E+02  0.00000000000E+00 0. -1.
</event>
<event>
 7    1  0.6255318E-006  0.1746225E+03  0.7818608E-02  0.1369254E+00
          2   -1    0    0  502    0  0.00000000000E+00  0.00000000000E+00  0.40673987900E+03  0.40673987900E+03  0.00000000000E+00 0. -1.
          1   -1    0    0  501    0 -0.00000000000E+00 -0.00000000000E+00 -0.29953450047E+04  0.29953450047E+04  0.00000000000E+00 0. -1.
         25    2    1    2    0    0  0.10825395953E+03 -0.15632068911E+03 -0.57949331522E+03  0.62256799944E+03  0.12499333559E+03 0.  0.
          2    1    1    2  501    0 -0.11260825574E+03  0.13069245997E+03 -0.23907641473E+04  0.23969802557E+04  0.00000000000E+00 0. -1.
          1    1    1    2  502    0  0.43542962116E+01  0.25628229143E+02  0.38165233678E+03  0.38253662856E+03  0.00000000000E+00 0. -1.
         22    1    3    3    0    0  0.98387493030E+02 -0.61677054751E+02 -0.42963514793E+03  0.44505114112E+03  0.00000000000E+00 0.  1.
         22    1    3    3    0    0  0.98664664980E+01 -0.94643634363E+02 -0.14985816729E+03  0.17751685832E+03  0.00000000000E+00 0.  1.
</event>
<event>
 7    1  0.6255318E-006  0.7217783E+02  0.7818608E-02  0.1406144E+00
          2   -1    0    0  502    0  0.00000000000E+00  0.00000000000E+00  0.44114861812E+03  0.44114861812E+03  0.00000000000E+00 0. -1.
          1   -1    0    0  501    0 -0.00000000000E+00 -0.00000000000E+00 -0.17542230623E+03  0.17542230623E+03  0.00000000000E+00 0. -1.
         25    2    1    2    0    0  0.63461454236E+02 -0.15191666756E+02 -0.43733714947E+02  0.14763420378E+03  0.12500030956E+03 0.  0.
          2    1    1    2  501    0 -0.72320021001E+02 -0.30669221158E+02 -0.58550274773E+02  0.97974084533E+02  0.00000000000E+00 0. -1.
          1    1    1    2  502    0  0.88585667646E+01  0.45860887914E+02  0.36801030161E+03  0.37096263603E+03  0.00000000000E+00 0. -1.
         22    1    3    3    0    0  0.52697859112E+02 -0.68342624530E+02 -0.20912826274E+02  0.88798226251E+02  0.00000000000E+00 0.  1.
         22    1    3    3    0    0  0.10763595125E+02  0.53150957774E+02 -0.22820888672E+02  0.58835977531E+02  0.00000000000E+00 0.  1.
</event>
<event>
 7    1  0.6255318E-006  0.1193916E+03  0.7818608E-02  0.1334808E+00
          2   -1    0    0  502    0  0.00000000000E+00  0.00000000000E+00  0.16288065828E+04  0.16288065828E+04  0.00000000000E+00 0. -1.
          1   -1    0    0  501    0 -0.00000000000E+00 -0.00000000000E+00 -0.27977836602E+03  0.27977836602E+03  0.00000000000E+00 0. -1.
         25    2    1    2    0    0  0.91238088560E+02  0.24969298349E+01 -0.13303380799E+02  0.15534636123E+03  0.12499955417E+03 0.  0.
          2    1    1    2  501    0 -0.12137327816E+03 -0.43598977502E+02 -0.17371070729E+03  0.21635099564E+03  0.00000000000E+00 0. -1.
          1    1    1    2  502    0  0.30135189595E+02  0.41102047667E+02  0.15360423049E+04  0.15368875920E+04  0.00000000000E+00 0. -1.
         22    1    3    3    0    0  0.15502613699E+02 -0.16231696314E+02 -0.60248946251E+02  0.64294125090E+02  0.00000000000E+00 0.  1.
         22    1    3    3    0    0  0.75735474861E+02  0.18728626149E+02  0.46945565452E+02  0.91052236137E+02  0.00000000000E+00 0.  1.
</event>
<event>
 7    1  0.6255318E-006  0.3698553E+03  0.7818608E-02  0.1148810E+00
          2   -1    0    0  502    0  0.00000000000E+00  0.00000000000E+00  0.16672185345E+04  0.16672185345E+04  0.00000000000E+00 0. -1.
          1   -1    0    0  501    0 -0.00000000000E+00 -0.00000000000E+00 -0.13218391859E+04  0.13218391859E+04  0.00000000000E+00 0. -1.
         25    2    1    2    0    0 -0.21229413388E+03 -0.34397409102E+03  0.56284743868E+03  0.70413703418E+03  0.12499899641E+03 0.  0.
          2    1    1    2  501    0 -0.48755539029E+02  0.97877667874E+02 -0.12175424112E+04  0.12224429081E+04  0.00000000000E+00 0. -1.
          1    1    1    2  502    0  0.26104967291E+03  0.24609642315E+03  0.10000743211E+04  0.10624777781E+04  0.00000000000E+00 0. -1.
         22    1    3    3    0    0 -0.21995387133E+03 -0.27475677439E+03  0.49063373196E+03  0.60381491330E+03  0.00000000000E+00 0. -1.
         22    1    3    3    0    0  0.76597374540E+01 -0.69217316635E+02  0.72213706717E+02  0.10032212088E+03  0.00000000000E+00 0. -1.
</event>
<event>
 7    1  0.6255318E-006  0.1695078E+03  0.7818608E-02  0.1249560E+00
          2   -1    0    0  502    0  0.00000000000E+00  0.00000000000E+00  0.12295850218E+03  0.12295850218E+03  0.00000000000E+00 0. -1.
          1   -1    0    0  501    0 -0.00000000000E+00 -0.00000000000E+00 -0.10054118967E+04  0.10054118967E+04  0.00000000000E+00 0. -1.
         25    2    1    2    0    0 -0.88767478932E+02  0.10044553611E+03 -0.15639510513E+03  0.24094138475E+03  0.12499740371E+03 0.  0.
          2    1    1    2  501    0  0.13735796570E+02  0.78415432279E+02 -0.68443827527E+03  0.68905254138E+03  0.00000000000E+00 0. -1.
          1    1    1    2  502    0  0.75031682362E+02 -0.17886096839E+03 -0.41620014133E+02  0.19837647277E+03  0.00000000000E+00 0. -1.
         22    1    3    3    0    0 -0.74272630460E+02 -0.21027431598E+01 -0.94774180580E+02  0.12042836239E+03  0.00000000000E+00 0. -1.
         22    1    3    3    0    0 -0.14494848472E+02  0.10254827927E+03 -0.61620924551E+02  0.12051302235E+03  0.00000000000E+00 0. -1.
</event>
<event>
 7    1  0.6255318E-006  0.1203659E+03  0.7818608E-02  0.1255509E+00
          2   -1    0    0  502    0  0.00000000000E+00  0.00000000000E+00  0.15463274298E+04  0.15463274298E+04  0.00000000000E+00 0. -1.
          1   -1    0    0  501    0 -0.00000000000E+00 -0.00000000000E+00 -0.54629183576E+03  0.54629183576E+03  0.00000000000E+00 0. -1.
         25    2    1    2    0    0  0.51765502455E+02  0.20317898776E+02  0.76321246400E+03  0.77538062941E+03  0.12501748278E+03 0.  0.
          2    1    1    2  501    0 -0.16775342246E+02 -0.12002652945E+03 -0.52974007525E+03  0.54342646899E+03  0.00000000000E+00 0. -1.
          1    1    1    2  502    0 -0.34990160209E+02  0.99708630676E+02  0.76656320531E+03  0.77381216718E+03  0.00000000000E+00 0. -1.
         22    1    3    3    0    0 -0.28011183939E+02 -0.31101069230E+02  0.22308442802E+03  0.22697701416E+03  0.00000000000E+00 0. -1.
         22    1    3    3    0    0  0.79776686394E+02  0.51418968006E+02  0.54012803598E+03  0.54840361525E+03  0.00000000000E+00 0. -1.
</event>
<event>
 7    1  0.6255318E-006  0.2473333E+03  0.7818608E-02  0.1192285E+00
          2   -1    0    0  502    0  0.00000000000E+00  0.00000000000E+00  0.10351406676E+04  0.10351406676E+04  0.00000000000E+00 0. -1.
          1   -1    0    0  501    0 -0.00000000000E+00 -0.00000000000E+00 -0.74989074001E+03  0.74989074001E+03  0.00000000000E+00 0. -1.
         25    2    1    2    0    0  0.31159711481E+02  0.19934238430E+03  0.33724534465E+03  0.41239203685E+03  0.12499782307E+03 0.  0.
          2    1    1    2  501    0  0.70814677205E+02  0.69874176994E+02 -0.67713193811E+03  0.68440103793E+03  0.00000000000E+00 0. -1.
          1    1    1    2  502    0 -0.10197438869E+03 -0.26921656129E+03  0.62513652108E+03  0.68823833285E+03  0.00000000000E+00 0. -1.
         22    1    3    3    0    0 -0.31559281509E+02  0.10057936724E+03  0.89007604558E+02  0.13796576036E+03  0.00000000000E+00 0. -1.
         22    1    3    3    0    0  0.62718992991E+02  0.98763017058E+02  0.24823774009E+03  0.27442627649E+03  0.00000000000E+00 0. -1.
</event>
<event>
 7    1  0.6255318E-006  0.1195771E+03  0.7818608E-02  0.1338326E+00
          2   -1    0    0  502    0  0.00000000000E+00  0.00000000000E+00  0.20465514497E+04  0.20465514497E+04  0.00000000000E+00 0. -1.
          1   -1    0    0  501    0 -0.00000000000E+00 -0.00000000000E+00 -0.35448331345E+03  0.35448331345E+03  0.00000000000E+00 0. -1.
         25    2    1    2    0    0  0.52657559329E+00 -0.11463232990E+03  0.41221623521E+03  0.44574428036E+03  0.12499956228E+03 0.  0.
          2    1    1    2  501    0 -0.49580258716E+02  0.10921686236E+03 -0.32667863799E+03  0.34800209424E+03  0.00000000000E+00 0. -1.
          1    1    1    2  502    0  0.49053683122E+02  0.54154675377E+01  0.16065305391E+04  0.16072883886E+04  0.00000000000E+00 0. -1.
         22    1    3    3    0    0  0.30542425828E+02 -0.10134417932E+03  0.16284254741E+03  0.19421940609E+03  0.00000000000E+00 0. -1.
         22    1    3    3    0    0 -0.30015850235E+02 -0.13288150580E+02  0.24937368780E+03  0.25152487427E+03  0.00000000000E+00 0. -1.
</event>
<event>
 7    1  0.6255318E-006  0.4957194E+02  0.7818608E-02  0.1512528E+00
          2   -1    0    0  502    0  0.00000000000E+00  0.00000000000E+00  0.39581209373E+03  0.39581209373E+03  0.00000000000E+00 0. -1.
          1   -1    0    0  501    0 -0.00000000000E+00 -0.00000000000E+00 -0.21935504101E+03  0.21935504101E+03  0.00000000000E+00 0. -1.
         25    2    1    2    0    0 -0.50835257257E+02  0.60751040421E+02  0.99708590434E+02  0.17844059077E+03  0.12499731651E+03 0.  0.
          2    1    1    2  501    0  0.20668536635E+02 -0.23566681426E+02 -0.17636240945E+03  0.17912642560E+03  0.00000000000E+00 0. -1.
          1    1    1    2  502    0  0.30166720622E+02 -0.37184358995E+02  0.25311087174E+03  0.25760011836E+03  0.00000000000E+00 0. -1.
         22    1    3    3    0    0  0.15474161710E+02  0.53716943616E+02 -0.30031488177E+01  0.55981949009E+02  0.00000000000E+00 0.  1.
         22    1    3    3    0    0 -0.66309418966E+02  0.70340968051E+01  0.10271173925E+03  0.12245864176E+03  0.00000000000E+00 0.  1.
</event>
<event>
 7    1  0.6255318E-006  0.1242658E+03  0.7818608E-02  0.1254328E+00
          2   -1    0    0  502    0  0.00000000000E+00  0.00000000000E+00  0.49464135077E+03  0.49464135077E+03  0.00000000000E+00 0. -1.
          1   -1    0    0  501    0 -0.00000000000E+00 -0.00000000000E+00 -0.48920994501E+03  0.48920994501E+03  0.00000000000E+00 0. -1.
         25    2    1    2    0    0  0.86928181130E+02  0.52250436703E+02 -0.25001210276E+03  0.29735182176E+03  0.12500175026E+03 0.  0.
          2    1    1    2  501    0 -0.11860417519E+03  0.67910365674E+02 -0.18435078338E+03  0.22948633831E+03  0.00000000000E+00 0. -1.
          1    1    1    2  502    0  0.31675994063E+02 -0.12016080238E+03  0.43979429190E+03  0.45701313571E+03  0.00000000000E+00 0. -1.
         22    1    3    3    0    0  0.45553845978E+02  0.60712004235E+02 -0.24295523431E+03  0.25453555001E+03  0.00000000000E+00 0. -1.
         22    1    3    3    0    0  0.41374335153E+02 -0.84615675319E+01 -0.70568684534E+01  0.42816271753E+02  0.00000000000E+00 0. -1.
</event>
<event>
 7    1  0.6255318E-006  0.8941152E+02  0.7818608E-02  0.1371778E+00
          2   -1    0    0  502    0  0.00000000000E+00  0.00000000000E+00  0.24304455787E+04  0.24304455787E+04  0.00000000000E+00 0. -1.
          1   -1    0    0  501    0 -0.00000000000E+00 -0.00000000000E+00 -0.16413692729E+03  0.16413692729E+03  0.00000000000E+00 0. -1.
         25    2    1    2    0    0 -0.34383422528E+02 -0.12949360605E+03  0.75788734038E+03  0.77972225768E+03  0.12499105836E+03 0.  0.
          2    1    1    2  501    0  0.62726129104E+01  0.88482227896E+02 -0.13997460598E+03  0.16571463618E+03  0.00000000000E+00 0. -1.
          1    1    1    2  502    0  0.28110809618E+02  0.41011378157E+02  0.16483959170E+04  0.16491456121E+04  0.00000000000E+00 0. -1.
         22    1    3    3    0    0  0.21754119137E+02  0.14125498753E+02  0.16909171363E+03  0.17106951521E+03  0.00000000000E+00 0. -1.
         22    1    3    3    0    0 -0.56137541665E+02 -0.14361910481E+03  0.58879562674E+03  0.60865274248E+03  0.00000000000E+00 0. -1.
</event>
<event>
 7    1  0.6255318E-006  0.5296943E+02  0.7818608E-02  0.1519266E+00
          2   -1    0    0  502    0  0.00000000000E+00  0.00000000000E+00  0.44587064082E+03  0.44587064082E+03  0.00000000000E+00 0. -1.
          1   -1    0    0  501    0 -0.00000000000E+00 -0.00000000000E+00 -0.10023581700E+04  0.10023581700E+04  0.00000000000E+00 0. -1.
         25    2    1    2    0    0 -0.16802256812E+02  0.28986699806E+02 -0.13205447648E+03  0.18489596966E+03  0.12500236093E+03 0.  0.
          2    1    1    2  501    0  0.33858213549E+01 -0.53604264659E+02 -0.84255838358E+03  0.84426862474E+03  0.00000000000E+00 0. -1.
          1    1    1    2  502    0  0.13416435457E+02  0.24617564853E+02  0.41812533084E+03  0.41906421647E+03  0.00000000000E+00 0. -1.
         22    1    3    3    0    0  0.52140972091E+02  0.28162213842E+02 -0.48574042647E+02  0.76623944549E+02  0.00000000000E+00 0. -1.
         22    1    3    3    0    0 -0.68943228904E+02  0.82448596390E+00 -0.83480433831E+02  0.10827202511E+03  0.00000000000E+00 0. -1.
</event>
<event>
 7    1  0.6255318E-006  0.2220272E+03  0.7818608E-02  0.1259013E+00
          2   -1    0    0  502    0  0.00000000000E+00  0.00000000000E+00  0.41287590828E+03  0.41287590828E+03  0.00000000000E+00 0. -1.
          1   -1    0    0  501    0 -0.00000000000E+00 -0.00000000000E+00 -0.52367076305E+03  0.52367076305E+03  0.00000000000E+00 0. -1.
         25    2    1    2    0    0 -0.21125692844E+03 -0.56041472560E+02  0.18630525350E+02  0.25247219925E+03  0.12499991383E+03 0.  0.
          2    1    1    2  501    0  0.22408224111E+03  0.22097825899E+01 -0.37253759241E+03  0.43474359303E+03  0.00000000000E+00 0. -1.
          1    1    1    2  502    0 -0.12825312678E+02  0.53831689970E+02  0.24311221229E+03  0.24933087906E+03  0.00000000000E+00 0. -1.
         22    1    3    3    0    0 -0.20806950057E+02 -0.41177708232E+02 -0.30400039657E+02  0.55251201227E+02  0.00000000000E+00 0.  1.
         22    1    3    3    0    0 -0.19044997838E+03 -0.14863764328E+02  0.49030565007E+02  0.19722099802E+03  0.00000000000E+00 0.  1.
</event>
<event>
 7    1  0.6255318E-006  0.5407279E+02  0.7818608E-02  0.1456911E+00
          2   -1    0    0  502    0  0.00000000000E+00  0.00000000000E+00  0.76915482971E+03  0.76915482971E+03  0.00000000000E+00 0. -1.
          1   -1    0    0  501    0 -0.00000000000E+00 -0.00000000000E+00 -0.13819481206E+03  0.13819481206E+03  0.00000000000E+00 0. -1.
         25    2    1    2    0    0  0.24681384008E+02  0.44382561261E+02  0.81887112796E+02  0.15782594062E+03  0.12499818331E+03 0.  0.
          2    1    1    2  501    0 -0.41788781856E+02  0.75318982833E+01 -0.94516857887E+02  0.10361693011E+03  0.00000000000E+00 0. -1.
          1    1    1    2  502    0  0.17107397847E+02 -0.51914459544E+02  0.64358976274E+03  0.64590677104E+03  0.00000000000E+00 0. -1.
         22    1    3    3    0    0  0.72258047228E+02  0.14355080581E+02  0.67117162245E+02  0.99659456127E+02  0.00000000000E+00 0.  1.
         22    1    3    3    0    0 -0.47576663220E+02  0.30027480679E+02  0.14769950551E+02  0.58166484493E+02  0.00000000000E+00 0.  1.
</event>
<event>
 7    1  0.6255318E-006  0.8133421E+02  0.7818608E-02  0.1436701E+00
          2   -1    0    0  502    0  0.00000000000E+00  0.00000000000E+00  0.20369227078E+04  0.20369227078E+04  0.00000000000E+00 0. -1.
          1   -1    0    0  501    0 -0.00000000000E+00 -0.00000000000E+00 -0.31089227639E+02  0.31089227639E+02  0.00000000000E+00 0. -1.
         25    2    1    2    0    0  0.25887437720E+02 -0.44713880904E+02  0.34177382508E+03  0.36756616700E+03  0.12500419605E+03 0.  0.
          2    1    1    2  501    0  0.85909371179E+01 -0.31638917895E+02 -0.14632781560E+01  0.32817167902E+02  0.00000000000E+00 0. -1.
          1    1    1    2  502    0 -0.34478374838E+02  0.76352798799E+02  0.16655229332E+04  0.16676286005E+04  0.00000000000E+00 0. -1.
         22    1    3    3    0    0  0.21649785079E+02 -0.85370312458E+02  0.17573334731E+03  0.19656808693E+03  0.00000000000E+00 0.  1.
         22    1    3    3    0    0  0.42376526409E+01  0.40656431555E+02  0.16604047777E+03  0.17099808007E+03  0.00000000000E+00 0.  1.
</event>
<event>
 7    1  0.6255318E-006  0.6506714E+02  0.7818608E-02  0.1424012E+00
          2   -1    0    0  502    0  0.00000000000E+00  0.00000000000E+00  0.22246299059E+04  0.22246299059E+04  0.00000000000E+00 0. -1.
          1   -1    0    0  501    0 -0.00000000000E+00 -0.00000000000E+00 -0.91249030183E+03  0.91249030183E+03  0.00000000000E+00 0. -1.
         25    2    1    2    0    0 -0.95091403484E+02 -0.39100887912E+02  0.34038804473E+02  0.16539551702E+03  0.12500312951E+03 0.  0.
          2    1    1    2  501    0  0.30543193931E+02  0.33205056976E+02 -0.84571625240E+03  0.84691879309E+03  0.00000000000E+00 0. -1.
          1    1    1    2  502    0  0.64548209553E+02  0.58958309357E+01  0.21238170520E+04  0.21248058976E+04  0.00000000000E+00 0. -1.
         22    1    3    3    0    0 -0.10947053703E+03 -0.24985062756E+02 -0.14140375330E+02  0.11317244388E+03  0.00000000000E+00 0.  1.
         22    1    3    3    0    0  0.14379133551E+02 -0.14115825156E+02  0.48179179803E+02  0.52223073139E+02  0.00000000000E+00 0.  1.
</event>
<event>
 7    1  0.6255318E-006  0.1150460E+03  0.7818608E-02  0.1280132E+00
          2   -1    0    0  502    0  0.00000000000E+00  0.00000000000E+00  0.90418485462E+03  0.90418485462E+03  0.00000000000E+00 0. -1.
          1   -1    0    0  501    0 -0.00000000000E+00 -0.00000000000E+00 -0.65248269036E+03  0.65248269036E+03  0.00000000000E+00 0. -1.
         25    2    1    2    0    0 -0.14048599029E+03 -0.10083286769E+03 -0.24445912110E+03  0.32448601194E+03  0.12500931720E+03 0.  0.
          2    1    1    2  501    0  0.53947550197E+02  0.91341831621E+02 -0.35810669800E+03  0.37348905678E+03  0.00000000000E+00 0. -1.
          1    1    1    2  502    0  0.86538440097E+02  0.94910360688E+01  0.85426798336E+03  0.85869247625E+03  0.00000000000E+00 0. -1.
         22    1    3    3    0    0 -0.72372707444E+02 -0.11759203169E+03 -0.19381049746E+03  0.23796681202E+03  0.00000000000E+00 0. -1.
         22    1    3    3    0    0 -0.68113282850E+02  0.16759164000E+02 -0.50648623637E+02  0.86519199921E+02  0.00000000000E+00 0. -1.
</event>
<event>
 7    1  0.6255318E-006  0.5949597E+02  0.7818608E-02  0.1441979E+00
          2   -1    0    0  502    0  0.00000000000E+00  0.00000000000E+00  0.14066541686E+03  0.14066541686E+03  0.00000000000E+00 0. -1.
          1   -1    0    0  501    0 -0.00000000000E+00 -0.00000000000E+00 -0.20580873206E+03  0.20580873206E+03  0.00000000000E+00 0. -1.
         25    2    1    2    0    0  0.20435279259E+02 -0.56664561375E+02  0.30035988614E+02  0.14196918928E+03  0.12499846775E+03 0.  0.
          2    1    1    2  501    0 -0.43021122331E+02 -0.23150004178E+01 -0.12676819873E+03  0.13388932894E+03  0.00000000000E+00 0. -1.
          1    1    1    2  502    0  0.22585843071E+02  0.58979561792E+02  0.31588894915E+02  0.70615630695E+02  0.00000000000E+00 0. -1.
         22    1    3    3    0    0  0.68632554550E+02 -0.96765501655E+01  0.27627195449E+02  0.74614509953E+02  0.00000000000E+00 0. -1.
         22    1    3    3    0    0 -0.48197275291E+02 -0.46988011209E+02  0.24087931658E+01  0.67354679328E+02  0.00000000000E+00 0. -1.
</event>
<event>
 7    1  0.6255318E-006  0.1239163E+03  0.7818608E-02  0.1390593E+00
          2   -1    0    0  502    0  0.00000000000E+00  0.00000000000E+00  0.72209128703E+03  0.72209128703E+03  0.00000000000E+00 0. -1.
          1   -1    0    0  501    0 -0.00000000000E+00 -0.00000000000E+00 -0.72788425899E+03  0.72788425899E+03  0.00000000000E+00 0. -1.
         25    2    1    2    0    0 -0.14950198901E+03 -0.23756696255E+02  0.48103075857E+02  0.20212698075E+03  0.12500474033E+03 0.  0.
          2    1    1    2  501    0  0.30669624914E+02 -0.26121777274E+01 -0.64429627576E+03  0.64503111577E+03  0.00000000000E+00 0. -1.
          1    1    1    2  502    0  0.11883236409E+03  0.26368873983E+02  0.59040022794E+03  0.60281744950E+03  0.00000000000E+00 0. -1.
         22    1    3    3    0    0 -0.14834444280E+03 -0.59996104834E+02  0.37544482702E+02  0.16436299609E+03  0.00000000000E+00 0. -1.
         22    1    3    3    0    0 -0.11575462119E+01  0.36239408579E+02  0.10558593155E+02  0.37763984652E+02  0.00000000000E+00 0. -1.
</event>
<event>
 7    1  0.6255318E-006  0.1834325E+03  0.7818608E-02  0.1323521E+00
          2   -1    0    0  502    0  0.00000000000E+00  0.00000000000E+00  0.72818263817E+03  0.72818263817E+03  0.00000000000E+00 0. -1.
          1   -1    0    0  501    0 -0.00000000000E+00 -0.00000000000E+00 -0.11535410576E+04  0.11535410576E+04  0.00000000000E+00 0. -1.
         25    2    1    2    0    0 -0.96479447948E+02 -0.11426266531E+03  0.45090058235E+03  0.49122445266E+03  0.12500354860E+03 0.  0.
          2    1    1    2  501    0  0.10774070943E+03  0.14912895821E+03 -0.11245598134E+04  0.11395096667E+04  0.00000000000E+00 0. -1.
          1    1    1    2  502    0 -0.11261261478E+02 -0.34866292904E+02  0.24830081163E+03  0.25098957637E+03  0.00000000000E+00 0. -1.
         22    1    3    3    0    0 -0.71264365117E+02 -0.86311005239E+02  0.14579471505E+03  0.18380505514E+03  0.00000000000E+00 0.  1.
         22    1    3    3    0    0 -0.25215082832E+02 -0.27951660066E+02  0.30510586730E+03  0.30741939751E+03  0.00000000000E+00 0.  1.
</event>
<event>
 7    1  0.6255318E-006  0.7641641E+02  0.7818608E-02  0.1372144E+00
          2   -1    0    0  502    0  0.00000000000E+00  0.00000000000E+00  0.53342445468E+02  0.53342445468E+02  0.00000000000E+00 0. -1.
          1   -1    0    0  501    0 -0.00000000000E+00 -0.00000000000E+00 -0.11464164224E+04  0.11464164224E+04  0.00000000000E+00 0. -1.
         25    2    1    2    0    0 -0.98879251283E+02  0.16799198359E+02 -0.69908415822E+03  0.71721867778E+03  0.12499860829E+03 0.  0.
          2    1    1    2  501    0  0.44846180753E+02  0.36781593992E+02 -0.40187379561E+03  0.40603769921E+03  0.00000000000E+00 0. -1.
          1    1    1    2  502    0  0.54033070529E+02 -0.53580792351E+02  0.78839768933E+01  0.76502490884E+02  0.00000000000E+00 0. -1.
         22    1    3    3    0    0  0.15304241306E+02 -0.21536303133E+02 -0.45379675937E+02  0.52510447939E+02  0.00000000000E+00 0. -1.
         22    1    3    3    0    0 -0.11418349259E+03  0.38335501492E+02 -0.65370448228E+03  0.66470822984E+03  0.00000000000E+00 0. -1.
</event>
<event>
 7    1  0.6255318E-006  0.7025131E+02  0.7818608E-02  0.1515056E+00
          2   -1    0    0  502    0  0.00000000000E+00  0.00000000000E+00  0.15066017763E+03  0.15066017763E+03  0.00000000000E+00 0. -1.
          1   -1    0    0  501    0 -0.00000000000E+00 -0.00000000000E+00 -0.92012041804E+03  0.92012041804E+03  0.00000000000E+00 0. -1.
         25    2    1    2    0    0  0.34251131898E+02 -0.36949319545E+02 -0.98054582121E+02  0.16666721646E+03  0.12499947087E+03 0.  0.
          2    1    1    2  501    0  0.17170173913E+02 -0.13343108265E+02 -0.77647691453E+03  0.77678134131E+03  0.00000000000E+00 0. -1.
          1    1    1    2  502    0 -0.51421305812E+02  0.50292427810E+02  0.10507125625E+03  0.12733203790E+03  0.00000000000E+00 0. -1.
         22    1    3    3    0    0  0.37829773677E+02 -0.81592477858E+02 -0.63326314787E+02  0.10999384694E+03  0.00000000000E+00 0. -1.
         22    1    3    3    0    0 -0.35786417784E+01  0.44643158313E+02 -0.34728267334E+02  0.56673369524E+02  0.00000000000E+00 0. -1.
</event>
<event>
 7    1  0.6255318E-006  0.2213964E+03  0.7818608E-02  0.1204169E+00
          2   -1    0    0  502    0  0.00000000000E+00  0.00000000000E+00  0.12826509385E+04  0.12826509385E+04  0.00000000000E+00 0. -1.
          1   -1    0    0  501    0 -0.00000000000E+00 -0.00000000000E+00 -0.19474425047E+04  0.19474425047E+04  0.00000000000E+00 0. -1.
         25    2    1    2    0    0 -0.11795665509E+03 -0.92828376263E+02 -0.64931623384E+02  0.20584534940E+03  0.12500124894E+03 0.  0.
          2    1    1    2  501    0 -0.96316033604E+02  0.16054950239E+02 -0.18000345588E+04  0.18026810457E+04  0.00000000000E+00 0. -1.
          1    1    1    2  502    0  0.21427268870E+03  0.76773426024E+02  0.12001746160E+04  0.12215670481E+04  0.00000000000E+00 0. -1.
         22    1    3    3    0    0 -0.80666445545E+01 -0.10528311183E+01  0.31952794651E+02  0.32972113880E+02  0.00000000000E+00 0.  1.
         22    1    3    3    0    0 -0.10989001054E+03 -0.91775545145E+02 -0.96884418035E+02  0.17287323552E+03  0.00000000000E+00 0.  1.
</event>
<event>
 7    1  0.6255318E-006  0.2483832E+02  0.7818608E-02  0.1677894E+00
          2   -1    0    0  502    0  0.00000000000E+00  0.00000000000E+00  0.40722681580E+03  0.40722681580E+03  0.00000000000E+00 0. -1.
          1   -1    0    0  501    0 -0.00000000000E+00 -0.00000000000E+00 -0.10958782845E+03  0.10958782845E+03  0.00000000000E+00 0. -1.
         25    2    1    2    0    0  0.34979428511E+02  0.15074149921E+02  0.62197776610E+02  0.14472036893E+03  0.12499852541E+03 0.  0.
          2    1    1    2  501    0 -0.22105697949E+02  0.60761932360E+01 -0.65881287419E+02  0.69756189963E+02  0.00000000000E+00 0. -1.
          1    1    1    2  502    0 -0.12873730561E+02 -0.21150343157E+02  0.30132249816E+03  0.30233808535E+03  0.00000000000E+00 0. -1.
         22    1    3    3    0    0  0.62819298186E+02  0.43636752432E+02  0.70451334169E+02  0.10398952290E+03  0.00000000000E+00 0. -1.
         22    1    3    3    0    0 -0.27839869675E+02 -0.28562602511E+02 -0.82535575591E+01  0.40730846028E+02  0.00000000000E+00 0. -1.
</event>
<event>
 7    1  0.6255318E-006  0.1201346E+03  0.7818608E-02  0.1260116E+00
          2   -1    0    0  502    0  0.00000000000E+00  0.00000000000E+00  0.22532773725E+04  0.22532773725E+04  0.00000000000E+00 0. -1.
          1   -1    0    0  501    0 -0.00000000000E+00 -0.00000000000E+00 -0.21756019487E+03  0.21756019487E+03  0.00000000000E+00 0. -1.
         25    2    1    2    0    0  0.13372033580E+02  0.34578274101E+02 -0.67781106389E+02  0.14694999063E+03  0.12500221215E+03 0.  0.
          2    1    1    2  501    0  0.10092496973E+03  0.70444340293E+01 -0.84922851082E+02  0.13208847112E+03  0.00000000000E+00 0. -1.
          1    1    1    2  502    0 -0.11429700331E+03 -0.41622708130E+02  0.21884211351E+04  0.21917991056E+04  0.00000000000E+00 0. -1.
         22    1    3    3    0    0 -0.47787030487E+02 -0.62061370097E-01  0.21026067714E+01  0.47833305234E+02  0.00000000000E+00 0. -1.
         22    1    3    3    0    0  0.61159064068E+02  0.34640335471E+02 -0.69883713161E+02  0.99116685398E+02  0.00000000000E+00 0. -1.
</event>
<event>
 7    1  0.6255318E-006  0.7525930E+02  0.7818608E-02  0.1436878E+00
          2   -1    0    0  502    0  0.00000000000E+00  0.00000000000E+00  0.84006156519E+03  0.84006156519E+03  0.00000000000E+00 0. -1.
          1   -1    0    0  501    0 -0.00000000000E+00 -0.00000000000E+00 -0.47098533887E+03  0.47098533887E+03  0.00000000000E+00 0. -1.
         25    2    1    2    0    0 -0.69604921839E+02 -0.10440645260E+01 -0.48892500101E+02  0.15118896960E+03  0.12498677029E+03 0.  0.
          2    1    1    2  501    0  0.67049727256E+02  0.36335333798E+02 -0.36662198340E+03  0.37446975996E+03  0.00000000000E+00 0. -1.
          1    1    1    2  502    0  0.25551945837E+01 -0.35291269272E+02  0.78459070982E+03  0.78538817450E+03  0.00000000000E+00 0. -1.
         22    1    3    3    0    0  0.19039611242E+02  0.22618046342E+02 -0.51523107491E+02  0.59402974859E+02  0.00000000000E+00 0.  1.
         22    1    3    3    0    0 -0.88644533082E+02 -0.23662110868E+02  0.26306073901E+01  0.91785994745E+02  0.00000000000E+00 0.  1.
</event>
<event>
 7    1  0.6255318E-006  0.1176186E+03  0.7818608E-02  0.1393366E+00
          2   -1    0    0  502    0  0.00000000000E+00  0.00000000000E+00  0.30792572614E+03  0.30792572614E+03  0.00000000000E+00 0. -1.
          1   -1    0    0  501    0 -0.00000000000E+00 -0.00000000000E+00 -0.21575435908E+04  0.21575435908E+04  0.00000000000E+00 0. -1.
         25    2    1    2    0    0  0.12895046563E+03 -0.30239390584E+01 -0.44355323778E+03  0.47854104718E+03  0.12499876919E+03 0.  0.
          2    1    1    2  501    0 -0.14287823756E+02  0.28315814986E+02 -0.16844732184E+04  0.16847717800E+04  0.00000000000E+00 0. -1.
          1    1    1    2  502    0 -0.11466264188E+03 -0.25291875928E+02  0.27840859154E+03  0.30215648971E+03  0.00000000000E+00 0. -1.
         22    1    3    3    0    0  0.60183134358E+02  0.48811467449E+02 -0.11343577967E+03  0.13737629026E+03  0.00000000000E+00 0. -1.
         22    1    3    3    0    0  0.68767331276E+02 -0.51835406507E+02 -0.33011745810E+03  0.34116475692E+03  0.00000000000E+00 0. -1.
</event>
<event>
 7    1  0.6255318E-006  0.5024105E+02  0.7818608E-02  0.1471981E+00
          2   -1    0    0  502    0  0.00000000000E+00  0.00000000000E+00  0.10961248413E+04  0.10961248413E+04  0.00000000000E+00 0. -1.
          1   -1    0    0  501    0 -0.00000000000E+00 -0.00000000000E+00 -0.31222355137E+03  0.31222355137E+03  0.00000000000E+00 0. -1.
         25    2    1    2    0    0 -0.17982107921E+02 -0.45969645979E+02 -0.81742567468E+02  0.15729810007E+03  0.12499712154E+03 0.  0.
          2    1    1    2  501    0 -0.29284173832E+02  0.28681290827E+02 -0.18991708976E+03  0.19429019600E+03  0.00000000000E+00 0. -1.
          1    1    1    2  502    0  0.47266281753E+02  0.17288355151E+02  0.10555609472E+04  0.10567600966E+04  0.00000000000E+00 0. -1.
         22    1    3    3    0    0 -0.25098481203E+02 -0.37442991864E+02  0.23935914246E+02  0.51037627191E+02  0.00000000000E+00 0.  1.
         22    1    3    3    0    0  0.71163732822E+01 -0.85266541145E+01 -0.10567848171E+03  0.10626047288E+03  0.00000000000E+00 0.  1.
</event>
<event>
 7    1  0.6255318E-006  0.1923912E+03  0.7818608E-02  0.1222933E+00
          2   -1    0    0  502    0  0.00000000000E+00  0.00000000000E+00  0.99255009290E+03  0.99255009290E+03  0.00000000000E+00 0. -1.
          1   -1    0    0  501    0 -0.00000000000E+00 -0.00000000000E+00 -0.67887067380E+03  0.67887067380E+03  0.00000000000E+00 0. -1.
         25    2    1    2    0    0  0.79778863713E+01  0.16942153294E+03 -0.39431719304E+03  0.44707672149E+03  0.12499697469E+03 0.  0.
          2    1    1    2  501    0  0.45488506591E+02 -0.24438266870E+03 -0.19545077088E+03  0.31621685096E+03  0.00000000000E+00 0. -1.
          1    1    1    2  502    0 -0.53466392962E+02  0.74961135766E+02  0.90344738301E+03  0.90812719424E+03  0.00000000000E+00 0. -1.
         22    1    3    3    0    0 -0.32180922938E+02  0.16495887633E+02 -0.21385971249E+02  0.42012925109E+02  0.00000000000E+00 0. -1.
         22    1    3    3    0    0  0.40158809309E+02  0.15292564530E+03 -0.37293122179E+03  0.40506379639E+03  0.00000000000E+00 0. -1.
</event>
<event>
 7    1  0.6255318E-006  0.7285073E+02  0.7818608E-02  0.1501817E+00
          2   -1    0    0  502    0  0.00000000000E+00  0.00000000000E+00  0.91002865924E+02  0.91002865924E+02  0.00000000000E+00 0. -1.
          1   -1    0    0  501    0 -0.00000000000E+00 -0.00000000000E+00 -0.27071241084E+03  0.27071241084E+03  0.00000000000E+00 0. -1.
         25    2    1    2    0    0 -0.27193327110E+02  0.60954018856E+02 -0.16423642972E+02  0.14264144239E+03  0.12498790176E+03 0.  0.
          2    1    1    2  501    0  0.49353169178E+02 -0.55013609097E+02 -0.17737105461E+03  0.19215286495E+03  0.00000000000E+00 0. -1.
          1    1    1    2  502    0 -0.22159842067E+02 -0.59404097593E+01  0.14085152673E+02  0.26920969417E+02  0.00000000000E+00 0. -1.
         22    1    3    3    0    0  0.35897882703E+02  0.33685778274E+01 -0.40173994225E+02  0.53981062523E+02  0.00000000000E+00 0.  1.
         22    1    3    3    0    0 -0.63091209813E+02  0.57585441028E+02  0.23750351253E+02  0.88660379870E+02  0.00000000000E+00 0.  1.
</event>
<event>
 7    1  0.6255318E-006  0.6161962E+02  0.7818608E-02  0.1533368E+00
          2   -1    0    0  502    0  0.00000000000E+00  0.00000000000E+00  0.27432249455E+03  0.27432249455E+03  0.00000000000E+00 0. -1.
          1   -1    0    0  501    0 -0.00000000000E+00 -0.00000000000E+00 -0.28693359435E+03  0.28693359435E+03  0.00000000000E+00 0. -1.
         25    2    1    2    0    0 -0.44265213275E+02  0.28248149571E+00 -0.76396132389E+02  0.15303925379E+03  0.12500062102E+03 0.  0.
          2    1    1    2  501    0  0.63528143210E+02 -0.10804391551E+02 -0.16564561298E+03  0.17773865352E+03  0.00000000000E+00 0. -1.
          1    1    1    2  502    0 -0.19262929934E+02  0.10521910055E+02  0.22943064557E+03  0.23047818158E+03  0.00000000000E+00 0. -1.
         22    1    3    3    0    0  0.38851720256E+02  0.24213969310E+02 -0.31664456677E+02  0.55663365809E+02  0.00000000000E+00 0.  1.
         22    1    3    3    0    0 -0.83116933531E+02 -0.23931487814E+02 -0.44731675712E+02  0.97375887984E+02  0.00000000000E+00 0.  1.
</event>
<event>
 7    1  0.6255318E-006  0.7262120E+02  0.7818608E-02  0.1356427E+00
          2   -1    0    0  502    0  0.00000000000E+00  0.00000000000E+00  0.97430033699E+02  0.97430033699E+02  0.00000000000E+00 0. -1.
          1   -1    0    0  501    0 -0.00000000000E+00 -0.00000000000E+00 -0.25004572668E+03  0.25004572668E+03  0.00000000000E+00 0. -1.
         25    2    1    2    0    0 -0.58800176427E+02  0.23237563618E+02 -0.67376728838E+02  0.15544636088E+03  0.12500600950E+03 0.  0.
          2    1    1    2  501    0  0.37531417305E+02  0.58601487534E+02 -0.81807634036E+02  0.10740219091E+03  0.00000000000E+00 0. -1.
          1    1    1    2  502    0  0.21268759122E+02 -0.81839051152E+02 -0.34313301118E+01  0.84627208594E+02  0.00000000000E+00 0. -1.
         22    1    3    3    0    0 -0.55493857390E+02 -0.15434887105E+02 -0.92674555195E+02  0.10911634675E+03  0.00000000000E+00 0. -1.
         22    1    3    3    0    0 -0.33063190368E+01  0.38672450723E+02  0.25297826357E+02  0.46330014126E+02  0.00000000000E+00 0. -1.
</event>
<event>
 7    1  0.6255318E-006  0.8373559E+02  0.7818608E-02  0.1345159E+00
          2   -1    0    0  502    0  0.00000000000E+00  0.00000000000E+00  0.16910503326E+04  0.16910503326E+04  0.00000000000E+00 0. -1.
          1   -1    0    0  501    0 -0.00000000000E+00 -0.00000000000E+00 -0.22773852419E+03  0.22773852419E+03  0.00000000000E+00 0. -1.
         25    2    1    2    0    0  0.80454606207E+02  0.71221981613E+02  0.13102360531E+03  0.21056530808E+03  0.12500019797E+03 0.  0.
          2    1    1    2  501    0 -0.65497504158E+02  0.11123707103E+02 -0.18090473885E+03  0.19271788825E+03  0.00000000000E+00 0. -1.
          1    1    1    2  502    0 -0.14957102049E+02 -0.82345688716E+02  0.15131929420E+04  0.15155056605E+04  0.00000000000E+00 0. -1.
         22    1    3    3    0    0  0.26945752781E+02  0.77257466463E+02  0.13359011415E+03  0.15665601909E+03  0.00000000000E+00 0. -1.
         22    1    3    3    0    0  0.53508853426E+02 -0.60354848495E+01 -0.25665088361E+01  0.53909288995E+02  0.00000000000E+00 0. -1.
</event>
<event>
 7    1  0.6255318E-006  0.8866266E+02  0.7818608E-02  0.1348299E+00
          2   -1    0    0  502    0  0.00000000000E+00  0.00000000000E+00  0.44321088197E+03  0.44321088197E+03  0.00000000000E+00 0. -1.
          1   -1    0    0  501    0 -0.00000000000E+00 -0.00000000000E+00 -0.13102187742E+04  0.13102187742E+04  0.00000000000E+00 0. -1.
         25    2    1    2    0    0  0.11099856386E+03 -0.94930305667E+02 -0.30616756744E+03  0.36151955098E+03  0.12500144912E+03 0.  0.
          2    1    1    2  501    0 -0.35748597926E+02  0.49522367106E+02 -0.97075741890E+03  0.97267692141E+03  0.00000000000E+00 0. -1.
          1    1    1    2  502    0 -0.75249965931E+02  0.45407938562E+02  0.40991709415E+03  0.41923318372E+03  0.00000000000E+00 0. -1.
         22    1    3    3    0    0 -0.10972714114E+01 -0.43887090658E+00 -0.13966509831E+03  0.13967009808E+03  0.00000000000E+00 0.  1.
         22    1    3    3    0    0  0.11209583527E+03 -0.94491434761E+02 -0.16650246912E+03  0.22184945290E+03  0.00000000000E+00 0.  1.
</event>
<event>
 7    1  0.6255318E-006  0.5842353E+02  0.7818608E-02  0.1439025E+00
          2   -1    0    0  502    0  0.00000000000E+00  0.00000000000E+00  0.81694711313E+02  0.81694711313E+02  0.00000000000E+00 0. -1.
          1   -1    0    0  501    0 -0.00000000000E+00 -0.00000000000E+00 -0.13245467371E+04  0.13245467371E+04  0.00000000000E+00 0. -1.
         25    2    1    2    0    0 -0.13202123287E+02  0.14879940226E+02  0.15992935598E+02  0.12757827322E+03  0.12499893251E+03 0.  0.
          2    1    1    2  501    0  0.37601214495E+01 -0.58727640352E+02 -0.12133493897E+04  0.12147756236E+04  0.00000000000E+00 0. -1.
          1    1    1    2  502    0  0.94420018372E+01  0.43847700126E+02 -0.45495571742E+02  0.63887551629E+02  0.00000000000E+00 0. -1.
         22    1    3    3    0    0  0.54069393512E+02 -0.93368903567E+01  0.10541872970E+02  0.55873141329E+02  0.00000000000E+00 0. -1.
         22    1    3    3    0    0 -0.67271516799E+02  0.24216830583E+02  0.54510626273E+01  0.71705131892E+02  0.00000000000E+00 0. -1.
</event>
<event>
 7    1  0.6255318E-006  0.6300946E+02  0.7818608E-02  0.1440339E+00
          2   -1    0    0  502    0  0.00000000000E+00  0.00000000000E+00  0.54093665170E+03  0.54093665170E+03  0.00000000000E+00 0. -1.
          1   -1    0    0  501    0 -0.00000000000E+00 -0.00000000000E+00 -0.61111676792E+03  0.61111676792E+03  0.00000000000E+00 0. -1.
         25    2    1    2    0    0  0.59647658622E+02  0.46443060044E+02  0.16945394732E+02  0.14705457753E+03  0.12499240523E+03 0.  0.
          2    1    1    2  501    0 -0.20601061375E+02 -0.59530584492E+02 -0.54331479860E+03  0.54695453614E+03  0.00000000000E+00 0. -1.
          1    1    1    2  502    0 -0.39046597248E+02  0.13087524448E+02  0.45618928765E+03  0.45804430596E+03  0.00000000000E+00 0. -1.
         22    1    3    3    0    0  0.19265237776E+02 -0.18444998643E+02  0.55408765845E+02  0.61493891518E+02  0.00000000000E+00 0.  1.
         22    1    3    3    0    0  0.40382420846E+02  0.64888058686E+02 -0.38463371113E+02  0.85560686012E+02  0.00000000000E+00 0.  1.
</event>
<event>
 7    1  0.6255318E-006  0.3203250E+02  0.7818608E-02  0.1633237E+00
          2   -1    0    0  502    0  0.00000000000E+00  0.00000000000E+00  0.11780152819E+04  0.11780152819E+04  0.00000000000E+00 0. -1.
          1   -1    0    0  501    0 -0.00000000000E+00 -0.00000000000E+00 -0.12994741469E+04  0.12994741469E+04  0.00000000000E+00 0. -1.
         25    2    1    2    0    0  0.46845925571E+02  0.23444727022E+02 -0.11649673273E+03  0.17872060714E+03  0.12500148284E+03 0.  0.
          2    1    1    2  501    0 -0.22706679037E+02 -0.24312462558E+01 -0.11515289775E+04  0.11517553952E+04  0.00000000000E+00 0. -1.
          1    1    1    2  502    0 -0.24139246534E+02 -0.21013480767E+02  0.11465668453E+04  0.11470134264E+04  0.00000000000E+00 0. -1.
         22    1    3    3    0    0  0.68573770557E+02  0.44372466954E+02 -0.29831780837E+02  0.86955235495E+02  0.00000000000E+00 0. -1.
         22    1    3    3    0    0 -0.21727844986E+02 -0.20927739932E+02 -0.86664951891E+02  0.91765371642E+02  0.00000000000E+00 0. -1.
</event>
<event>
 7    1  0.6255318E-006  0.3758396E+03  0.7818608E-02  0.1303187E+00
          2   -1    0    0  502    0  0.00000000000E+00  0.00000000000E+00  0.78382678001E+03  0.78382678001E+03  0.00000000000E+00 0. -1.
          1   -1    0    0  501    0 -0.00000000000E+00 -0.00000000000E+00 -0.12644159189E+04  0.12644159189E+04  0.00000000000E+00 0. -1.
         25    2    1    2    0    0  0.62386356736E+02  0.36671082661E+03 -0.95480456939E+03  0.10323012087E+04  0.12500052769E+03 0.  0.
          2    1    1    2  501    0 -0.53527028948E+02 -0.38628475359E+03 -0.13020604647E+03  0.41113825925E+03  0.00000000000E+00 0. -1.
          1    1    1    2  502    0 -0.88593277877E+01  0.19573926981E+02  0.60442147698E+03  0.60480323093E+03  0.00000000000E+00 0. -1.
         22    1    3    3    0    0  0.70657479976E+02  0.27927942661E+03 -0.83820718616E+03  0.88632994112E+03  0.00000000000E+00 0. -1.
         22    1    3    3    0    0 -0.82711232400E+01  0.87431399999E+02 -0.11659738324E+03  0.14597126759E+03  0.00000000000E+00 0. -1.
</event>
<event>
 7    1  0.6255318E-006  0.7195995E+02  0.7818608E-02  0.1363946E+00
          2   -1    0    0  502    0  0.00000000000E+00  0.00000000000E+00  0.42956025921E+03  0.42956025921E+03  0.00000000000E+00 0. -1.
          1   -1    0    0  501    0 -0.00000000000E+00 -0.00000000000E+00 -0.66132603991E+03  0.66132603991E+03  0.00000000000E+00 0. -1.
         25    2    1    2    0    0  0.11189687450E+01 -0.19459783213E+02  0.36818207974E+02  0.13175812298E+03  0.12499874911E+03 0.  0.
          2    1    1    2  501    0 -0.55561972831E+02 -0.35491974627E+02 -0.60771803000E+03  0.61128390873E+03  0.00000000000E+00 0. -1.
          1    1    1    2  502    0  0.54443004086E+02  0.54951757840E+02  0.33913404132E+03  0.34784426740E+03  0.00000000000E+00 0. -1.
         22    1    3    3    0    0 -0.63994562542E+01 -0.25260577204E+02  0.81766086056E+02  0.85818078690E+02  0.00000000000E+00 0.  1.
         22    1    3    3    0    0  0.75184249992E+01  0.58007939915E+01 -0.44947878082E+02  0.45940044291E+02  0.00000000000E+00 0.  1.
</event>
<event>
 7    1  0.6255318E-006  0.9838592E+02  0.7818608E-02  0.1345039E+00
          2   -1    0    0  502    0  0.00000000000E+00  0.00000000000E+00  0.68890558175E+03  0.68890558175E+03  0.00000000000E+00 0. -1.
          1   -1    0    0  501    0 -0.00000000000E+00 -0.00000000000E+00 -0.49710439853E+03  0.49710439853E+03  0.00000000000E+00 0. -1.
         25    2    1    2    0    0 -0.49173006413E+01  0.59368692893E+02 -0.33057449981E+02  0.14235894673E+03  0.12499781268E+03 0.  0.
          2    1    1    2  501    0 -0.37642854564E+02 -0.96682287147E+02 -0.40152624299E+03  0.41471408579E+03  0.00000000000E+00 0. -1.
          1    1    1    2  502    0  0.42560155205E+02  0.37313594254E+02  0.62638487619E+03  0.62893694775E+03  0.00000000000E+00 0. -1.
         22    1    3    3    0    0 -0.58538046941E+02  0.50554526762E+02  0.25553838505E+01  0.77388585091E+02  0.00000000000E+00 0.  1.
         22    1    3    3    0    0  0.53620746300E+02  0.88141661307E+01 -0.35612833831E+02  0.64970361641E+02  0.00000000000E+00 0.  1.
</event>
<event>
 7    1  0.6255318E-006  0.9063562E+02  0.7818608E-02  0.1367775E+00
          2   -1    0    0  502    0  0.00000000000E+00  0.00000000000E+00  0.17384637595E+04  0.17384637595E+04  0.00000000000E+00 0. -1.
          1   -1    0    0  501    0 -0.00000000000E+00 -0.00000000000E+00 -0.19248705731E+03  0.19248705731E+03  0.00000000000E+00 0. -1.
         25    2    1    2    0    0 -0.73350306857E+02  0.91283023534E+02  0.10693957958E+04  0.10830256303E+04  0.12499715936E+03 0.  0.
          2    1    1    2  501    0  0.80592502452E+02 -0.41100596895E+02 -0.17360631512E+03  0.19576404973E+03  0.00000000000E+00 0. -1.
          1    1    1    2  502    0 -0.72421955950E+01 -0.50182426638E+02  0.65018722155E+03  0.65216113685E+03  0.00000000000E+00 0. -1.
         22    1    3    3    0    0 -0.98193406555E+02  0.89451224606E+02  0.68108262574E+03  0.69391426686E+03  0.00000000000E+00 0.  1.
         22    1    3    3    0    0  0.24843099698E+02  0.18317989278E+01  0.38831317006E+03  0.38911136340E+03  0.00000000000E+00 0.  1.
</event>
<event>
 7    1  0.6255318E-006  0.4683616E+02  0.7818608E-02  0.1516152E+00
          2   -1    0    0  502    0  0.00000000000E+00  0.00000000000E+00  0.21017727571E+04  0.21017727571E+04  0.00000000000E+00 0. -1.
          1   -1    0    0  501    0 -0.00000000000E+00 -0.00000000000E+00 -0.24633237135E+02  0.24633237135E+02  0.00000000000E+00 0. -1.
         25    2    1    2    0    0 -0.57032031132E+02 -0.13612239331E+02  0.85098128644E+03  0.86210981987E+03  0.12500498390E+03 0.  0.
          2    1    1    2  501    0  0.13236475533E+02  0.29547511937E+02 -0.45595352869E+01  0.32696316433E+02  0.00000000000E+00 0. -1.
          1    1    1    2  502    0  0.43795555599E+02 -0.15935272606E+02  0.12307177688E+04  0.12315998580E+04  0.00000000000E+00 0. -1.
         22    1    3    3    0    0 -0.42330512773E+02 -0.39584568839E+02  0.80628660492E+03  0.80836681010E+03  0.00000000000E+00 0.  1.
         22    1    3    3    0    0 -0.14701518359E+02  0.25972329508E+02  0.44694681525E+02  0.53743009767E+02  0.00000000000E+00 0.  1.
</event>
<event>
 7    1  0.6255318E-006  0.4402044E+02  0.7818608E-02  0.1591184E+00
          2   -1    0    0  502    0  0.00000000000E+00  0.00000000000E+00  0.68630811092E+03  0.68630811092E+03  0.00000000000E+00 0. -1.
          1   -1    0    0  501    0 -0.00000000000E+00 -0.00000000000E+00 -0.18356663029E+03  0.18356663029E+03  0.00000000000E+00 0. -1.
         25    2    1    2    0    0 -0.11499459849E+02 -0.21833597957E+02  0.52754985057E+03  0.54271836931E+03  0.12500175991E+03 0.  0.
          2    1    1    2  501    0  0.30081939154E+02  0.32281914568E+02 -0.17243867100E+03  0.17799477613E+03  0.00000000000E+00 0. -1.
          1    1    1    2  502    0 -0.18582479305E+02 -0.10448316611E+02  0.14763030107E+03  0.14916159576E+03  0.00000000000E+00 0. -1.
         22    1    3    3    0    0  0.31809479367E+02  0.15262139759E+02  0.46854753708E+02  0.58652739345E+02  0.00000000000E+00 0. -1.
         22    1    3    3    0    0 -0.43308939215E+02 -0.37095737716E+02  0.48069509686E+03  0.48406562997E+03  0.00000000000E+00 0. -1.
</event>
<event>
 7    1  0.6255318E-006  0.1072702E+03  0.7818608E-02  0.1454217E+00
          2   -1    0    0  502    0  0.00000000000E+00  0.00000000000E+00  0.40225011252E+03  0.40225011252E+03  0.00000000000E+00 0. -1.
          1   -1    0    0  501    0 -0.00000000000E+00 -0.00000000000E+00 -0.41671913048E+03  0.41671913048E+03  0.00000000000E+00 0. -1.
         25    2    1    2    0    0 -0.11662189602E+03  0.43021548432E+02  0.89604490702E+02  0.19775049266E+03  0.12499908933E+03 0.  0.
          2    1    1    2  501    0  0.95236102882E+02 -0.47403329940E+02 -0.35435911216E+03  0.36998293386E+03  0.00000000000E+00 0. -1.
          1    1    1    2  502    0  0.21385793137E+02  0.43817815075E+01  0.25028560350E+03  0.25123581647E+03  0.00000000000E+00 0. -1.
         22    1    3    3    0    0 -0.40387634741E+02 -0.10484169153E+01 -0.29216029937E+02  0.49858165062E+02  0.00000000000E+00 0.  1.
         22    1    3    3    0    0 -0.76234261278E+02  0.44069965347E+02  0.11882052064E+03  0.14789232760E+03  0.00000000000E+00 0.  1.
</event>
<event>
 7    1  0.6255318E-006  0.8007889E+02  0.7818608E-02  0.1375765E+00
          2   -1    0    0  502    0  0.00000000000E+00  0.00000000000E+00  0.79448887874E+03  0.79448887874E+03  0.00000000000E+00 0. -1.
          1   -1    0    0  501    0 -0.00000000000E+00 -0.00000000000E+00 -0.19590860135E+03  0.19590860135E+03  0.00000000000E+00 0. -1.
         25    2    1    2    0    0  0.62976649549E+02 -0.10913741428E+03  0.35071256549E+03  0.39305992208E+03  0.12497905892E+03 0.  0.
          2    1    1    2  501    0 -0.20011158831E+02  0.49856927119E+02 -0.16732564913E+03  0.17573853453E+03  0.00000000000E+00 0. -1.
          1    1    1    2  502    0 -0.42965490719E+02  0.59280487162E+02  0.41519336104E+03  0.42159902348E+03  0.00000000000E+00 0. -1.
         22    1    3    3    0    0 -0.19517872269E+02  0.42234319754E+01  0.13040382568E+03  0.13192400263E+03  0.00000000000E+00 0.  1.
         22    1    3    3    0    0  0.82494521818E+02 -0.11336084626E+03  0.22030873981E+03  0.26113591946E+03  0.00000000000E+00 0.  1.
</event>
<event>
 7    1  0.6255318E-006  0.5789598E+02  0.7818608E-02  0.1477708E+00
          2   -1    0    0  502    0  0.00000000000E+00  0.00000000000E+00  0.54553450873E+03  0.54553450873E+03  0.00000000000E+00 0. -1.
          1   -1    0    0  501    0 -0.00000000000E+00 -0.00000000000E+00 -0.19856152694E+04  0.19856152694E+04  0.00000000000E+00 0. -1.
         25    2    1    2    0    0  0.67878839206E+02  0.11169217727E+02  0.16576347528E+03  0.21871096293E+03  0.12499866932E+03 0.  0.
          2    1    1    2  501    0 -0.44952297352E+02 -0.36479482618E+02 -0.19578874238E+04  0.19587431241E+04  0.00000000000E+00 0. -1.
          1    1    1    2  502    0 -0.22926541854E+02  0.25310264891E+02  0.35204318785E+03  0.35369569116E+03  0.00000000000E+00 0. -1.
         22    1    3    3    0    0  0.35430752109E+02  0.24554292680E+01  0.17908192261E+03  0.18256971910E+03  0.00000000000E+00 0. -1.
         22    1    3    3    0    0  0.32448087097E+02  0.87137884592E+01 -0.13318447335E+02  0.36141243822E+02  0.00000000000E+00 0. -1.
</event>
<event>
 7    1  0.6255318E-006  0.9326017E+02  0.7818608E-02  0.1468679E+00
          2   -1    0    0  502    0  0.00000000000E+00  0.00000000000E+00  0.17587092604E+03  0.17587092604E+03  0.00000000000E+00 0. -1.
          1   -1    0    0  501    0 -0.00000000000E+00 -0.00000000000E+00 -0.15865596944E+04  0.15865596944E+04  0.00000000000E+00 0. -1.
         25    2    1    2    0    0 -0.10174411686E+03 -0.45634701355E+02 -0.39435553920E+03  0.42845645592E+03  0.12499700815E+03 0.  0.
          2    1    1    2  501    0  0.22481504603E+02 -0.24096461070E+01 -0.11615114491E+04  0.11617314968E+04  0.00000000000E+00 0. -1.
          1    1    1    2  502    0  0.79262612254E+02  0.48044347462E+02  0.14517821992E+03  0.17224266766E+03  0.00000000000E+00 0. -1.
         22    1    3    3    0    0 -0.29589773420E+02 -0.57791408928E+02 -0.68076753116E+02  0.94073619850E+02  0.00000000000E+00 0.  1.
         22    1    3    3    0    0 -0.72154343437E+02  0.12156707573E+02 -0.32627878608E+03  0.33438283607E+03  0.00000000000E+00 0.  1.
</event>
<event>
 7    1  0.6255318E-006  0.1450313E+03  0.7818608E-02  0.1351233E+00
          2   -1    0    0  502    0  0.00000000000E+00  0.00000000000E+00  0.17723355913E+03  0.17723355913E+03  0.00000000000E+00 0. -1.
          1   -1    0    0  501    0 -0.00000000000E+00 -0.00000000000E+00 -0.14887462131E+04  0.14887462131E+04  0.00000000000E+00 0. -1.
         25    2    1    2    0    0 -0.14275991374E+03 -0.55604737337E+02 -0.40646511533E+03  0.45200823533E+03  0.12500110016E+03 0.  0.
          2    1    1    2  501    0 -0.66224573617E+00  0.36409191783E+02 -0.10252259908E+04  0.10258725068E+04  0.00000000000E+00 0. -1.
          1    1    1    2  502    0  0.14342215947E+03  0.19195545554E+02  0.12017845216E+03  0.18809903020E+03  0.00000000000E+00 0. -1.
         22    1    3    3    0    0 -0.13312929327E+03 -0.72316773743E+02 -0.23592886109E+03  0.28038465005E+03  0.00000000000E+00 0.  1.
         22    1    3    3    0    0 -0.96306204637E+01  0.16712036406E+02 -0.17053625424E+03  0.17162358527E+03  0.00000000000E+00 0.  1.
</event>
<event>
 7    1  0.6255318E-006  0.4478375E+02  0.7818608E-02  0.1528979E+00
          2   -1    0    0  502    0  0.00000000000E+00  0.00000000000E+00  0.10656262833E+04  0.10656262833E+04  0.00000000000E+00 0. -1.
          1   -1    0    0  501    0 -0.00000000000E+00 -0.00000000000E+00 -0.66802710209E+03  0.66802710209E+03  0.00000000000E+00 0. -1.
         25    2    1    2    0    0 -0.13843107619E+02 -0.40098264874E+00 -0.15170651386E+03  0.19705754302E+03  0.12500006598E+03 0.  0.
          2    1    1    2  501    0 -0.30965010389E+02  0.27477221123E+01 -0.49267236545E+03  0.49365214627E+03  0.00000000000E+00 0. -1.
          1    1    1    2  502    0  0.44808118007E+02 -0.23467394636E+01  0.10419780605E+04  0.10429436961E+04  0.00000000000E+00 0. -1.
         22    1    3    3    0    0  0.15445485455E+02  0.51780424511E+02 -0.11445938910E+03  0.12657301109E+03  0.00000000000E+00 0. -1.
         22    1    3    3    0    0 -0.29288593074E+02 -0.52181407160E+02 -0.37247124761E+02  0.70484531923E+02  0.00000000000E+00 0. -1.
</event>
<event>
 7    1  0.6255318E-006  0.6674331E+02  0.7818608E-02  0.1398225E+00
          2   -1    0    0  502    0  0.00000000000E+00  0.00000000000E+00  0.14945833250E+04  0.14945833250E+04  0.00000000000E+00 0. -1.
          1   -1    0    0  501    0 -0.00000000000E+00 -0.00000000000E+00 -0.19487786606E+02  0.19487786606E+02  0.00000000000E+00 0. -1.
         25    2    1    2    0    0 -0.84380603097E+02  0.18404789629E+02  0.10464054719E+04  0.10573782379E+04  0.12500201606E+03 0.  0.
          2    1    1    2  501    0  0.44469905583E+02  0.30226304022E+02  0.52053603448E+02  0.74838356404E+02  0.00000000000E+00 0. -1.
          1    1    1    2  502    0  0.39910697515E+02 -0.48631093650E+02  0.37663646304E+03  0.38185451725E+03  0.00000000000E+00 0. -1.
         22    1    3    3    0    0 -0.85333172860E+02  0.14773078677E+02  0.33658307980E+03  0.34754591618E+03  0.00000000000E+00 0.  1.
         22    1    3    3    0    0  0.95256976263E+00  0.36317109514E+01  0.70982239209E+03  0.70983232177E+03  0.00000000000E+00 0.  1.
</event>
<event>
 7    1  0.6255318E-006  0.1268797E+03  0.7818608E-02  0.1302072E+00
          2   -1    0    0  502    0  0.00000000000E+00  0.00000000000E+00  0.16114293022E+04  0.16114293022E+04  0.00000000000E+00 0. -1.
          1   -1    0    0  501    0 -0.00000000000E+00 -0.00000000000E+00 -0.90890842855E+03  0.90890842855E+03  0.00000000000E+00 0. -1.
         25    2    1    2    0    0 -0.10742264041E+03  0.47371622097E+02  0.12280274328E+04  0.12399435935E+04  0.12500018074E+03 0.  0.
          2    1    1    2  501    0 -0.87677823250E+01  0.63698271724E+02 -0.88461745096E+03  0.88695117023E+03  0.00000000000E+00 0. -1.
          1    1    1    2  502    0  0.11619042274E+03 -0.11106989382E+03  0.35911089182E+03  0.39344296699E+03  0.00000000000E+00 0. -1.
         22    1    3    3    0    0 -0.10512312545E+03  0.70983744894E+02  0.11752979747E+04  0.11821230448E+04  0.00000000000E+00 0. -1.
         22    1    3    3    0    0 -0.22995149649E+01 -0.23612122798E+02  0.52729458028E+02  0.57820548735E+02  0.00000000000E+00 0. -1.
</event>
<event>
 7    1  0.6255318E-006  0.1565973E+03  0.7818608E-02  0.1336925E+00
          2   -1    0    0  502    0  0.00000000000E+00  0.00000000000E+00  0.10547348087E+04  0.10547348087E+04  0.00000000000E+00 0. -1.
          1   -1    0    0  501    0 -0.00000000000E+00 -0.00000000000E+00 -0.59865035679E+03  0.59865035679E+03  0.00000000000E+00 0. -1.
         25    2    1    2    0    0 -0.69816654112E+02 -0.11601052092E+03  0.16549733755E+03  0.24768234743E+03  0.12499748132E+03 0.  0.
          2    1    1    2  501    0  0.14703074141E+02 -0.35199006346E+02 -0.54925551353E+03  0.55057857711E+03  0.00000000000E+00 0. -1.
          1    1    1    2  502    0  0.55113579971E+02  0.15120952727E+03  0.83984262788E+03  0.85512424094E+03  0.00000000000E+00 0. -1.
         22    1    3    3    0    0 -0.49302948262E+02 -0.14218224684E+03  0.14250782425E+03  0.20725600593E+03  0.00000000000E+00 0.  1.
         22    1    3    3    0    0 -0.20513705849E+02  0.26171725914E+02  0.22989513304E+02  0.40426341498E+02  0.00000000000E+00 0.  1.
</event>
<event>
 7    1  0.6255318E-006  0.1058270E+03  0.7818608E-02  0.1334737E+00
          2   -1    0    0  502    0  0.00000000000E+00  0.00000000000E+00  0.12364007501E+03  0.12364007501E+03  0.00000000000E+00 0. -1.
          1   -1    0    0  501    0 -0.00000000000E+00 -0.00000000000E+00 -0.27208068711E+03  0.27208068711E+03  0.00000000000E+00 0. -1.
         25    2    1    2    0    0 -0.85111386349E+02 -0.54278216998E+02 -0.66440269661E+02  0.17387174677E+03  0.12500800761E+03 0.  0.
          2    1    1    2  501    0  0.11242636655E+03  0.36415682428E+01 -0.11046709320E+03  0.15765762778E+03  0.00000000000E+00 0. -1.
          1    1    1    2  502    0 -0.27314980202E+02  0.50636648755E+02  0.28466750763E+02  0.64191387581E+02  0.00000000000E+00 0. -1.
         22    1    3    3    0    0 -0.74277010600E+02 -0.91199979420E+02 -0.67048494214E+02  0.13538837146E+03  0.00000000000E+00 0. -1.
         22    1    3    3    0    0 -0.10834375749E+02  0.36921762422E+02  0.60822455330E+00  0.38483375311E+02  0.00000000000E+00 0. -1.
</event>
<event>
 7    1  0.6255318E-006  0.1845124E+03  0.7818608E-02  0.1349499E+00
          2   -1    0    0  502    0  0.00000000000E+00  0.00000000000E+00  0.69513625089E+03  0.69513625089E+03  0.00000000000E+00 0. -1.
          1   -1    0    0  501    0 -0.00000000000E+00 -0.00000000000E+00 -0.45480625786E+03  0.45480625786E+03  0.00000000000E+00 0. -1.
         25    2    1    2    0    0  0.10617335633E+03 -0.15264372364E+03 -0.27223756490E+02  0.22569865199E+03  0.12500344249E+03 0.  0.
          2    1    1    2  501    0 -0.80458161166E+02  0.16615698794E+03 -0.30199601406E+03  0.35395374394E+03  0.00000000000E+00 0. -1.
          1    1    1    2  502    0 -0.25715195166E+02 -0.13513264308E+02  0.56954976358E+03  0.57029011281E+03  0.00000000000E+00 0. -1.
         22    1    3    3    0    0  0.11275518918E+03 -0.17040188979E+03 -0.19543694716E+02  0.20526200996E+03  0.00000000000E+00 0.  1.
         22    1    3    3    0    0 -0.65818328448E+01  0.17758166153E+02 -0.76800617735E+01  0.20436642033E+02  0.00000000000E+00 0.  1.
</event>
<event>
 7    1  0.6255318E-006  0.1110501E+03  0.7818608E-02  0.1337838E+00
          2   -1    0    0  502    0  0.00000000000E+00  0.00000000000E+00  0.12703987795E+04  0.12703987795E+04  0.00000000000E+00 0. -1.
          1   -1    0    0  501    0 -0.00000000000E+00 -0.00000000000E+00 -0.14167621331E+04  0.14167621331E+04  0.00000000000E+00 0. -1.
         25    2    1    2    0    0 -0.13984343196E+02 -0.16055273172E+03 -0.21341226288E+03  0.29519855235E+03  0.12499859936E+03 0.  0.
          2    1    1    2  501    0  0.13002386681E+02  0.10719523110E+03 -0.11593676028E+04  0.11643852962E+04  0.00000000000E+00 0. -1.
          1    1    1    2  502    0  0.98195651566E+00  0.53357500613E+02  0.12264165121E+04  0.12275770641E+04  0.00000000000E+00 0. -1.
         22    1    3    3    0    0 -0.29946645014E+02 -0.13203939671E+03 -0.78752447295E+02  0.15663062212E+03  0.00000000000E+00 0.  1.
         22    1    3    3    0    0  0.15962301817E+02 -0.28513335005E+02 -0.13465981559E+03  0.13856793023E+03  0.00000000000E+00 0.  1.
</event>
<event>
 7    1  0.6255318E-006  0.6140802E+02  0.7818608E-02  0.1426174E+00
          2   -1    0    0  502    0  0.00000000000E+00  0.00000000000E+00  0.19242016169E+04  0.19242016169E+04  0.00000000000E+00 0. -1.
          1   -1    0    0  501    0 -0.00000000000E+00 -0.00000000000E+00 -0.10929306501E+03  0.10929306501E+03  0.00000000000E+00 0. -1.
         25    2    1    2    0    0 -0.47012085491E+02 -0.55693404391E+02  0.34204270005E+03  0.37138924577E+03  0.12499948697E+03 0.  0.
          2    1    1    2  501    0  0.60613636307E+02  0.10681689222E+02 -0.84218418126E+02  0.10431132893E+03  0.00000000000E+00 0. -1.
          1    1    1    2  502    0 -0.13601550816E+02  0.45011715169E+02  0.15570842699E+04  0.15577941072E+04  0.00000000000E+00 0. -1.
         22    1    3    3    0    0 -0.13508590704E+02 -0.67229176011E+02  0.73508474175E+02  0.10052730925E+03  0.00000000000E+00 0. -1.
         22    1    3    3    0    0 -0.33503494787E+02  0.11535771620E+02  0.26853422587E+03  0.27086193652E+03  0.00000000000E+00 0. -1.
</event>
<event>
 7    1  0.6255318E-006  0.4755115E+02  0.7818608E-02  0.1473438E+00
          2   -1    0    0  502    0  0.00000000000E+00  0.00000000000E+00  0.31061410640E+03  0.31061410640E+03  0.00000000000E+00 0. -1.
          1   -1    0    0  501    0 -0.00000000000E+00 -0.00000000000E+00 -0.17213808619E+03  0.17213808619E+03  0.00000000000E+00 0. -1.
         25    2    1    2    0    0  0.94215371004E+00  0.67711907569E+01  0.16936519545E+03  0.21060932767E+03  0.12499993118E+03 0.  0.
          2    1    1    2  501    0 -0.13588297101E+02  0.45568303919E+02 -0.14141661812E+03  0.14919709119E+03  0.00000000000E+00 0. -1.
          1    1    1    2  502    0  0.12646143391E+02 -0.52339494676E+02  0.11052744288E+03  0.12294577372E+03  0.00000000000E+00 0. -1.
         22    1    3    3    0    0 -0.52076097841E+02 -0.23835643347E+02  0.48193024732E+02  0.74850687992E+02  0.00000000000E+00 0. -1.
         22    1    3    3    0    0  0.53018251552E+02  0.30606834104E+02  0.12117217072E+03  0.13575863968E+03  0.00000000000E+00 0. -1.
</event>
<event>
 7    1  0.6255318E-006  0.6495091E+02  0.7818608E-02  0.1479415E+00
          2   -1    0    0  502    0  0.00000000000E+00  0.00000000000E+00  0.22239253515E+04  0.22239253515E+04  0.00000000000E+00 0. -1.
          1   -1    0    0  501    0 -0.00000000000E+00 -0.00000000000E+00 -0.21141550542E+03  0.21141550542E+03  0.00000000000E+00 0. -1.
         25    2    1    2    0    0  0.63091445650E+02 -0.12146934205E+02  0.83846580878E+03  0.85016126218E+03  0.12498472187E+03 0.  0.
          2    1    1    2  501    0 -0.51356979425E+02  0.39838525511E+02 -0.20026136233E+03  0.21054515119E+03  0.00000000000E+00 0. -1.
          1    1    1    2  502    0 -0.11734466225E+02 -0.27691591307E+02  0.13743053997E+04  0.13746344436E+04  0.00000000000E+00 0. -1.
         22    1    3    3    0    0  0.30268020497E+02 -0.48519928105E+02  0.71568808741E+03  0.71796920195E+03  0.00000000000E+00 0. -1.
         22    1    3    3    0    0  0.32823425153E+02  0.36372993900E+02  0.12277772137E+03  0.13219206023E+03  0.00000000000E+00 0. -1.
</event>
<event>
 7    1  0.6255318E-006  0.5896788E+02  0.7818608E-02  0.1457963E+00
          2   -1    0    0  502    0  0.00000000000E+00  0.00000000000E+00  0.18967906748E+04  0.18967906748E+04  0.00000000000E+00 0. -1.
          1   -1    0    0  501    0 -0.00000000000E+00 -0.00000000000E+00 -0.20130968772E+03  0.20130968772E+03  0.00000000000E+00 0. -1.
         25    2    1    2    0    0 -0.21004834760E+02 -0.13304806818E+02  0.39290304957E+03  0.41305690458E+03  0.12499991635E+03 0.  0.
          2    1    1    2  501    0 -0.38638715850E+02 -0.30691890992E+00 -0.18864729080E+03  0.19256387223E+03  0.00000000000E+00 0. -1.
          1    1    1    2  502    0  0.59643550611E+02  0.13611725728E+02  0.14912252283E+04  0.14924795857E+04  0.00000000000E+00 0. -1.
         22    1    3    3    0    0  0.43144116446E+01 -0.46426149301E+02  0.35051455892E+03  0.35360211750E+03  0.00000000000E+00 0.  1.
         22    1    3    3    0    0 -0.25319246405E+02  0.33121342483E+02  0.42388490656E+02  0.59454787079E+02  0.00000000000E+00 0.  1.
</event>
<event>
 7    1  0.6255318E-006  0.7183469E+02  0.7818608E-02  0.1388593E+00
          2   -1    0    0  502    0  0.00000000000E+00  0.00000000000E+00  0.22254256149E+04  0.22254256149E+04  0.00000000000E+00 0. -1.
          1   -1    0    0  501    0 -0.00000000000E+00 -0.00000000000E+00 -0.38827433854E+03  0.38827433854E+03  0.00000000000E+00 0. -1.
         25    2    1    2    0    0  0.18907872960E+02  0.33461426480E+02 -0.52123546158E+02  0.14078859433E+03  0.12500955767E+03 0.  0.
          2    1    1    2  501    0 -0.72279602752E+02 -0.25529886081E+02 -0.28644394967E+03  0.29652361181E+03  0.00000000000E+00 0. -1.
          1    1    1    2  502    0  0.53371729793E+02 -0.79315403989E+01  0.21757187722E+04  0.21763877473E+04  0.00000000000E+00 0. -1.
         22    1    3    3    0    0  0.58045320558E+02  0.20118425817E+02  0.13806004637E+02  0.62965197213E+02  0.00000000000E+00 0.  1.
         22    1    3    3    0    0 -0.39137447599E+02  0.13343000663E+02 -0.65929550795E+02  0.77823397120E+02  0.00000000000E+00 0.  1.
</event>
<event>
 7    1  0.6255318E-006  0.2268253E+02  0.7818608E-02  0.1708211E+00
          2   -1    0    0  502    0  0.00000000000E+00  0.00000000000E+00  0.13175811856E+04  0.13175811856E+04  0.00000000000E+00 0. -1.
          1   -1    0    0  501    0 -0.00000000000E+00 -0.00000000000E+00 -0.21993287521E+02  0.21993287521E+02  0.00000000000E+00 0. -1.
         25    2    1    2    0    0  0.49384858909E+01  0.63709927195E+00  0.51308351010E+03  0.52811790552E+03  0.12501615596E+03 0.  0.
          2    1    1    2  501    0  0.81446325652E+01 -0.19727437504E+02 -0.63465297209E+01  0.22266236090E+02  0.00000000000E+00 0. -1.
          1    1    1    2  502    0 -0.13083118456E+02  0.19090338232E+02  0.78885091774E+03  0.78919033155E+03  0.00000000000E+00 0. -1.
         22    1    3    3    0    0  0.47232567654E+02 -0.13009849846E+02  0.43901276914E+03  0.44173791224E+03  0.00000000000E+00 0. -1.
         22    1    3    3    0    0 -0.42294081763E+02  0.13646949118E+02  0.74070740963E+02  0.86379993281E+02  0.00000000000E+00 0. -1.
</event>
<event>
 7    1  0.6255318E-006  0.3170573E+02  0.7818608E-02  0.1628626E+00
          2   -1    0    0  502    0  0.00000000000E+00  0.00000000000E+00  0.14044851164E+04  0.14044851164E+04  0.00000000000E+00 0. -1.
          1   -1    0    0  501    0 -0.00000000000E+00 -0.00000000000E+00 -0.80531515774E+02  0.80531515774E+02  0.00000000000E+00 0. -1.
         25    2    1    2    0    0 -0.48290766393E+02 -0.12741463250E+02  0.29971431388E+03  0.32855213644E+03  0.12499397351E+03 0.  0.
          2    1    1    2  501    0  0.22945112007E+02 -0.59152991503E+01 -0.63754573043E+02  0.68015546112E+02  0.00000000000E+00 0. -1.
          1    1    1    2  502    0  0.25345654387E+02  0.18656762400E+02  0.10879938598E+04  0.10884489496E+04  0.00000000000E+00 0. -1.
         22    1    3    3    0    0  0.74342493634E+01 -0.71236785257E+01 -0.96783406622E+01  0.14130999162E+02  0.00000000000E+00 0. -1.
         22    1    3    3    0    0 -0.55725015757E+02 -0.56177847239E+01  0.30939265454E+03  0.31442113728E+03  0.00000000000E+00 0. -1.
</event>
<event>
 7    1  0.6255318E-006  0.3835040E+02  0.7818608E-02  0.1587485E+00
          2   -1    0    0  502    0  0.00000000000E+00  0.00000000000E+00  0.19185728123E+03  0.19185728123E+03  0.00000000000E+00 0. -1.
          1   -1    0    0  501    0 -0.00000000000E+00 -0.00000000000E+00 -0.18607347313E+04  0.18607347313E+04  0.00000000000E+00 0. -1.
         25    2    1    2    0    0  0.17298248929E+02 -0.15632837030E+02 -0.97509857347E+03  0.98335418103E+03  0.12499840936E+03 0.  0.
          2    1    1    2  501    0 -0.11369097407E+02 -0.22297530506E+02 -0.87936567889E+03  0.87972179321E+03  0.00000000000E+00 0. -1.
          1    1    1    2  502    0 -0.59291515224E+01  0.37930367535E+02  0.18558680225E+03  0.18951603834E+03  0.00000000000E+00 0. -1.
         22    1    3    3    0    0  0.36297936402E+02 -0.44253506008E+02 -0.21525473984E+03  0.22273418239E+03  0.00000000000E+00 0.  1.
         22    1    3    3    0    0 -0.18999687472E+02  0.28620668978E+02 -0.75984383363E+03  0.76061999864E+03  0.00000000000E+00 0.  1.
</event>
<event>
 7    1  0.6255318E-006  0.5522017E+02  0.7818608E-02  0.1497371E+00
          2   -1    0    0  502    0  0.00000000000E+00  0.00000000000E+00  0.41038147270E+03  0.41038147270E+03  0.00000000000E+00 0. -1.
          1   -1    0    0  501    0 -0.00000000000E+00 -0.00000000000E+00 -0.12271600921E+03  0.12271600921E+03  0.00000000000E+00 0. -1.
         25    2    1    2    0    0  0.32513940743E+01 -0.45497944119E+02  0.21388586111E+03  0.25189159138E+03  0.12498631021E+03 0.  0.
          2    1    1    2  501    0  0.27824950384E+02  0.48347417338E+02 -0.94674210561E+02  0.10988588068E+03  0.00000000000E+00 0. -1.
          1    1    1    2  502    0 -0.31076344458E+02 -0.28494732191E+01  0.16845381294E+03  0.17132000985E+03  0.00000000000E+00 0. -1.
         22    1    3    3    0    0  0.61418434894E+02 -0.10027051978E+02  0.77130409925E+02  0.99105328068E+02  0.00000000000E+00 0.  1.
         22    1    3    3    0    0 -0.58167040820E+02 -0.35470892141E+02  0.13675545119E+03  0.15278626331E+03  0.00000000000E+00 0.  1.
</event>
<event>
 7    1  0.6255318E-006  0.1597316E+03  0.7818608E-02  0.1375285E+00
          2   -1    0    0  502    0  0.00000000000E+00  0.00000000000E+00  0.10667121276E+04  0.10667121276E+04  0.00000000000E+00 0. -1.
          1   -1    0    0  501    0 -0.00000000000E+00 -0.00000000000E+00 -0.71481072974E+03  0.71481072974E+03  0.00000000000E+00 0. -1.
         25    2    1    2    0    0  0.17194307674E+03 -0.23632231070E+02  0.19460708594E+03  0.28917020417E+03  0.12499834038E+03 0.  0.
          2    1    1    2  501    0 -0.19891024097E+02 -0.18316161781E+02 -0.65970883272E+03  0.66026273451E+03  0.00000000000E+00 0. -1.
          1    1    1    2  502    0 -0.15205205264E+03  0.41948392852E+02  0.81700314463E+03  0.83208991864E+03  0.00000000000E+00 0. -1.
         22    1    3    3    0    0  0.42676188039E+02  0.33234829481E+02  0.11492737787E+03  0.12702012872E+03  0.00000000000E+00 0.  1.
         22    1    3    3    0    0  0.12926688870E+03 -0.56867060551E+02  0.79679708068E+02  0.16215007545E+03  0.00000000000E+00 0.  1.
</event>
<event>
 7    1  0.6255318E-006  0.4987715E+02  0.7818608E-02  0.1506388E+00
          2   -1    0    0  502    0  0.00000000000E+00  0.00000000000E+00  0.48467471703E+02  0.48467471703E+02  0.00000000000E+00 0. -1.
          1   -1    0    0  501    0 -0.00000000000E+00 -0.00000000000E+00 -0.60997786896E+03  0.60997786896E+03  0.00000000000E+00 0. -1.
         25    2    1    2    0    0 -0.37585399308E+02  0.14619099219E+02 -0.90494521520E+02  0.15950309416E+03  0.12500239325E+03 0.  0.
          2    1    1    2  501    0  0.48745599882E+01  0.32111321065E+02 -0.42338561485E+03  0.42462957638E+03  0.00000000000E+00 0. -1.
          1    1    1    2  502    0  0.32710839320E+02 -0.46730420285E+02 -0.47630260887E+02  0.74312670126E+02  0.00000000000E+00 0. -1.
         22    1    3    3    0    0 -0.34585303888E+02  0.55047980462E+02 -0.98655661786E+02  0.11814974820E+03  0.00000000000E+00 0.  1.
         22    1    3    3    0    0 -0.30000954201E+01 -0.40428881243E+02  0.81611402659E+01  0.41353345953E+02  0.00000000000E+00 0.  1.
</event>
<event>
 7    1  0.6255318E-006  0.4817896E+02  0.7818608E-02  0.1500201E+00
          2   -1    0    0  502    0  0.00000000000E+00  0.00000000000E+00  0.16952517706E+04  0.16952517706E+04  0.00000000000E+00 0. -1.
          1   -1    0    0  501    0 -0.00000000000E+00 -0.00000000000E+00 -0.35809202684E+03  0.35809202684E+03  0.00000000000E+00 0. -1.
         25    2    1    2    0    0  0.28858620804E+01 -0.69196868384E+02 -0.51550995014E+02  0.15191864057E+03  0.12500093388E+03 0.  0.
          2    1    1    2  501    0 -0.23925772046E+02  0.41129950102E+02 -0.25396038677E+03  0.25837955300E+03  0.00000000000E+00 0. -1.
          1    1    1    2  502    0  0.21039909966E+02  0.28066918282E+02  0.16426711255E+04  0.16430456039E+04  0.00000000000E+00 0. -1.
         22    1    3    3    0    0  0.42979808659E+02 -0.22053326291E+02  0.24258132820E+02  0.54056175973E+02  0.00000000000E+00 0. -1.
         22    1    3    3    0    0 -0.40093946578E+02 -0.47143542093E+02 -0.75809127834E+02  0.97862464593E+02  0.00000000000E+00 0. -1.
</event>
<event>
 7    1  0.6255318E-006  0.4722647E+02  0.7818608E-02  0.1508213E+00
          2   -1    0    0  502    0  0.00000000000E+00  0.00000000000E+00  0.30233346207E+04  0.30233346207E+04  0.00000000000E+00 0. -1.
          1   -1    0    0  501    0 -0.00000000000E+00 -0.00000000000E+00 -0.81782721044E+02  0.81782721044E+02  0.00000000000E+00 0. -1.
         25    2    1    2    0    0  0.37359913503E+02 -0.71543665735E+02  0.27128939030E+03  0.30941537318E+03  0.12500272249E+03 0.  0.
          2    1    1    2  501    0 -0.16798477648E+02  0.29420977106E+02 -0.57928633147E+02  0.67108190882E+02  0.00000000000E+00 0. -1.
          1    1    1    2  502    0 -0.20561435855E+02  0.42122688628E+02  0.27281911425E+04  0.27285937777E+04  0.00000000000E+00 0. -1.
         22    1    3    3    0    0  0.34230523831E+02 -0.93227932202E+02  0.26975134115E+03  0.28745253896E+03  0.00000000000E+00 0.  1.
         22    1    3    3    0    0  0.31293896719E+01  0.21684266468E+02  0.15380491531E+01  0.21962834224E+02  0.00000000000E+00 0.  1.
</event>
<event>
 7    1  0.6255318E-006  0.6882112E+02  0.7818608E-02  0.1437263E+00
          2   -1    0    0  502    0  0.00000000000E+00  0.00000000000E+00  0.13440162810E+04  0.13440162810E+04  0.00000000000E+00 0. -1.
          1   -1    0    0  501    0 -0.00000000000E+00 -0.00000000000E+00 -0.44294150295E+03  0.44294150295E+03  0.00000000000E+00 0. -1.
         25    2    1    2    0    0 -0.90591408217E+02 -0.19107113473E+00  0.63832914567E+02  0.16704932347E+03  0.12499598288E+03 0.  0.
          2    1    1    2  501    0  0.27519123951E+02  0.27042164378E+02 -0.38942304927E+03  0.39132964639E+03  0.00000000000E+00 0. -1.
          1    1    1    2  502    0  0.63072284267E+02 -0.26851093243E+02  0.12266649128E+04  0.12285788141E+04  0.00000000000E+00 0. -1.
         22    1    3    3    0    0 -0.48124209803E+02  0.90814592750E+01 -0.34252844443E+02  0.59763448898E+02  0.00000000000E+00 0. -1.
         22    1    3    3    0    0 -0.42467198414E+02 -0.92725304098E+01  0.98085759010E+02  0.10728587457E+03  0.00000000000E+00 0. -1.
</event>
<event>
 7    1  0.6255318E-006  0.1466179E+03  0.7818608E-02  0.1245944E+00
          2   -1    0    0  502    0  0.00000000000E+00  0.00000000000E+00  0.12476206516E+04  0.12476206516E+04  0.00000000000E+00 0. -1.
          1   -1    0    0  501    0 -0.00000000000E+00 -0.00000000000E+00 -0.11455777971E+04  0.11455777971E+04  0.00000000000E+00 0. -1.
         25    2    1    2    0    0  0.30484948855E+02  0.59610221287E+02  0.60264691665E+03  0.61910425254E+03  0.12499623504E+03 0.  0.
          2    1    1    2  501    0 -0.12522773460E+03  0.76254905771E+02 -0.11217253054E+04  0.11312667488E+04  0.00000000000E+00 0. -1.
          1    1    1    2  502    0  0.94742785746E+02 -0.13586512706E+03  0.62112124328E+03  0.64282744734E+03  0.00000000000E+00 0. -1.
         22    1    3    3    0    0  0.28303253179E+02 -0.27514252302E+02  0.34205647314E+03  0.34432650063E+03  0.00000000000E+00 0.  1.
         22    1    3    3    0    0  0.21816956761E+01  0.87124473589E+02  0.26059044351E+03  0.27477775191E+03  0.00000000000E+00 0.  1.
</event>
<event>
 7    1  0.6255318E-006  0.8346006E+02  0.7818608E-02  0.1402708E+00
          2   -1    0    0  502    0  0.00000000000E+00  0.00000000000E+00  0.55454909574E+03  0.55454909574E+03  0.00000000000E+00 0. -1.
          1   -1    0    0  501    0 -0.00000000000E+00 -0.00000000000E+00 -0.40100978203E+03  0.40100978203E+03  0.00000000000E+00 0. -1.
         25    2    1    2    0    0 -0.58792634429E+02  0.52072803112E+02  0.35318312907E+03  0.38279491156E+03  0.12500188386E+03 0.  0.
          2    1    1    2  501    0  0.81788723365E+02 -0.17525094816E+02 -0.37928109574E+03  0.38839499714E+03  0.00000000000E+00 0. -1.
          1    1    1    2  502    0 -0.22996088936E+02 -0.34547708296E+02  0.17963728037E+03  0.18436896907E+03  0.00000000000E+00 0. -1.
         22    1    3    3    0    0  0.14127236324E+02 -0.27179190649E+02  0.33188104755E+02  0.45163453231E+02  0.00000000000E+00 0.  1.
         22    1    3    3    0    0 -0.72919870752E+02  0.79251993762E+02  0.31999502432E+03  0.33763145833E+03  0.00000000000E+00 0.  1.
</event>
<event>
 7    1  0.6255318E-006  0.5301974E+02  0.7818608E-02  0.1477563E+00
          2   -1    0    0  502    0  0.00000000000E+00  0.00000000000E+00  0.49896214571E+03  0.49896214571E+03  0.00000000000E+00 0. -1.
          1   -1    0    0  501    0 -0.00000000000E+00 -0.00000000000E+00 -0.92886062253E+03  0.92886062253E+03  0.00000000000E+00 0. -1.
         25    2    1    2    0    0  0.73190778349E+02  0.35923221239E+02 -0.12552531520E+03  0.19501132628E+03  0.12500177903E+03 0.  0.
          2    1    1    2  501    0 -0.37228638209E+02  0.27392689315E+01 -0.76663520743E+03  0.76754349478E+03  0.00000000000E+00 0. -1.
          1    1    1    2  502    0 -0.35962140140E+02 -0.38662490171E+02  0.46226204582E+03  0.46526794719E+03  0.00000000000E+00 0. -1.
         22    1    3    3    0    0 -0.17533014908E+02 -0.29448868503E+02 -0.13824117241E+02  0.36956037198E+02  0.00000000000E+00 0.  1.
         22    1    3    3    0    0  0.90723793257E+02  0.65372089742E+02 -0.11170119796E+03  0.15805528908E+03  0.00000000000E+00 0.  1.
</event>
<event>
 7    1  0.6255318E-006  0.7497557E+02  0.7818608E-02  0.1432883E+00
          2   -1    0    0  502    0  0.00000000000E+00  0.00000000000E+00  0.14177411486E+03  0.14177411486E+03  0.00000000000E+00 0. -1.
          1   -1    0    0  501    0 -0.00000000000E+00 -0.00000000000E+00 -0.23457772395E+03  0.23457772395E+03  0.00000000000E+00 0. -1.
         25    2    1    2    0    0 -0.58368226762E+02  0.71669658837E+02 -0.93549602355E+02  0.18143857911E+03  0.12500015998E+03 0.  0.
          2    1    1    2  501    0 -0.62335514268E+01 -0.36067360918E+02 -0.78522316184E+02  0.86634091592E+02  0.00000000000E+00 0. -1.
          1    1    1    2  502    0  0.64601778189E+02 -0.35602297919E+02  0.79268309451E+02  0.10827916811E+03  0.00000000000E+00 0. -1.
         22    1    3    3    0    0  0.20293107459E+02  0.74031102726E+02 -0.45614955145E+02  0.89292432569E+02  0.00000000000E+00 0. -1.
         22    1    3    3    0    0 -0.78661334222E+02 -0.23614438891E+01 -0.47934647210E+02  0.92146146539E+02  0.00000000000E+00 0. -1.
</event>
<event>
 7    1  0.6255318E-006  0.3794180E+02  0.7818608E-02  0.1554779E+00
          2   -1    0    0  502    0  0.00000000000E+00  0.00000000000E+00  0.51287238486E+03  0.51287238486E+03  0.00000000000E+00 0. -1.
          1   -1    0    0  501    0 -0.00000000000E+00 -0.00000000000E+00 -0.14732463020E+04  0.14732463020E+04  0.00000000000E+00 0. -1.
         25    2    1    2    0    0  0.45014452597E+02  0.31368684732E+02 -0.31316837877E+03  0.34162700033E+03  0.12499711422E+03 0.  0.
          2    1    1    2  501    0 -0.30800501942E+02  0.37909552604E+01 -0.11449169852E+04  0.11453374809E+04  0.00000000000E+00 0. -1.
          1    1    1    2  502    0 -0.14213950654E+02 -0.35159639992E+02  0.49771144682E+03  0.49915420560E+03  0.00000000000E+00 0. -1.
         22    1    3    3    0    0 -0.13365584494E+02  0.17378126473E+02  0.83209246828E+00  0.21939245804E+02  0.00000000000E+00 0.  1.
         22    1    3    3    0    0  0.58380037090E+02  0.13990558259E+02 -0.31400047124E+03  0.31968775452E+03  0.00000000000E+00 0.  1.
</event>
<event>
 7    1  0.6255318E-006  0.1179289E+03  0.7818608E-02  0.1393951E+00
          2   -1    0    0  502    0  0.00000000000E+00  0.00000000000E+00  0.94580116320E+03  0.94580116320E+03  0.00000000000E+00 0. -1.
          1   -1    0    0  501    0 -0.00000000000E+00 -0.00000000000E+00 -0.38573287833E+03  0.38573287833E+03  0.00000000000E+00 0. -1.
         25    2    1    2    0    0 -0.14223062985E+03 -0.17870787937E+02 -0.78482169065E+02  0.20575297665E+03  0.12500367759E+03 0.  0.
          2    1    1    2  501    0  0.11086045827E+03  0.20561530102E+02 -0.23026886255E+03  0.25639143275E+03  0.00000000000E+00 0. -1.
          1    1    1    2  502    0  0.31370171585E+02 -0.26907421647E+01  0.86881931649E+03  0.86938963213E+03  0.00000000000E+00 0. -1.
         22    1    3    3    0    0 -0.68844040208E+02 -0.64477095179E+02 -0.95495155709E+01  0.94805015282E+02  0.00000000000E+00 0.  1.
         22    1    3    3    0    0 -0.73386589644E+02  0.46606307242E+02 -0.68932653494E+02  0.11094796137E+03  0.00000000000E+00 0.  1.
</event>
<event>
 7    1  0.6255318E-006  0.1978966E+03  0.7818608E-02  0.1234829E+00
          2   -1    0    0  502    0  0.00000000000E+00  0.00000000000E+00  0.23139460473E+04  0.23139460473E+04  0.00000000000E+00 0. -1.
          1   -1    0    0  501    0 -0.00000000000E+00 -0.00000000000E+00 -0.47935941352E+03  0.47935941352E+03  0.00000000000E+00 0. -1.
         25    2    1    2    0    0 -0.25207389646E+03  0.62372438114E+02 -0.18387946301E+02  0.28878174539E+03  0.12500083836E+03 0.  0.
          2    1    1    2  501    0  0.18495567264E+03 -0.20421935475E+02 -0.29841554819E+03  0.35167811375E+03  0.00000000000E+00 0. -1.
          1    1    1    2  502    0  0.67118223823E+02 -0.41950502639E+02  0.21513901283E+04  0.21528456017E+04  0.00000000000E+00 0. -1.
         22    1    3    3    0    0 -0.76656130217E+02 -0.38170284267E+02 -0.12200673835E+02  0.86498493298E+02  0.00000000000E+00 0.  1.
         22    1    3    3    0    0 -0.17541776624E+03  0.10054272238E+03 -0.61872724665E+01  0.20228325210E+03  0.00000000000E+00 0.  1.
</event>
<event>
 7    1  0.6255318E-006  0.4070616E+02  0.7818608E-02  0.1576226E+00
          2   -1    0    0  502    0  0.00000000000E+00  0.00000000000E+00  0.33349288065E+03  0.33349288065E+03  0.00000000000E+00 0. -1.
          1   -1    0    0  501    0 -0.00000000000E+00 -0.00000000000E+00 -0.68653583376E+03  0.68653583376E+03  0.00000000000E+00 0. -1.
         25    2    1    2    0    0  0.36619586961E+02  0.91087688254E+01 -0.11074261127E+03  0.17120982074E+03  0.12499965179E+03 0.  0.
          2    1    1    2  501    0 -0.25707150973E+02 -0.31905079979E+02 -0.54426166071E+03  0.54580174703E+03  0.00000000000E+00 0. -1.
          1    1    1    2  502    0 -0.10912435988E+02  0.22796311153E+02  0.30196131887E+03  0.30301714664E+03  0.00000000000E+00 0. -1.
         22    1    3    3    0    0 -0.10253653773E+02 -0.47715961993E+02 -0.16338929038E+02  0.51467572769E+02  0.00000000000E+00 0.  1.
         22    1    3    3    0    0  0.46873240734E+02  0.56824730819E+02 -0.94403682230E+02  0.11974224797E+03  0.00000000000E+00 0.  1.
</event>
<event>
 7    1  0.6255318E-006  0.8954721E+02  0.7818608E-02  0.1375860E+00
          2   -1    0    0  502    0  0.00000000000E+00  0.00000000000E+00  0.39898632290E+03  0.39898632290E+03  0.00000000000E+00 0. -1.
          1   -1    0    0  501    0 -0.00000000000E+00 -0.00000000000E+00 -0.16190446038E+03  0.16190446038E+03  0.00000000000E+00 0. -1.
         25    2    1    2    0    0 -0.55750947858E+02  0.58707015398E+02  0.79815349690E+02  0.16896818139E+03  0.12500029773E+03 0.  0.
          2    1    1    2  501    0  0.89155954762E+02 -0.24231030225E+02 -0.96534230748E+02  0.13362179763E+03  0.00000000000E+00 0. -1.
          1    1    1    2  502    0 -0.33405006904E+02 -0.34475985173E+02  0.25380074358E+03  0.25830080426E+03  0.00000000000E+00 0. -1.
         22    1    3    3    0    0  0.15726204929E+02 -0.16049242875E+02 -0.16311982447E+02  0.27766391369E+02  0.00000000000E+00 0.  1.
         22    1    3    3    0    0 -0.71477152787E+02  0.74756258273E+02  0.96127332137E+02  0.14120179002E+03  0.00000000000E+00 0.  1.
</event>
<event>
 7    1  0.6255318E-006  0.8085942E+02  0.7818608E-02  0.1431274E+00
          2   -1    0    0  502    0  0.00000000000E+00  0.00000000000E+00  0.73965895916E+03  0.73965895916E+03  0.00000000000E+00 0. -1.
          1   -1    0    0  501    0 -0.00000000000E+00 -0.00000000000E+00 -0.80662422552E+03  0.80662422552E+03  0.00000000000E+00 0. -1.
         25    2    1    2    0    0  0.10434446333E+02 -0.96439436741E+02 -0.20377297402E+03  0.25798906287E+03  0.12500195595E+03 0.  0.
          2    1    1    2  501    0  0.24797427486E+02  0.23775308994E+02 -0.57293901613E+03  0.57396802518E+03  0.00000000000E+00 0. -1.
          1    1    1    2  502    0 -0.35231873819E+02  0.72664127747E+02  0.70974672379E+03  0.71432609663E+03  0.00000000000E+00 0. -1.
         22    1    3    3    0    0 -0.68075206719E+01 -0.12394410819E+03 -0.14524837402E+03  0.19106432019E+03  0.00000000000E+00 0.  1.
         22    1    3    3    0    0  0.17241967005E+02  0.27504671453E+02 -0.58524599996E+02  0.66924742678E+02  0.00000000000E+00 0.  1.
</event>
<event>
 7    1  0.6255318E-006  0.4286083E+02  0.7818608E-02  0.1565731E+00
          2   -1    0    0  502    0  0.00000000000E+00  0.00000000000E+00  0.73048001310E+03  0.73048001310E+03  0.00000000000E+00 0. -1.
          1   -1    0    0  501    0 -0.00000000000E+00 -0.00000000000E+00 -0.37121298362E+02  0.37121298362E+02  0.00000000000E+00 0. -1.
         25    2    1    2    0    0  0.48539522906E+01  0.66625515912E+02  0.30297395139E+03  0.33448710734E+03  0.12500355810E+03 0.  0.
          2    1    1    2  501    0 -0.18072432606E+00 -0.25628983136E+02 -0.12224753992E+02  0.28395810396E+02  0.00000000000E+00 0. -1.
          1    1    1    2  502    0 -0.46732279645E+01 -0.40996532776E+02  0.40260951734E+03  0.40471839372E+03  0.00000000000E+00 0. -1.
         22    1    3    3    0    0 -0.30860964027E+01  0.14800075560E+02  0.27432307506E+03  0.27473935965E+03  0.00000000000E+00 0.  1.
         22    1    3    3    0    0  0.79400486933E+01  0.51825440352E+02  0.28650876324E+02  0.59747747699E+02  0.00000000000E+00 0.  1.
</event>
<event>
 7    1  0.6255318E-006  0.4754844E+02  0.7818608E-02  0.1472374E+00
          2   -1    0    0  502    0  0.00000000000E+00  0.00000000000E+00  0.10508624408E+04  0.10508624408E+04  0.00000000000E+00 0. -1.
          1   -1    0    0  501    0 -0.00000000000E+00 -0.00000000000E+00 -0.50990534845E+02  0.50990534845E+02  0.00000000000E+00 0. -1.
         25    2    1    2    0    0  0.16631062747E+02  0.44843135205E+02  0.45111081662E+03  0.47054752287E+03  0.12500601337E+03 0.  0.
          2    1    1    2  501    0  0.26318363277E+02 -0.40293350641E+02 -0.26151215704E+02  0.54773136063E+02  0.00000000000E+00 0. -1.
          1    1    1    2  502    0 -0.42949426024E+02 -0.45497845643E+01  0.57491230502E+03  0.57653231670E+03  0.00000000000E+00 0. -1.
         22    1    3    3    0    0  0.66186223384E+02 -0.93565737741E+00  0.21101017057E+03  0.22114878183E+03  0.00000000000E+00 0.  1.
         22    1    3    3    0    0 -0.49555160637E+02  0.45778792583E+02  0.24010064606E+03  0.24939874104E+03  0.00000000000E+00 0.  1.
</event>
<event>
 7    1  0.6255318E-006  0.5911107E+02  0.7818608E-02  0.1458535E+00
          2   -1    0    0  502    0  0.00000000000E+00  0.00000000000E+00  0.16755479387E+04  0.16755479387E+04  0.00000000000E+00 0. -1.
          1   -1    0    0  501    0 -0.00000000000E+00 -0.00000000000E+00 -0.90402620153E+03  0.90402620153E+03  0.00000000000E+00 0. -1.
         25    2    1    2    0    0 -0.40059322053E+02 -0.87459769460E+02  0.16214099906E+02  0.15854935899E+03  0.12498416557E+03 0.  0.
          2    1    1    2  501    0  0.21967746795E+02  0.31478494433E+02 -0.83187099175E+03  0.83275616144E+03  0.00000000000E+00 0. -1.
          1    1    1    2  502    0  0.18091575258E+02  0.55981275027E+02  0.15871786290E+04  0.15882686198E+04  0.00000000000E+00 0. -1.
         22    1    3    3    0    0  0.22708771050E+02  0.21529642012E+02  0.90454175147E+01  0.32573506808E+02  0.00000000000E+00 0.  1.
         22    1    3    3    0    0 -0.62768093103E+02 -0.10898941147E+03  0.71686823909E+01  0.12597585218E+03  0.00000000000E+00 0.  1.
</event>
<event>
 7    1  0.6255318E-006  0.1239989E+03  0.7818608E-02  0.1287295E+00
          2   -1    0    0  502    0  0.00000000000E+00  0.00000000000E+00  0.72980925523E+03  0.72980925523E+03  0.00000000000E+00 0. -1.
          1   -1    0    0  501    0 -0.00000000000E+00 -0.00000000000E+00 -0.38851439318E+03  0.38851439318E+03  0.00000000000E+00 0. -1.
         25    2    1    2    0    0  0.10082198914E+03 -0.72729911509E+02  0.36683709351E+03  0.40699797509E+03  0.12499273990E+03 0.  0.
          2    1    1    2  501    0 -0.40343868931E+02  0.11789257501E+03 -0.35348748195E+03  0.37480619911E+03  0.00000000000E+00 0. -1.
          1    1    1    2  502    0 -0.60478120210E+02 -0.45162663502E+02  0.32794525049E+03  0.33651947420E+03  0.00000000000E+00 0. -1.
         22    1    3    3    0    0  0.23383058627E+02 -0.15139021421E+02  0.18375577535E+00  0.27856618002E+02  0.00000000000E+00 0.  1.
         22    1    3    3    0    0  0.77438930514E+02 -0.57590890089E+02  0.36665333774E+03  0.37914135709E+03  0.00000000000E+00 0.  1.
</event>
<event>
 7    1  0.6255318E-006  0.2799027E+03  0.7818608E-02  0.1262360E+00
          2   -1    0    0  502    0  0.00000000000E+00  0.00000000000E+00  0.13068271313E+04  0.13068271313E+04  0.00000000000E+00 0. -1.
          1   -1    0    0  501    0 -0.00000000000E+00 -0.00000000000E+00 -0.30307687322E+03  0.30307687322E+03  0.00000000000E+00 0. -1.
         25    2    1    2    0    0 -0.25150608733E+03 -0.71132734344E+01  0.77102315929E+03  0.82061274521E+03  0.12499061891E+03 0.  0.
          2    1    1    2  501    0  0.28166708081E+03 -0.22796853090E+02 -0.20524852038E+03  0.34926064199E+03  0.00000000000E+00 0. -1.
          1    1    1    2  502    0 -0.30160993477E+02  0.29910126524E+02  0.43797561916E+03  0.44003061732E+03  0.00000000000E+00 0. -1.
         22    1    3    3    0    0 -0.10677166522E+03  0.49378101348E+02  0.23923468395E+03  0.26659260941E+03  0.00000000000E+00 0. -1.
         22    1    3    3    0    0 -0.14473442211E+03 -0.56491374782E+02  0.53178847534E+03  0.55402013580E+03  0.00000000000E+00 0. -1.
</event>
<event>
 7    1  0.6255318E-006  0.4951016E+02  0.7818608E-02  0.1515112E+00
          2   -1    0    0  502    0  0.00000000000E+00  0.00000000000E+00  0.84893839583E+03  0.84893839583E+03  0.00000000000E+00 0. -1.
          1   -1    0    0  501    0 -0.00000000000E+00 -0.00000000000E+00 -0.20267635850E+03  0.20267635850E+03  0.00000000000E+00 0. -1.
         25    2    1    2    0    0  0.38851851088E+01 -0.23045010285E+02 -0.58947253526E+02  0.14016286886E+03  0.12499873578E+03 0.  0.
          2    1    1    2  501    0 -0.50337342286E+01  0.53866821978E+02 -0.95708034218E+02  0.10994089687E+03  0.00000000000E+00 0. -1.
          1    1    1    2  502    0  0.11485491198E+01 -0.30821811693E+02  0.80091732508E+03  0.80151098860E+03  0.00000000000E+00 0. -1.
         22    1    3    3    0    0 -0.99961650521E+01 -0.73829781877E+02 -0.33532925842E+02  0.81702001953E+02  0.00000000000E+00 0.  1.
         22    1    3    3    0    0  0.13881350161E+02  0.50784771591E+02 -0.25414327684E+02  0.58460866907E+02  0.00000000000E+00 0.  1.
</event>
<event>
 7    1  0.6255318E-006  0.8270103E+02  0.7818608E-02  0.1442741E+00
          2   -1    0    0  502    0  0.00000000000E+00  0.00000000000E+00  0.40878894627E+03  0.40878894627E+03  0.00000000000E+00 0. -1.
          1   -1    0    0  501    0 -0.00000000000E+00 -0.00000000000E+00 -0.10298506614E+04  0.10298506614E+04  0.00000000000E+00 0. -1.
         25    2    1    2    0    0  0.31928460913E+02 -0.41947058024E+02  0.63151991010E+02  0.14964207779E+03  0.12500238071E+03 0.  0.
          2    1    1    2  501    0 -0.54815435074E+02  0.62587020131E+02 -0.98406041061E+03  0.98757114111E+03  0.00000000000E+00 0. -1.
          1    1    1    2  502    0  0.22886974160E+02 -0.20639962107E+02  0.29984670451E+03  0.30142638874E+03  0.00000000000E+00 0. -1.
         22    1    3    3    0    0  0.41904290770E+02 -0.42626632620E+02  0.97226129479E+02  0.11413115108E+03  0.00000000000E+00 0. -1.
         22    1    3    3    0    0 -0.99758298565E+01  0.67957459628E+00 -0.34074138470E+02  0.35510926704E+02  0.00000000000E+00 0. -1.
</event>
<event>
 7    1  0.6255318E-006  0.1404925E+03  0.7818608E-02  0.1344852E+00
          2   -1    0    0  502    0  0.00000000000E+00  0.00000000000E+00  0.36184450332E+04  0.36184450332E+04  0.00000000000E+00 0. -1.
          1   -1    0    0  501    0 -0.00000000000E+00 -0.00000000000E+00 -0.23020953984E+02  0.23020953984E+02  0.00000000000E+00 0. -1.
         25    2    1    2    0    0  0.28234880382E+01  0.14641039338E+03  0.10893777537E+04  0.11062604420E+04  0.12499719891E+03 0.  0.
          2    1    1    2  501    0 -0.40516581440E+02 -0.13394391358E+03  0.32560199747E+03  0.35439981111E+03  0.00000000000E+00 0. -1.
          1    1    1    2  502    0  0.37693093402E+02 -0.12466479797E+02  0.21804443280E+04  0.21808057341E+04  0.00000000000E+00 0. -1.
         22    1    3    3    0    0  0.47622994726E+02  0.13875416524E+03  0.80090642521E+03  0.81423078420E+03  0.00000000000E+00 0.  1.
         22    1    3    3    0    0 -0.44799506688E+02  0.76562281416E+01  0.28847132853E+03  0.29202965777E+03  0.00000000000E+00 0.  1.
</event>
<event>
 7    1  0.6255318E-006  0.8792494E+02  0.7818608E-02  0.1478728E+00
          2   -1    0    0  502    0  0.00000000000E+00  0.00000000000E+00  0.21116565502E+04  0.21116565502E+04  0.00000000000E+00 0. -1.
          1   -1    0    0  501    0 -0.00000000000E+00 -0.00000000000E+00 -0.29528884977E+02  0.29528884977E+02  0.00000000000E+00 0. -1.
         25    2    1    2    0    0 -0.44605570327E+01 -0.10861189090E+03  0.35194123780E+03  0.38898037550E+03  0.12500663279E+03 0.  0.
          2    1    1    2  501    0  0.43231363164E+01  0.21902412160E+02  0.26361642216E+01  0.22480091811E+02  0.00000000000E+00 0. -1.
          1    1    1    2  502    0  0.13742071625E+00  0.86709478742E+02  0.17275502632E+04  0.17297249679E+04  0.00000000000E+00 0. -1.
         22    1    3    3    0    0  0.92983839832E+01 -0.92322013378E+02  0.35545804759E+03  0.36736934779E+03  0.00000000000E+00 0.  1.
         22    1    3    3    0    0 -0.13758941016E+02 -0.16289877524E+02 -0.35168097858E+01  0.21611027711E+02  0.00000000000E+00 0.  1.
</event>
<event>
 7    1  0.6255318E-006  0.8586115E+02  0.7818608E-02  0.1357267E+00
          2   -1    0    0  502    0  0.00000000000E+00  0.00000000000E+00  0.28017691787E+03  0.28017691787E+03  0.00000000000E+00 0. -1.
          1   -1    0    0  501    0 -0.00000000000E+00 -0.00000000000E+00 -0.38486906140E+03  0.38486906140E+03  0.00000000000E+00 0. -1.
         25    2    1    2    0    0 -0.44077623466E+02 -0.77268738472E+02 -0.15272343555E+03  0.21647767060E+03  0.12499935707E+03 0.  0.
          2    1    1    2  501    0 -0.13255102981E+02  0.88608179653E+02 -0.18647897599E+03  0.20688527193E+03  0.00000000000E+00 0. -1.
          1    1    1    2  502    0  0.57332726447E+02 -0.11339441181E+02  0.23451026801E+03  0.24168303674E+03  0.00000000000E+00 0. -1.
         22    1    3    3    0    0  0.19210419316E+02 -0.49691406226E+02 -0.51115249688E+01  0.53520124724E+02  0.00000000000E+00 0. -1.
         22    1    3    3    0    0 -0.63288042781E+02 -0.27577332246E+02 -0.14761191058E+03  0.16295754588E+03  0.00000000000E+00 0. -1.
</event>
<event>
 7    1  0.6255318E-006  0.4093462E+02  0.7818608E-02  0.1518220E+00
          2   -1    0    0  502    0  0.00000000000E+00  0.00000000000E+00  0.10799249661E+04  0.10799249661E+04  0.00000000000E+00 0. -1.
          1   -1    0    0  501    0 -0.00000000000E+00 -0.00000000000E+00 -0.19085221451E+03  0.19085221451E+03  0.00000000000E+00 0. -1.
         25    2    1    2    0    0 -0.18770515047E+02 -0.26637221023E+01  0.35999257245E+03  0.38155020302E+03  0.12500591008E+03 0.  0.
          2    1    1    2  501    0  0.13592260521E+02  0.38828906340E+02 -0.17724547253E+03  0.18195711320E+03  0.00000000000E+00 0. -1.
          1    1    1    2  502    0  0.51782545250E+01 -0.36165184238E+02  0.70632565170E+03  0.70726986442E+03  0.00000000000E+00 0. -1.
         22    1    3    3    0    0 -0.50938779034E+02 -0.16010749537E+02  0.63267150437E+02  0.82787895459E+02  0.00000000000E+00 0.  1.
         22    1    3    3    0    0  0.32168263987E+02  0.13347027435E+02  0.29672542201E+03  0.29876230756E+03  0.00000000000E+00 0.  1.
</event>
<event>
 7    1  0.6255318E-006  0.5742341E+02  0.7818608E-02  0.1434071E+00
          2   -1    0    0  502    0  0.00000000000E+00  0.00000000000E+00  0.91667057281E+03  0.91667057281E+03  0.00000000000E+00 0. -1.
          1   -1    0    0  501    0 -0.00000000000E+00 -0.00000000000E+00 -0.15070904194E+03  0.15070904194E+03  0.00000000000E+00 0. -1.
         25    2    1    2    0    0 -0.49851317805E+02  0.32247298902E+02  0.20896393996E+03  0.25063458193E+03  0.12500689292E+03 0.  0.
          2    1    1    2  501    0  0.40026382250E+02  0.25321562527E+02 -0.12426423769E+03  0.13298456141E+03  0.00000000000E+00 0. -1.
          1    1    1    2  502    0  0.98249355549E+01 -0.57568861429E+02  0.68126182860E+03  0.68376047141E+03  0.00000000000E+00 0. -1.
         22    1    3    3    0    0 -0.40233703951E+02  0.27352652610E+01  0.21522448279E+03  0.21896988514E+03  0.00000000000E+00 0. -1.
         22    1    3    3    0    0 -0.96176138537E+01  0.29512033641E+02 -0.62605428203E+01  0.31664696782E+02  0.00000000000E+00 0. -1.
</event>
<event>
 7    1  0.6255318E-006  0.1572978E+03  0.7818608E-02  0.1293077E+00
          2   -1    0    0  502    0  0.00000000000E+00  0.00000000000E+00  0.18819177292E+04  0.18819177292E+04  0.00000000000E+00 0. -1.
          1   -1    0    0  501    0 -0.00000000000E+00 -0.00000000000E+00 -0.13640279808E+03  0.13640279808E+03  0.00000000000E+00 0. -1.
         25    2    1    2    0    0  0.87714156505E+02  0.92246092103E+02  0.18854890399E+03  0.25957442640E+03  0.12500031555E+03 0.  0.
          2    1    1    2  501    0 -0.79238392392E+02 -0.14797148846E+03 -0.30227510496E+02  0.17055200561E+03  0.00000000000E+00 0. -1.
          1    1    1    2  502    0 -0.84757641125E+01  0.55725396361E+02  0.15871935376E+04  0.15881940952E+04  0.00000000000E+00 0. -1.
         22    1    3    3    0    0  0.70484165880E+02  0.11828834591E+03  0.18104616993E+03  0.22745959216E+03  0.00000000000E+00 0. -1.
         22    1    3    3    0    0  0.17229990625E+02 -0.26042253807E+02  0.75027340610E+01  0.32114834247E+02  0.00000000000E+00 0. -1.
</event>
<event>
 7    1  0.6255318E-006  0.1447965E+03  0.7818608E-02  0.1219356E+00
          2   -1    0    0  502    0  0.00000000000E+00  0.00000000000E+00  0.21703549531E+04  0.21703549531E+04  0.00000000000E+00 0. -1.
          1   -1    0    0  501    0 -0.00000000000E+00 -0.00000000000E+00 -0.26568379638E+04  0.26568379638E+04  0.00000000000E+00 0. -1.
         25    2    1    2    0    0  0.32597866950E+02 -0.22208471921E+03 -0.71702594601E+03  0.76166596458E+03  0.12499836364E+03 0.  0.
          2    1    1    2  501    0  0.53080026913E+02  0.12832067378E+03 -0.19130955822E+04  0.19181288776E+04  0.00000000000E+00 0. -1.
          1    1    1    2  502    0 -0.85677893863E+02  0.93764045428E+02  0.21436385175E+04  0.21473980747E+04  0.00000000000E+00 0. -1.
         22    1    3    3    0    0 -0.41847151848E+02 -0.97576853707E+02 -0.22669556311E+03  0.25032639659E+03  0.00000000000E+00 0. -1.
         22    1    3    3    0    0  0.74445018798E+02 -0.12450786550E+03 -0.49033038289E+03  0.51133956798E+03  0.00000000000E+00 0. -1.
</event>
<event>
 7    1  0.6255318E-006  0.6172155E+02  0.7818608E-02  0.1477555E+00
          2   -1    0    0  502    0  0.00000000000E+00  0.00000000000E+00  0.92924886054E+03  0.92924886054E+03  0.00000000000E+00 0. -1.
          1   -1    0    0  501    0 -0.00000000000E+00 -0.00000000000E+00 -0.13020149544E+03  0.13020149544E+03  0.00000000000E+00 0. -1.
         25    2    1    2    0    0  0.18249163690E+01 -0.71655626987E+02  0.66113756579E+02  0.15853510966E+03  0.12499797193E+03 0.  0.
          2    1    1    2  501    0 -0.27910941288E+02  0.15791069794E+02 -0.79718934114E+02  0.85927219117E+02  0.00000000000E+00 0. -1.
          1    1    1    2  502    0  0.26086024919E+02  0.55864557193E+02  0.81265254263E+03  0.81498802720E+03  0.00000000000E+00 0. -1.
         22    1    3    3    0    0  0.37445694338E+02 -0.79824097549E+02  0.80373554261E+02  0.11930622280E+03  0.00000000000E+00 0.  1.
         22    1    3    3    0    0 -0.35620777969E+02  0.81684705616E+01 -0.14259797682E+02  0.39228886861E+02  0.00000000000E+00 0.  1.
</event>
<event>
 7    1  0.6255318E-006  0.3056895E+03  0.7818608E-02  0.1207563E+00
          2   -1    0    0  502    0  0.00000000000E+00  0.00000000000E+00  0.11061818728E+04  0.11061818728E+04  0.00000000000E+00 0. -1.
          1   -1    0    0  501    0 -0.00000000000E+00 -0.00000000000E+00 -0.57548101685E+03  0.57548101685E+03  0.00000000000E+00 0. -1.
         25    2    1    2    0    0 -0.25821677933E+03  0.96081310880E+01 -0.17227080067E+03  0.33476980646E+03  0.12500149297E+03 0.  0.
          2    1    1    2  501    0 -0.49954071767E+02 -0.46409313889E+02 -0.29448051441E+03  0.30227141292E+03  0.00000000000E+00 0. -1.
          1    1    1    2  502    0  0.30817085109E+03  0.36801182801E+02  0.99745217103E+03  0.10446216703E+04  0.00000000000E+00 0. -1.
         22    1    3    3    0    0 -0.26791602773E+03 -0.45097272817E+01 -0.17038428251E+03  0.31753761869E+03  0.00000000000E+00 0. -1.
         22    1    3    3    0    0  0.96992484066E+01  0.14117858370E+02 -0.18865181611E+01  0.17232187771E+02  0.00000000000E+00 0. -1.
</event>
<event>
 7    1  0.6255318E-006  0.7175614E+02  0.7818608E-02  0.1356390E+00
          2   -1    0    0  502    0  0.00000000000E+00  0.00000000000E+00  0.38287393130E+03  0.38287393130E+03  0.00000000000E+00 0. -1.
          1   -1    0    0  501    0 -0.00000000000E+00 -0.00000000000E+00 -0.16646317371E+03  0.16646317371E+03  0.00000000000E+00 0. -1.
         25    2    1    2    0    0 -0.80011748922E+02 -0.34688378274E+02  0.23622456381E+03  0.28112704287E+03  0.12500082454E+03 0.  0.
          2    1    1    2  501    0  0.61957011122E+02 -0.36197675851E+02 -0.12259815946E+03  0.14205369290E+03  0.00000000000E+00 0. -1.
          1    1    1    2  502    0  0.18054737800E+02  0.70886054125E+02  0.10278435325E+03  0.12615636924E+03  0.00000000000E+00 0. -1.
         22    1    3    3    0    0  0.45923444175E+01  0.37873350307E+02  0.85885564858E+02  0.93977713005E+02  0.00000000000E+00 0.  1.
         22    1    3    3    0    0 -0.84604093339E+02 -0.72561728580E+02  0.15033899895E+03  0.18714932987E+03  0.00000000000E+00 0.  1.
</event>
<event>
 7    1  0.6255318E-006  0.3352162E+03  0.7818608E-02  0.1149821E+00
          2   -1    0    0  502    0  0.00000000000E+00  0.00000000000E+00  0.47690905236E+03  0.47690905236E+03  0.00000000000E+00 0. -1.
          1   -1    0    0  501    0 -0.00000000000E+00 -0.00000000000E+00 -0.16164432642E+04  0.16164432642E+04  0.00000000000E+00 0. -1.
         25    2    1    2    0    0  0.32793509977E+03 -0.15143072241E+02  0.10817665010E+03  0.36755706253E+03  0.12500105716E+03 0.  0.
          2    1    1    2  501    0 -0.31003785377E+03  0.13300204571E+03 -0.14512333387E+04  0.14899299374E+04  0.00000000000E+00 0. -1.
          1    1    1    2  502    0 -0.17897246004E+02 -0.11785897347E+03  0.20352247677E+03  0.23586531664E+03  0.00000000000E+00 0. -1.
         22    1    3    3    0    0  0.60263843678E+02  0.97855438700E+01 -0.26880448600E+02  0.66708666908E+02  0.00000000000E+00 0.  1.
         22    1    3    3    0    0  0.26767125609E+03 -0.24928616111E+02  0.13505709870E+03  0.30084839562E+03  0.00000000000E+00 0.  1.
</event>
<event>
 7    1  0.6255318E-006  0.1675010E+03  0.7818608E-02  0.1319390E+00
          2   -1    0    0  502    0  0.00000000000E+00  0.00000000000E+00  0.10483687814E+04  0.10483687814E+04  0.00000000000E+00 0. -1.
          1   -1    0    0  501    0 -0.00000000000E+00 -0.00000000000E+00 -0.14899629231E+03  0.14899629231E+03  0.00000000000E+00 0. -1.
         25    2    1    2    0    0  0.44831519166E+02  0.13219782999E+03  0.33328946285E+03  0.38235101888E+03  0.12499721689E+03 0.  0.
          2    1    1    2  501    0  0.16833308277E+02  0.38074749567E+02 -0.10867570119E+03  0.11637635005E+03  0.00000000000E+00 0. -1.
          1    1    1    2  502    0 -0.61664827443E+02 -0.17027257955E+03  0.67475872745E+03  0.69863770479E+03  0.00000000000E+00 0. -1.
         22    1    3    3    0    0  0.35759927448E+02 -0.14977776537E+02  0.53331190503E+02  0.65934225419E+02  0.00000000000E+00 0.  1.
         22    1    3    3    0    0  0.90715917176E+01  0.14717560652E+03  0.27995827234E+03  0.31641679346E+03  0.00000000000E+00 0.  1.
</event>
<event>
 7    1  0.6255318E-006  0.8225587E+02  0.7818608E-02  0.1438613E+00
          2   -1    0    0  502    0  0.00000000000E+00  0.00000000000E+00  0.12409499315E+04  0.12409499315E+04  0.00000000000E+00 0. -1.
          1   -1    0    0  501    0 -0.00000000000E+00 -0.00000000000E+00 -0.46341958403E+03  0.46341958403E+03  0.00000000000E+00 0. -1.
         25    2    1    2    0    0  0.27174738913E+02 -0.84979507319E+02  0.81471629991E+03  0.82906456405E+03  0.12500167571E+03 0.  0.
          2    1    1    2  501    0 -0.51437102509E+02  0.64182957169E+02 -0.45191879907E+03  0.45934282237E+03  0.00000000000E+00 0. -1.
          1    1    1    2  502    0  0.24262363595E+02  0.20796550150E+02  0.41473284659E+03  0.41596212907E+03  0.00000000000E+00 0. -1.
         22    1    3    3    0    0  0.39521909621E+02  0.22291992421E+02  0.22126700393E+03  0.22587164783E+03  0.00000000000E+00 0. -1.
         22    1    3    3    0    0 -0.12347170707E+02 -0.10727149974E+03  0.59344929598E+03  0.60319291622E+03  0.00000000000E+00 0. -1.
</event>
<event>
 7    1  0.6255318E-006  0.6273224E+02  0.7818608E-02  0.1404176E+00
          2   -1    0    0  502    0  0.00000000000E+00  0.00000000000E+00  0.19972880777E+04  0.19972880777E+04  0.00000000000E+00 0. -1.
          1   -1    0    0  501    0 -0.00000000000E+00 -0.00000000000E+00 -0.83589370892E+02  0.83589370892E+02  0.00000000000E+00 0. -1.
         25    2    1    2    0    0 -0.96653850367E+01  0.27109552253E+02  0.14005998023E+03  0.18992113982E+03  0.12499957518E+03 0.  0.
          2    1    1    2  501    0  0.64080447351E+02 -0.22878493096E+02 -0.38377090057E+02  0.78118693155E+02  0.00000000000E+00 0. -1.
          1    1    1    2  502    0 -0.54415062314E+02 -0.42310591579E+01  0.18120158166E+04  0.18128376156E+04  0.00000000000E+00 0. -1.
         22    1    3    3    0    0 -0.18445470015E+02 -0.47042803606E+02  0.77448257059E+02  0.92474284299E+02  0.00000000000E+00 0. -1.
         22    1    3    3    0    0  0.87800849783E+01  0.74152355860E+02  0.62611723170E+02  0.97446855517E+02  0.00000000000E+00 0. -1.
</event>
<event>
 7    1  0.6255318E-006  0.8216358E+02  0.7818608E-02  0.1482010E+00
          2   -1    0    0  502    0  0.00000000000E+00  0.00000000000E+00  0.32325695426E+04  0.32325695426E+04  0.00000000000E+00 0. -1.
          1   -1    0    0  501    0 -0.00000000000E+00 -0.00000000000E+00 -0.47857063576E+03  0.47857063576E+03  0.00000000000E+00 0. -1.
         25    2    1    2    0    0  0.24199504976E+02  0.10009221277E+03  0.21591770572E+04  0.21652426502E+04  0.12500441152E+03 0.  0.
          2    1    1    2  501    0 -0.28279759078E+02 -0.77108239628E+02 -0.47186298202E+03  0.47895730414E+03  0.00000000000E+00 0. -1.
          1    1    1    2  502    0  0.40802541020E+01 -0.22983973139E+02  0.10666848316E+04  0.10669402240E+04  0.00000000000E+00 0. -1.
         22    1    3    3    0    0 -0.58472702599E+01  0.26135847277E+02  0.16168755706E+04  0.16170973638E+04  0.00000000000E+00 0. -1.
         22    1    3    3    0    0  0.30046775236E+02  0.73956365490E+02  0.54230148660E+03  0.54814528646E+03  0.00000000000E+00 0. -1.
</event>
<event>
 7    1  0.6255318E-006  0.7238870E+02  0.7818608E-02  0.1353596E+00
          2   -1    0    0  502    0  0.00000000000E+00  0.00000000000E+00  0.17566377192E+04  0.17566377192E+04  0.00000000000E+00 0. -1.
          1   -1    0    0  501    0 -0.00000000000E+00 -0.00000000000E+00 -0.37963668707E+02  0.37963668707E+02  0.00000000000E+00 0. -1.
         25    2    1    2    0    0  0.13460833916E+01 -0.87867998873E+02  0.66738442372E+03  0.68465602207E+03  0.12501720825E+03 0.  0.
          2    1    1    2  501    0 -0.58352787367E+02  0.44699657093E+02  0.19997935003E+02  0.76177585563E+02  0.00000000000E+00 0. -1.
          1    1    1    2  502    0  0.57006703976E+02  0.43168341780E+02  0.10312916918E+04  0.10337677803E+04  0.00000000000E+00 0. -1.
         22    1    3    3    0    0  0.49456992704E+02 -0.29045364345E+02  0.13223224430E+03  0.14413533137E+03  0.00000000000E+00 0.  1.
         22    1    3    3    0    0 -0.48110909313E+02 -0.58822634528E+02  0.53515217943E+03  0.54052069070E+03  0.00000000000E+00 0.  1.
</event>
<event>
 7    1  0.6255318E-006  0.9037821E+02  0.7818608E-02  0.1443789E+00
          2   -1    0    0  502    0  0.00000000000E+00  0.00000000000E+00  0.86715904495E+02  0.86715904495E+02  0.00000000000E+00 0. -1.
          1   -1    0    0  501    0 -0.00000000000E+00 -0.00000000000E+00 -0.70256402116E+03  0.70256402116E+03  0.00000000000E+00 0. -1.
         25    2    1    2    0    0 -0.80991899697E+02 -0.80029577827E+02 -0.29444364923E+03  0.33953675046E+03  0.12499488469E+03 0.  0.
          2    1    1    2  501    0  0.11801426111E+02  0.25371916439E+02 -0.35446982588E+03  0.35557258789E+03  0.00000000000E+00 0. -1.
          1    1    1    2  502    0  0.69190473586E+02  0.54657661388E+02  0.33065358446E+02  0.94170587301E+02  0.00000000000E+00 0. -1.
         22    1    3    3    0    0 -0.54890148002E+02 -0.25453680040E+02 -0.28649539894E+02  0.66944860231E+02  0.00000000000E+00 0.  1.
         22    1    3    3    0    0 -0.26101751695E+02 -0.54575897787E+02 -0.26579410934E+03  0.27259189023E+03  0.00000000000E+00 0.  1.
</event>
<event>
 7    1  0.6255318E-006  0.2978193E+02  0.7818608E-02  0.1607172E+00
          2   -1    0    0  502    0  0.00000000000E+00  0.00000000000E+00  0.63785153910E+02  0.63785153910E+02  0.00000000000E+00 0. -1.
          1   -1    0    0  501    0 -0.00000000000E+00 -0.00000000000E+00 -0.38836648872E+03  0.38836648872E+03  0.00000000000E+00 0. -1.
         25    2    1    2    0    0  0.18271053724E+02 -0.56971009350E+00 -0.65543105932E+02  0.14232234429E+03  0.12500237988E+03 0.  0.
          2    1    1    2  501    0 -0.10925779856E+02  0.28228733982E+02 -0.27526967749E+03  0.27692892487E+03  0.00000000000E+00 0. -1.
          1    1    1    2  502    0 -0.73452738680E+01 -0.27659023889E+02  0.16231448605E+02  0.32900373470E+02  0.00000000000E+00 0. -1.
         22    1    3    3    0    0  0.24573986014E+02 -0.56495933308E+02 -0.85066367586E+01  0.62193521671E+02  0.00000000000E+00 0.  1.
         22    1    3    3    0    0 -0.63029322898E+01  0.55926223214E+02 -0.57036469173E+02  0.80128822618E+02  0.00000000000E+00 0.  1.
</event>
<event>
 7    1  0.6255318E-006  0.6821913E+02  0.7818608E-02  0.1413567E+00
          2   -1    0    0  502    0  0.00000000000E+00  0.00000000000E+00  0.20591845545E+04  0.20591845545E+04  0.00000000000E+00 0. -1.
          1   -1    0    0  501    0 -0.00000000000E+00 -0.00000000000E+00 -0.63849254993E+03  0.63849254993E+03  0.00000000000E+00 0. -1.
         25    2    1    2    0    0 -0.22727972121E+02  0.70522442147E+02  0.19268581573E+03  0.24133458365E+03  0.12499832847E+03 0.  0.
          2    1    1    2  501    0 -0.33894560373E+02 -0.32034527165E+02 -0.61264544884E+03  0.61441801579E+03  0.00000000000E+00 0. -1.
          1    1    1    2  502    0  0.56622532494E+02 -0.38487914982E+02  0.18406516377E+04  0.18419245050E+04  0.00000000000E+00 0. -1.
         22    1    3    3    0    0  0.11823821901E+02  0.47881872708E+02  0.19383352917E+03  0.20000978358E+03  0.00000000000E+00 0.  1.
         22    1    3    3    0    0 -0.34551794022E+02  0.22640569439E+02 -0.11477134437E+01  0.41324800070E+02  0.00000000000E+00 0.  1.
</event>
<event>
 7    1  0.6255318E-006  0.1172642E+03  0.7818608E-02  0.1369755E+00
          2   -1    0    0  502    0  0.00000000000E+00  0.00000000000E+00  0.42433702787E+03  0.42433702787E+03  0.00000000000E+00 0. -1.
          1   -1    0    0  501    0 -0.00000000000E+00 -0.00000000000E+00 -0.15485740503E+03  0.15485740503E+03  0.00000000000E+00 0. -1.
         25    2    1    2    0    0  0.73001848955E+02  0.52498371774E+02 -0.12794940858E+02  0.15450343963E+03  0.12498901295E+03 0.  0.
          2    1    1    2  501    0  0.74468856854E+01  0.37824490292E+02 -0.54555598406E+02  0.66801657837E+02  0.00000000000E+00 0. -1.
          1    1    1    2  502    0 -0.80448734641E+02 -0.90322862066E+02  0.33683016210E+03  0.35788933543E+03  0.00000000000E+00 0. -1.
         22    1    3    3    0    0  0.52608033242E+02  0.80645703250E+02 -0.45751377819E+02  0.10660451767E+03  0.00000000000E+00 0. -1.
         22    1    3    3    0    0  0.20393815713E+02 -0.28147331476E+02  0.32956436961E+02  0.47898921968E+02  0.00000000000E+00 0. -1.
</event>
<event>
 7    1  0.6255318E-006  0.1121245E+03  0.7818608E-02  0.1311834E+00
          2   -1    0    0  502    0  0.00000000000E+00  0.00000000000E+00  0.22984316804E+03  0.22984316804E+03  0.00000000000E+00 0. -1.
          1   -1    0    0  501    0 -0.00000000000E+00 -0.00000000000E+00 -0.17070530465E+04  0.17070530465E+04  0.00000000000E+00 0. -1.
         25    2    1    2    0    0  0.13452380644E+03 -0.18344803478E+02 -0.13059375927E+03  0.22608822722E+03  0.12501188029E+03 0.  0.
          2    1    1    2  501    0 -0.10408494305E+03 -0.40851720663E+02 -0.15205068198E+04  0.15246125828E+04  0.00000000000E+00 0. -1.
          1    1    1    2  502    0 -0.30438863388E+02  0.59196524141E+02  0.17389070067E+03  0.18619540450E+03  0.00000000000E+00 0. -1.
         22    1    3    3    0    0  0.74341546052E+01  0.14791505982E+02 -0.85707067986E+02  0.87291218382E+02  0.00000000000E+00 0.  1.
         22    1    3    3    0    0  0.12708965183E+03 -0.33136309460E+02 -0.44886691279E+02  0.13879700883E+03  0.00000000000E+00 0.  1.
</event>
<event>
 7    1  0.6255318E-006  0.6930267E+02  0.7818608E-02  0.1373748E+00
          2   -1    0    0  502    0  0.00000000000E+00  0.00000000000E+00  0.28756431367E+03  0.28756431367E+03  0.00000000000E+00 0. -1.
          1   -1    0    0  501    0 -0.00000000000E+00 -0.00000000000E+00 -0.22084212685E+03  0.22084212685E+03  0.00000000000E+00 0. -1.
         25    2    1    2    0    0 -0.44841933273E+01  0.10988011018E+02 -0.33477368656E+02  0.12995121172E+03  0.12500295532E+03 0.  0.
          2    1    1    2  501    0  0.10319873196E+02  0.62264664101E+02 -0.12583484598E+03  0.14077569620E+03  0.00000000000E+00 0. -1.
          1    1    1    2  502    0 -0.58356798688E+01 -0.73252675119E+02  0.22603440146E+03  0.23767953260E+03  0.00000000000E+00 0. -1.
         22    1    3    3    0    0  0.58592992348E+02  0.14565766326E+02 -0.27948033255E+02  0.66531142060E+02  0.00000000000E+00 0.  1.
         22    1    3    3    0    0 -0.63077185675E+02 -0.35777553073E+01 -0.55293354002E+01  0.63420069660E+02  0.00000000000E+00 0.  1.
</event>
<event>
 7    1  0.6255318E-006  0.3033696E+03  0.7818608E-02  0.1166328E+00
          2   -1    0    0  502    0  0.00000000000E+00  0.00000000000E+00  0.16583779159E+04  0.16583779159E+04  0.00000000000E+00 0. -1.
          1   -1    0    0  501    0 -0.00000000000E+00 -0.00000000000E+00 -0.12363707034E+04  0.12363707034E+04  0.00000000000E+00 0. -1.
         25    2    1    2    0    0 -0.36097691536E+03  0.15871718186E+03  0.33925720844E+03  0.53499142833E+03  0.12499959070E+03 0.  0.
          2    1    1    2  501    0  0.28938916589E+03 -0.77017133921E+02 -0.11163138555E+04  0.11557830040E+04  0.00000000000E+00 0. -1.
          1    1    1    2  502    0  0.71587749463E+02 -0.81700047939E+02  0.11990638596E+04  0.12039741870E+04  0.00000000000E+00 0. -1.
         22    1    3    3    0    0  0.59501815636E+01  0.45799941765E+01 -0.47925043319E+01  0.89078114634E+01  0.00000000000E+00 0.  1.
         22    1    3    3    0    0 -0.36692709692E+03  0.15413718768E+03  0.34404971277E+03  0.52608361687E+03  0.00000000000E+00 0.  1.
</event>
<event>
 7    1  0.6255318E-006  0.6122422E+02  0.7818608E-02  0.1472210E+00
          2   -1    0    0  502    0  0.00000000000E+00  0.00000000000E+00  0.84301267236E+03  0.84301267236E+03  0.00000000000E+00 0. -1.
          1   -1    0    0  501    0 -0.00000000000E+00 -0.00000000000E+00 -0.93264610776E+02  0.93264610776E+02  0.00000000000E+00 0. -1.
         25    2    1    2    0    0 -0.51795837296E+02 -0.65730132817E+02  0.24198155173E+03  0.28492690358E+03  0.12500003955E+03 0.  0.
          2    1    1    2  501    0  0.19321106397E+02  0.57179002999E+02 -0.58520934210E+02  0.84068087150E+02  0.00000000000E+00 0. -1.
          1    1    1    2  502    0  0.32474730899E+02  0.85511298179E+01  0.56628744406E+03  0.56728229240E+03  0.00000000000E+00 0. -1.
         22    1    3    3    0    0  0.17096963280E+02 -0.78171192802E+02  0.11865207175E+03  0.14311308699E+03  0.00000000000E+00 0. -1.
         22    1    3    3    0    0 -0.68892800576E+02  0.12441059986E+02  0.12332947997E+03  0.14181381659E+03  0.00000000000E+00 0. -1.
</event>
<event>
 7    1  0.6255318E-006  0.5066833E+02  0.7818608E-02  0.1470177E+00
          2   -1    0    0  502    0  0.00000000000E+00  0.00000000000E+00  0.47272497748E+02  0.47272497748E+02  0.00000000000E+00 0. -1.
          1   -1    0    0  501    0 -0.00000000000E+00 -0.00000000000E+00 -0.10728978321E+04  0.10728978321E+04  0.00000000000E+00 0. -1.
         25    2    1    2    0    0  0.62539849298E+02  0.34917413670E+02 -0.43045315432E+03  0.45392254794E+03  0.12500121174E+03 0.  0.
          2    1    1    2  501    0 -0.49640419167E+02  0.41816246651E+01 -0.61743554424E+03  0.61944193310E+03  0.00000000000E+00 0. -1.
          1    1    1    2  502    0 -0.12899430131E+02 -0.39099038335E+02  0.22263364206E+02  0.46805848804E+02  0.00000000000E+00 0. -1.
         22    1    3    3    0    0 -0.33167041473E+02  0.22009751180E+02 -0.67707390596E+02  0.78541533779E+02  0.00000000000E+00 0. -1.
         22    1    3    3    0    0  0.95706890771E+02  0.12907662490E+02 -0.36274576373E+03  0.37538101416E+03  0.00000000000E+00 0. -1.
</event>
<event>
 7    1  0.6255318E-006  0.9711914E+02  0.7818608E-02  0.1362786E+00
          2   -1    0    0  502    0  0.00000000000E+00  0.00000000000E+00  0.48007096112E+03  0.48007096112E+03  0.00000000000E+00 0. -1.
          1   -1    0    0  501    0 -0.00000000000E+00 -0.00000000000E+00 -0.70436425962E+03  0.70436425962E+03  0.00000000000E+00 0. -1.
         25    2    1    2    0    0 -0.53538296492E+02 -0.40475071226E+02 -0.13323636958E+03  0.19463076719E+03  0.12499849910E+03 0.  0.
          2    1    1    2  501    0 -0.43340190006E+02  0.23553396673E+02 -0.53389944072E+03  0.53617324379E+03  0.00000000000E+00 0. -1.
          1    1    1    2  502    0  0.96878486498E+02  0.16921674553E+02  0.44284251179E+03  0.45363120975E+03  0.00000000000E+00 0. -1.
         22    1    3    3    0    0 -0.26906036229E+02 -0.85321285880E+02 -0.78462658762E+02  0.11899598913E+03  0.00000000000E+00 0. -1.
         22    1    3    3    0    0 -0.26632260263E+02  0.44846214654E+02 -0.54773710815E+02  0.75634778058E+02  0.00000000000E+00 0. -1.
</event>
<event>
 7    1  0.6255318E-006  0.8949573E+02  0.7818608E-02  0.1335820E+00
          2   -1    0    0  502    0  0.00000000000E+00  0.00000000000E+00  0.90724722505E+03  0.90724722505E+03  0.00000000000E+00 0. -1.
          1   -1    0    0  501    0 -0.00000000000E+00 -0.00000000000E+00 -0.76511290868E+03  0.76511290868E+03  0.00000000000E+00 0. -1.
         25    2    1    2    0    0  0.36260307794E+02  0.88331172920E+02  0.19478227868E+03  0.25036741968E+03  0.12500601075E+03 0.  0.
          2    1    1    2  501    0  0.31006025325E+02 -0.84200044053E+02 -0.73291928745E+03  0.73839129392E+03  0.00000000000E+00 0. -1.
          1    1    1    2  502    0 -0.67266333119E+02 -0.41311288671E+01  0.68027132514E+03  0.68360142013E+03  0.00000000000E+00 0. -1.
         22    1    3    3    0    0 -0.20449480612E+02  0.16323100260E+02  0.14242728787E+03  0.14481076337E+03  0.00000000000E+00 0. -1.
         22    1    3    3    0    0  0.56709788406E+02  0.72008072660E+02  0.52354990808E+02  0.10555665631E+03  0.00000000000E+00 0. -1.
</event>
<event>
 7    1  0.6255318E-006  0.7611596E+02  0.7818608E-02  0.1379485E+00
          2   -1    0    0  502    0  0.00000000000E+00  0.00000000000E+00  0.32096747025E+03  0.32096747025E+03  0.00000000000E+00 0. -1.
          1   -1    0    0  501    0 -0.00000000000E+00 -0.00000000000E+00 -0.22319664486E+03  0.22319664486E+03  0.00000000000E+00 0. -1.
         25    2    1    2    0    0 -0.23974771275E+02  0.68529125647E+02 -0.15181224428E+03  0.20962960044E+03  0.12500632442E+03 0.  0.
          2    1    1    2  501    0 -0.26512859204E+02 -0.89901633614E+02  0.16600633730E+02  0.95188321080E+02  0.00000000000E+00 0. -1.
          1    1    1    2  502    0  0.50487630480E+02  0.21372507967E+02  0.23298243594E+03  0.23934619359E+03  0.00000000000E+00 0. -1.
         22    1    3    3    0    0  0.14978692432E+02  0.85966202458E+02 -0.53254236061E+02  0.10222799446E+03  0.00000000000E+00 0. -1.
         22    1    3    3    0    0 -0.38953463707E+02 -0.17437076810E+02 -0.98558008221E+02  0.10740160598E+03  0.00000000000E+00 0. -1.
</event>
<event>
 7    1  0.6255318E-006  0.4062070E+02  0.7818608E-02  0.1604271E+00
          2   -1    0    0  502    0  0.00000000000E+00  0.00000000000E+00  0.15449089309E+04  0.15449089309E+04  0.00000000000E+00 0. -1.
          1   -1    0    0  501    0 -0.00000000000E+00 -0.00000000000E+00 -0.30219967760E+03  0.30219967760E+03  0.00000000000E+00 0. -1.
         25    2    1    2    0    0 -0.28602424267E+02 -0.36144621495E+02  0.89488317253E+02  0.16049397919E+03  0.12500250435E+03 0.  0.
          2    1    1    2  501    0  0.37089681383E+02  0.16555849989E+02 -0.26506959341E+03  0.26816343894E+03  0.00000000000E+00 0. -1.
          1    1    1    2  502    0 -0.84872571157E+01  0.19588771506E+02  0.14182905295E+04  0.14184511904E+04  0.00000000000E+00 0. -1.
         22    1    3    3    0    0  0.58456071287E+01  0.12678225439E+02 -0.26537631040E+02  0.29985903091E+02  0.00000000000E+00 0.  1.
         22    1    3    3    0    0 -0.34448031396E+02 -0.48822846934E+02  0.11602594829E+03  0.13050807610E+03  0.00000000000E+00 0.  1.
</event>
<event>
 7    1  0.6255318E-006  0.1374355E+03  0.7818608E-02  0.1389466E+00
          2   -1    0    0  502    0  0.00000000000E+00  0.00000000000E+00  0.22589499296E+03  0.22589499296E+03  0.00000000000E+00 0. -1.
          1   -1    0    0  501    0 -0.00000000000E+00 -0.00000000000E+00 -0.61484596911E+03  0.61484596911E+03  0.00000000000E+00 0. -1.
         25    2    1    2    0    0 -0.12547366730E+03 -0.66713957879E+01 -0.25155414722E+02  0.17901576773E+03  0.12500280596E+03 0.  0.
          2    1    1    2  501    0  0.13516810638E+03  0.32945168206E+02 -0.50189185408E+03  0.52081785135E+03  0.00000000000E+00 0. -1.
          1    1    1    2  502    0 -0.96944390760E+01 -0.26273772418E+02  0.13809629265E+03  0.14090734300E+03  0.00000000000E+00 0. -1.
         22    1    3    3    0    0 -0.47402365256E+02  0.76166313617E+01 -0.72235197056E+02  0.86734773873E+02  0.00000000000E+00 0.  1.
         22    1    3    3    0    0 -0.78071302046E+02 -0.14288027150E+02  0.47079782334E+02  0.92280993859E+02  0.00000000000E+00 0.  1.
</event>
<event>
 7    1  0.6255318E-006  0.6128891E+02  0.7818608E-02  0.1454458E+00
          2   -1    0    0  502    0  0.00000000000E+00  0.00000000000E+00  0.68053681440E+03  0.68053681440E+03  0.00000000000E+00 0. -1.
          1   -1    0    0  501    0 -0.00000000000E+00 -0.00000000000E+00 -0.97985334352E+03  0.97985334352E+03  0.00000000000E+00 0. -1.
         25    2    1    2    0    0 -0.21199431238E+02  0.11240900005E+02 -0.64823299348E+01  0.12744574809E+03  0.12499849754E+03 0.  0.
          2    1    1    2  501    0  0.57353124960E+02 -0.23389938925E+02 -0.91125047639E+03  0.91335310855E+03  0.00000000000E+00 0. -1.
          1    1    1    2  502    0 -0.36153693722E+02  0.12149038921E+02  0.61841627721E+03  0.61959130129E+03  0.00000000000E+00 0. -1.
         22    1    3    3    0    0 -0.66817636473E+02  0.35446785645E+02 -0.36692968166E+01  0.75726711902E+02  0.00000000000E+00 0.  1.
         22    1    3    3    0    0  0.45618205234E+02 -0.24205885640E+02 -0.28130331182E+01  0.51719036184E+02  0.00000000000E+00 0.  1.
</event>
<event>
 7    1  0.6255318E-006  0.2719191E+03  0.7818608E-02  0.1199688E+00
          2   -1    0    0  502    0  0.00000000000E+00  0.00000000000E+00  0.93265908087E+03  0.93265908087E+03  0.00000000000E+00 0. -1.
          1   -1    0    0  501    0 -0.00000000000E+00 -0.00000000000E+00 -0.22778246248E+04  0.22778246248E+04  0.00000000000E+00 0. -1.
         25    2    1    2    0    0  0.25199346052E+03  0.15986417803E+03 -0.32072162286E+03  0.45557102572E+03  0.12500136216E+03 0.  0.
          2    1    1    2  501    0  0.79620152253E+01 -0.83072523227E+02 -0.18674941005E+04  0.18693578184E+04  0.00000000000E+00 0. -1.
          1    1    1    2  502    0 -0.25995547575E+03 -0.76791654803E+02  0.84305017948E+03  0.88555486150E+03  0.00000000000E+00 0. -1.
         22    1    3    3    0    0  0.17579764987E+03  0.16848153722E+03 -0.27026879238E+03  0.36378023891E+03  0.00000000000E+00 0. -1.
         22    1    3    3    0    0  0.76195810648E+02 -0.86173591916E+01 -0.50452830483E+02  0.91790786811E+02  0.00000000000E+00 0. -1.
</event>
<event>
 7    1  0.6255318E-006  0.7774803E+02  0.7818608E-02  0.1510490E+00
          2   -1    0    0  502    0  0.00000000000E+00  0.00000000000E+00  0.43689784231E+03  0.43689784231E+03  0.00000000000E+00 0. -1.
          1   -1    0    0  501    0 -0.00000000000E+00 -0.00000000000E+00 -0.57910395582E+03  0.57910395582E+03  0.00000000000E+00 0. -1.
         25    2    1    2    0    0  0.57667667292E+02  0.16389858851E+02 -0.85099842339E+02  0.16266908566E+03  0.12500024376E+03 0.  0.
          2    1    1    2  501    0  0.14405053883E+02  0.14251573730E+02 -0.45113833574E+03  0.45159319183E+03  0.00000000000E+00 0. -1.
          1    1    1    2  502    0 -0.72072721174E+02 -0.30641432582E+02  0.39403206457E+03  0.40173952063E+03  0.00000000000E+00 0. -1.
         22    1    3    3    0    0  0.10094181003E+02  0.65908252376E+02 -0.24344475883E+02  0.70981995798E+02  0.00000000000E+00 0. -1.
         22    1    3    3    0    0  0.47573486288E+02 -0.49518393525E+02 -0.60755366456E+02  0.91687089866E+02  0.00000000000E+00 0. -1.
</event>
<event>
 7    1  0.6255318E-006  0.8251844E+02  0.7818608E-02  0.1364136E+00
          2   -1    0    0  502    0  0.00000000000E+00  0.00000000000E+00  0.20222621128E+03  0.20222621128E+03  0.00000000000E+00 0. -1.
          1   -1    0    0  501    0 -0.00000000000E+00 -0.00000000000E+00 -0.66722766095E+03  0.66722766095E+03  0.00000000000E+00 0. -1.
         25    2    1    2    0    0  0.79743742991E+02  0.97715630972E+02 -0.47013675981E+03  0.50255382350E+03  0.12499745400E+03 0.  0.
          2    1    1    2  501    0 -0.53766464274E+02 -0.20107280806E+02 -0.16684288068E+03  0.17644172482E+03  0.00000000000E+00 0. -1.
          1    1    1    2  502    0 -0.25977278717E+02 -0.77608350166E+02  0.17197819083E+03  0.19045832391E+03  0.00000000000E+00 0. -1.
         22    1    3    3    0    0  0.10262833976E+03  0.31495897765E+02 -0.29471145466E+03  0.31365492059E+03  0.00000000000E+00 0.  1.
         22    1    3    3    0    0 -0.22884596771E+02  0.66219733207E+02 -0.17542530515E+03  0.18889890292E+03  0.00000000000E+00 0.  1.
</event>
<event>
 7    1  0.6255318E-006  0.1444497E+03  0.7818608E-02  0.1286839E+00
          2   -1    0    0  502    0  0.00000000000E+00  0.00000000000E+00  0.39578894110E+03  0.39578894110E+03  0.00000000000E+00 0. -1.
          1   -1    0    0  501    0 -0.00000000000E+00 -0.00000000000E+00 -0.17863930835E+03  0.17863930835E+03  0.00000000000E+00 0. -1.
         25    2    1    2    0    0  0.11108762061E+03  0.34047162412E+02  0.36185831076E+02  0.17444142311E+03  0.12498290686E+03 0.  0.
          2    1    1    2  501    0 -0.13398930030E+03 -0.94956705522E+02 -0.40512827377E+02  0.16914844871E+03  0.00000000000E+00 0. -1.
          1    1    1    2  502    0  0.22901679695E+02  0.60909543110E+02  0.22147662904E+03  0.23083837763E+03  0.00000000000E+00 0. -1.
         22    1    3    3    0    0  0.50432138726E+02  0.13851150348E+02  0.80966111815E+02  0.96388620930E+02  0.00000000000E+00 0.  1.
         22    1    3    3    0    0  0.60655481881E+02  0.20196012063E+02 -0.44780280738E+02  0.78052802182E+02  0.00000000000E+00 0.  1.
</event>
<event>
 7    1  0.6255318E-006  0.1600478E+03  0.7818608E-02  0.1346577E+00
          2   -1    0    0  502    0  0.00000000000E+00  0.00000000000E+00  0.21968200510E+04  0.21968200510E+04  0.00000000000E+00 0. -1.
          1   -1    0    0  501    0 -0.00000000000E+00 -0.00000000000E+00 -0.27862670858E+03  0.27862670858E+03  0.00000000000E+00 0. -1.
         25    2    1    2    0    0 -0.18456028172E+03  0.12442794212E+02  0.63435637856E+03  0.67249547071E+03  0.12499928953E+03 0.  0.
          2    1    1    2  501    0  0.31623658470E+02  0.13380073057E+02 -0.25450458307E+03  0.25681056235E+03  0.00000000000E+00 0. -1.
          1    1    1    2  502    0  0.15293662325E+03 -0.25822867269E+02  0.15383415469E+04  0.15461407265E+04  0.00000000000E+00 0. -1.
         22    1    3    3    0    0 -0.14251811987E+03 -0.47332088691E+02  0.42540333900E+03  0.45113162374E+03  0.00000000000E+00 0. -1.
         22    1    3    3    0    0 -0.42042161847E+02  0.59774882903E+02  0.20895303957E+03  0.22136384696E+03  0.00000000000E+00 0. -1.
</event>
<event>
 7    1  0.6255318E-006  0.5462714E+02  0.7818608E-02  0.1452089E+00
          2   -1    0    0  502    0  0.00000000000E+00  0.00000000000E+00  0.16232177163E+04  0.16232177163E+04  0.00000000000E+00 0. -1.
          1   -1    0    0  501    0 -0.00000000000E+00 -0.00000000000E+00 -0.23096431118E+03  0.23096431118E+03  0.00000000000E+00 0. -1.
         25    2    1    2    0    0 -0.38015707911E+02  0.75509795472E+02  0.75313187345E+02  0.16865253989E+03  0.12499871904E+03 0.  0.
          2    1    1    2  501    0  0.38084810418E+02 -0.21104594453E+02 -0.18122218782E+03  0.18637955373E+03  0.00000000000E+00 0. -1.
          1    1    1    2  502    0 -0.69102506854E-01 -0.54405201020E+02  0.14981624056E+04  0.14991499339E+04  0.00000000000E+00 0. -1.
         22    1    3    3    0    0 -0.68087458746E+02  0.90430991502E+02  0.73636193331E+02  0.13504056883E+03  0.00000000000E+00 0.  1.
         22    1    3    3    0    0  0.30071750834E+02 -0.14921196029E+02  0.16769940139E+01  0.33611971054E+02  0.00000000000E+00 0.  1.
</event>
<event>
 7    1  0.6255318E-006  0.1171139E+03  0.7818608E-02  0.1301235E+00
          2   -1    0    0  502    0  0.00000000000E+00  0.00000000000E+00  0.70107377142E+03  0.70107377142E+03  0.00000000000E+00 0. -1.
          1   -1    0    0  501    0 -0.00000000000E+00 -0.00000000000E+00 -0.91695990515E+03  0.91695990515E+03  0.00000000000E+00 0. -1.
         25    2    1    2    0    0  0.11628219489E+03  0.10424557535E+03 -0.16866058881E+03  0.26164912756E+03  0.12500073163E+03 0.  0.
          2    1    1    2  501    0 -0.49129459453E+01 -0.70026597275E+02 -0.69483821632E+03  0.69837526319E+03  0.00000000000E+00 0. -1.
          1    1    1    2  502    0 -0.11136924894E+03 -0.34218978079E+02  0.64761267140E+03  0.65800928583E+03  0.00000000000E+00 0. -1.
         22    1    3    3    0    0  0.74151866733E+02  0.11636940904E+03 -0.72291451792E+02  0.15577673993E+03  0.00000000000E+00 0.  1.
         22    1    3    3    0    0  0.42130328156E+02 -0.12123833687E+02 -0.96369137018E+02  0.10587238763E+03  0.00000000000E+00 0.  1.
</event>
<event>
 7    1  0.6255318E-006  0.6294866E+02  0.7818608E-02  0.1491872E+00
          2   -1    0    0  502    0  0.00000000000E+00  0.00000000000E+00  0.21120552828E+04  0.21120552828E+04  0.00000000000E+00 0. -1.
          1   -1    0    0  501    0 -0.00000000000E+00 -0.00000000000E+00 -0.55870271031E+03  0.55870271031E+03  0.00000000000E+00 0. -1.
         25    2    1    2    0    0 -0.63420608787E+02 -0.46845911420E+02  0.73430454539E+03  0.74902981384E+03  0.12500313436E+03 0.  0.
          2    1    1    2  501    0  0.60108204351E+02  0.18601968793E+02 -0.54939668672E+03  0.55298801873E+03  0.00000000000E+00 0. -1.
          1    1    1    2  502    0  0.33124044357E+01  0.28243942627E+02  0.13684447138E+04  0.13687401605E+04  0.00000000000E+00 0. -1.
         22    1    3    3    0    0  0.68698913954E+01 -0.41333632321E+02  0.74547377275E+02  0.85515940193E+02  0.00000000000E+00 0. -1.
         22    1    3    3    0    0 -0.70290500182E+02 -0.55122790988E+01  0.65975716812E+03  0.66351387364E+03  0.00000000000E+00 0. -1.
</event>
<event>
 7    1  0.6255318E-006  0.4683771E+02  0.7818608E-02  0.1497982E+00
          2   -1    0    0  502    0  0.00000000000E+00  0.00000000000E+00  0.82552389767E+03  0.82552389767E+03  0.00000000000E+00 0. -1.
          1   -1    0    0  501    0 -0.00000000000E+00 -0.00000000000E+00 -0.41191883435E+03  0.41191883435E+03  0.00000000000E+00 0. -1.
         25    2    1    2    0    0 -0.34031698632E+02  0.64149345812E+02  0.55279265180E+03  0.57138284421E+03  0.12500137474E+03 0.  0.
          2    1    1    2  501    0  0.13131373220E+01 -0.36613586800E+02 -0.40004567788E+03  0.40171983205E+03  0.00000000000E+00 0. -1.
          1    1    1    2  502    0  0.32718561310E+02 -0.27535759012E+02  0.26085808940E+03  0.26434005577E+03  0.00000000000E+00 0. -1.
         22    1    3    3    0    0 -0.65697767791E+02  0.40752807014E+01  0.16422293616E+03  0.17692364841E+03  0.00000000000E+00 0. -1.
         22    1    3    3    0    0  0.31666069160E+02  0.60074065111E+02  0.38856971564E+03  0.39445919580E+03  0.00000000000E+00 0. -1.
</event>
<event>
 7    1  0.6255318E-006  0.1548259E+03  0.7818608E-02  0.1221732E+00
          2   -1    0    0  502    0  0.00000000000E+00  0.00000000000E+00  0.50959569095E+03  0.50959569095E+03  0.00000000000E+00 0. -1.
          1   -1    0    0  501    0 -0.00000000000E+00 -0.00000000000E+00 -0.60754740842E+03  0.60754740842E+03  0.00000000000E+00 0. -1.
         25    2    1    2    0    0  0.54163945350E+02  0.15350557906E+02  0.91993494385E+02  0.16510090811E+03  0.12500453690E+03 0.  0.
          2    1    1    2  501    0 -0.12486232511E+03 -0.10714213653E+03 -0.54985499561E+03  0.57394298833E+03  0.00000000000E+00 0. -1.
          1    1    1    2  502    0  0.70698379755E+02  0.91791578629E+02  0.35990978376E+03  0.37809920293E+03  0.00000000000E+00 0. -1.
         22    1    3    3    0    0  0.41071834128E+02  0.68181688770E+02  0.37172584612E+02  0.87848957244E+02  0.00000000000E+00 0.  1.
         22    1    3    3    0    0  0.13092111223E+02 -0.52831130864E+02  0.54820909772E+02  0.77251950868E+02  0.00000000000E+00 0.  1.
</event>
<event>
 7    1  0.6255318E-006  0.6741265E+02  0.7818608E-02  0.1425706E+00
          2   -1    0    0  502    0  0.00000000000E+00  0.00000000000E+00  0.22788641346E+03  0.22788641346E+03  0.00000000000E+00 0. -1.
          1   -1    0    0  501    0 -0.00000000000E+00 -0.00000000000E+00 -0.28679348960E+03  0.28679348960E+03  0.00000000000E+00 0. -1.
         25    2    1    2    0    0 -0.80235681819E+01 -0.10193826140E+03  0.72474830404E+02  0.17699610298E+03  0.12497692845E+03 0.  0.
          2    1    1    2  501    0 -0.13641045559E+02  0.64810125418E+02 -0.22506589628E+03  0.23460837186E+03  0.00000000000E+00 0. -1.
          1    1    1    2  502    0  0.21664613741E+02  0.37128135987E+02  0.93683989733E+02  0.10307542822E+03  0.00000000000E+00 0. -1.
         22    1    3    3    0    0  0.44977212850E+02 -0.96329196599E+02  0.35316330098E+02  0.11202458197E+03  0.00000000000E+00 0. -1.
         22    1    3    3    0    0 -0.53000781032E+02 -0.56090648052E+01  0.37158500307E+02  0.64971521015E+02  0.00000000000E+00 0. -1.
</event>
<event>
 7    1  0.6255318E-006  0.1103993E+03  0.7818608E-02  0.1305078E+00
          2   -1    0    0  502    0  0.00000000000E+00  0.00000000000E+00  0.97570110047E+03  0.97570110047E+03  0.00000000000E+00 0. -1.
          1   -1    0    0  501    0 -0.00000000000E+00 -0.00000000000E+00 -0.57784851451E+02  0.57784851451E+02  0.00000000000E+00 0. -1.
         25    2    1    2    0    0 -0.59860783165E+02  0.70100262088E+02  0.23896400789E+03  0.28499550620E+03  0.12498512462E+03 0.  0.
          2    1    1    2  501    0  0.53547700213E+02  0.47964959192E+02  0.14165036948E+02  0.73271015963E+02  0.00000000000E+00 0. -1.
          1    1    1    2  502    0  0.63130829514E+01 -0.11806522128E+03  0.66478720418E+03  0.67521942976E+03  0.00000000000E+00 0. -1.
         22    1    3    3    0    0 -0.97507329125E+02  0.40328033886E+02  0.18325182089E+03  0.21145982931E+03  0.00000000000E+00 0. -1.
         22    1    3    3    0    0  0.37646545960E+02  0.29772228202E+02  0.55712187003E+02  0.73535676889E+02  0.00000000000E+00 0. -1.
</event>
<event>
 7    1  0.6255318E-006  0.1501816E+03  0.7818608E-02  0.1353087E+00
          2   -1    0    0  502    0  0.00000000000E+00  0.00000000000E+00  0.27249684551E+04  0.27249684551E+04  0.00000000000E+00 0. -1.
          1   -1    0    0  501    0 -0.00000000000E+00 -0.00000000000E+00 -0.62235855748E+03  0.62235855748E+03  0.00000000000E+00 0. -1.
         25    2    1    2    0    0 -0.99090601898E+02  0.12810803243E+03  0.92997702530E+03  0.95221453660E+03  0.12499856310E+03 0.  0.
          2    1    1    2  501    0 -0.13056907381E+02 -0.32059459179E+02 -0.60769090185E+03  0.60867604187E+03  0.00000000000E+00 0. -1.
          1    1    1    2  502    0  0.11214750928E+03 -0.96048573247E+02  0.17803237741E+04  0.17864364341E+04  0.00000000000E+00 0. -1.
         22    1    3    3    0    0  0.23124060890E+02  0.30263721952E+02  0.89279812728E+02  0.97064411703E+02  0.00000000000E+00 0. -1.
         22    1    3    3    0    0 -0.12221466279E+03  0.97844310473E+02  0.84069721257E+03  0.85515012490E+03  0.00000000000E+00 0. -1.
</event>
<event>
 7    1  0.6255318E-006  0.8524751E+02  0.7818608E-02  0.1416721E+00
          2   -1    0    0  502    0  0.00000000000E+00  0.00000000000E+00  0.11677600346E+04  0.11677600346E+04  0.00000000000E+00 0. -1.
          1   -1    0    0  501    0 -0.00000000000E+00 -0.00000000000E+00 -0.17410616581E+02  0.17410616581E+02  0.00000000000E+00 0. -1.
         25    2    1    2    0    0 -0.45701897012E+02 -0.64250701523E+02  0.61441520752E+03  0.63193985691E+03  0.12500047790E+03 0.  0.
          2    1    1    2  501    0  0.18351431956E+02  0.88301347926E+02  0.26652083854E+03  0.28136677216E+03  0.00000000000E+00 0. -1.
          1    1    1    2  502    0  0.27350465056E+02 -0.24050646403E+02  0.26941337195E+03  0.27186402211E+03  0.00000000000E+00 0. -1.
         22    1    3    3    0    0 -0.30713802585E+02  0.15916156830E+02  0.45233859459E+02  0.56945269856E+02  0.00000000000E+00 0. -1.
         22    1    3    3    0    0 -0.14988094427E+02 -0.80166858353E+02  0.56918134806E+03  0.57499458705E+03  0.00000000000E+00 0. -1.
</event>
<event>
 7    1  0.6255318E-006  0.8095319E+02  0.7818608E-02  0.1339891E+00
          2   -1    0    0  502    0  0.00000000000E+00  0.00000000000E+00  0.58011095264E+03  0.58011095264E+03  0.00000000000E+00 0. -1.
          1   -1    0    0  501    0 -0.00000000000E+00 -0.00000000000E+00 -0.82500169454E+03  0.82500169454E+03  0.00000000000E+00 0. -1.
         25    2    1    2    0    0  0.36533044291E+02 -0.27594791739E+02 -0.39783770925E+02  0.13894037262E+03  0.12500217141E+03 0.  0.
          2    1    1    2  501    0  0.90597385279E+01  0.83209625705E+02 -0.73080271858E+03  0.73558040632E+03  0.00000000000E+00 0. -1.
          1    1    1    2  502    0 -0.45592782819E+02 -0.55614833967E+02  0.52569574760E+03  0.53059186824E+03  0.00000000000E+00 0. -1.
         22    1    3    3    0    0 -0.51243570361E+01  0.45717326555E+01 -0.75193453033E+02  0.75506391475E+02  0.00000000000E+00 0.  1.
         22    1    3    3    0    0  0.41657401327E+02 -0.32166524394E+02  0.35409682108E+02  0.63433981145E+02  0.00000000000E+00 0.  1.
</event>
<event>
 7    1  0.6255318E-006  0.6063197E+02  0.7818608E-02  0.1453971E+00
          2   -1    0    0  502    0  0.00000000000E+00  0.00000000000E+00  0.30368366682E+03  0.30368366682E+03  0.00000000000E+00 0. -1.
          1   -1    0    0  501    0 -0.00000000000E+00 -0.00000000000E+00 -0.35575718901E+03  0.35575718901E+03  0.00000000000E+00 0. -1.
         25    2    1    2    0    0 -0.32948607725E+02  0.62061659249E+02 -0.12168462867E+01  0.14340048334E+03  0.12499983043E+03 0.  0.
          2    1    1    2  501    0  0.38657217711E+02 -0.16270360611E+01 -0.27812566841E+03  0.28080405118E+03  0.00000000000E+00 0. -1.
          1    1    1    2  502    0 -0.57086099865E+01 -0.60434623188E+02  0.22726899251E+03  0.23523632131E+03  0.00000000000E+00 0. -1.
         22    1    3    3    0    0  0.33479539022E+02 -0.35391046953E+00 -0.32861190026E+02  0.46913351997E+02  0.00000000000E+00 0.  1.
         22    1    3    3    0    0 -0.66428146747E+02  0.62415569718E+02  0.31644343739E+02  0.96487131340E+02  0.00000000000E+00 0.  1.
</event>
<event>
 7    1  0.6255318E-006  0.8119155E+02  0.7818608E-02  0.1379210E+00
          2   -1    0    0  502    0  0.00000000000E+00  0.00000000000E+00  0.51644693337E+03  0.51644693337E+03  0.00000000000E+00 0. -1.
          1   -1    0    0  501    0 -0.00000000000E+00 -0.00000000000E+00 -0.77892242682E+03  0.77892242682E+03  0.00000000000E+00 0. -1.
         25    2    1    2    0    0 -0.80675966494E+02  0.96710619857E+02 -0.69086513578E+02  0.19041831398E+03  0.12499852950E+03 0.  0.
          2    1    1    2  501    0  0.45030325235E+02 -0.25017800806E+02 -0.64461836042E+03  0.64667337284E+03  0.00000000000E+00 0. -1.
          1    1    1    2  502    0  0.35645641258E+02 -0.71692819051E+02  0.45122938055E+03  0.45827767338E+03  0.00000000000E+00 0. -1.
         22    1    3    3    0    0  0.82803479046E+01  0.69385878998E+02 -0.67780547939E+02  0.97350742394E+02  0.00000000000E+00 0.  1.
         22    1    3    3    0    0 -0.88956314398E+02  0.27324740860E+02 -0.13059656389E+01  0.93067571585E+02  0.00000000000E+00 0.  1.
</event>
<event>
 7    1  0.6255318E-006  0.3699516E+02  0.7818608E-02  0.1550533E+00
          2   -1    0    0  502    0  0.00000000000E+00  0.00000000000E+00  0.12779196340E+02  0.12779196340E+02  0.00000000000E+00 0. -1.
          1   -1    0    0  501    0 -0.00000000000E+00 -0.00000000000E+00 -0.17636780904E+04  0.17636780904E+04  0.00000000000E+00 0. -1.
         25    2    1    2    0    0 -0.25310553246E+02  0.37504963341E+01 -0.12484060487E+04  0.12549082610E+04  0.12498956221E+03 0.  0.
          2    1    1    2  501    0  0.10515562172E+02  0.30967162411E+02 -0.47172548076E+03  0.47285777079E+03  0.00000000000E+00 0. -1.
          1    1    1    2  502    0  0.14794991074E+02 -0.34717658745E+02 -0.30767364629E+02  0.48691255025E+02  0.00000000000E+00 0. -1.
         22    1    3    3    0    0 -0.11693745809E+02  0.13845830227E+02 -0.12290317546E+04  0.12291653691E+04  0.00000000000E+00 0. -1.
         22    1    3    3    0    0 -0.13616807437E+02 -0.10095333893E+02 -0.19374294124E+02  0.25742891912E+02  0.00000000000E+00 0. -1.
</event>
<event>
 7    1  0.6255318E-006  0.2023441E+03  0.7818608E-02  0.1228416E+00
          2   -1    0    0  502    0  0.00000000000E+00  0.00000000000E+00  0.16327858979E+04  0.16327858979E+04  0.00000000000E+00 0. -1.
          1   -1    0    0  501    0 -0.00000000000E+00 -0.00000000000E+00 -0.43318622947E+03  0.43318622947E+03  0.00000000000E+00 0. -1.
         25    2    1    2    0    0 -0.10375098966E+03  0.13496070311E+03 -0.14710035403E+03  0.25737436337E+03  0.12499755808E+03 0.  0.
          2    1    1    2  501    0  0.18334817990E+03 -0.15738173703E+03 -0.16630743669E+03  0.29333211505E+03  0.00000000000E+00 0. -1.
          1    1    1    2  502    0 -0.79597190231E+02  0.22421033929E+02  0.15130074592E+04  0.15152656490E+04  0.00000000000E+00 0. -1.
         22    1    3    3    0    0 -0.95459351922E+02  0.11869331479E+03 -0.16988928145E+03  0.22817308956E+03  0.00000000000E+00 0.  1.
         22    1    3    3    0    0 -0.82916377426E+01  0.16267388314E+02  0.22788927426E+02  0.29201273812E+02  0.00000000000E+00 0.  1.
</event>
<event>
 7    1  0.6255318E-006  0.7694234E+02  0.7818608E-02  0.1433958E+00
          2   -1    0    0  502    0  0.00000000000E+00  0.00000000000E+00  0.48810702016E+03  0.48810702016E+03  0.00000000000E+00 0. -1.
          1   -1    0    0  501    0 -0.00000000000E+00 -0.00000000000E+00 -0.13546348821E+03  0.13546348821E+03  0.00000000000E+00 0. -1.
         25    2    1    2    0    0 -0.67154193088E+01 -0.50364590607E+02  0.20764930657E+02  0.13651944228E+03  0.12499874772E+03 0.  0.
          2    1    1    2  501    0 -0.29335333694E+02 -0.19775293422E+02 -0.69506451752E+02  0.77992120551E+02  0.00000000000E+00 0. -1.
          1    1    1    2  502    0  0.36050753003E+02  0.70139884029E+02  0.40138505304E+03  0.40905894554E+03  0.00000000000E+00 0. -1.
         22    1    3    3    0    0  0.78047213314E+00 -0.53678284835E+02 -0.45119893705E+02  0.70126829442E+02  0.00000000000E+00 0. -1.
         22    1    3    3    0    0 -0.74958914419E+01  0.33136942277E+01  0.65884824362E+02  0.66392612836E+02  0.00000000000E+00 0. -1.
</event>
<event>
 7    1  0.6255318E-006  0.7170264E+02  0.7818608E-02  0.1408272E+00
          2   -1    0    0  502    0  0.00000000000E+00  0.00000000000E+00  0.11429509026E+03  0.11429509026E+03  0.00000000000E+00 0. -1.
          1   -1    0    0  501    0 -0.00000000000E+00 -0.00000000000E+00 -0.24195240884E+03  0.24195240884E+03  0.00000000000E+00 0. -1.
         25    2    1    2    0    0  0.18960531465E+02 -0.30050578383E+02 -0.51104442633E+02  0.13964220703E+03  0.12500297162E+03 0.  0.
          2    1    1    2  501    0  0.32386229130E+02 -0.33005545603E+02 -0.11698365019E+03  0.12579112962E+03  0.00000000000E+00 0. -1.
          1    1    1    2  502    0 -0.51346760594E+02  0.63056123986E+02  0.40430774243E+02  0.90814162450E+02  0.00000000000E+00 0. -1.
         22    1    3    3    0    0 -0.30374945703E+02 -0.99647649581E+01 -0.74797936004E+02  0.81342885968E+02  0.00000000000E+00 0. -1.
         22    1    3    3    0    0  0.49335477167E+02 -0.20085813425E+02  0.23693493371E+02  0.58299321063E+02  0.00000000000E+00 0. -1.
</event>
<event>
 7    1  0.6255318E-006  0.4788199E+02  0.7818608E-02  0.1531561E+00
          2   -1    0    0  502    0  0.00000000000E+00  0.00000000000E+00  0.40800448261E+03  0.40800448261E+03  0.00000000000E+00 0. -1.
          1   -1    0    0  501    0 -0.00000000000E+00 -0.00000000000E+00 -0.19811793076E+04  0.19811793076E+04  0.00000000000E+00 0. -1.
         25    2    1    2    0    0  0.21868793097E+02 -0.58944236872E+01  0.87216941126E+02  0.15409204403E+03  0.12499829947E+03 0.  0.
          2    1    1    2  501    0  0.27667694255E+02  0.71804414098E+01 -0.19454996402E+04  0.19457096161E+04  0.00000000000E+00 0. -1.
          1    1    1    2  502    0 -0.49536487352E+02 -0.12860177225E+01  0.28510787403E+03  0.28938213016E+03  0.00000000000E+00 0. -1.
         22    1    3    3    0    0 -0.19967373772E+02 -0.47776624399E+02  0.39568679411E+01  0.51932250656E+02  0.00000000000E+00 0. -1.
         22    1    3    3    0    0  0.41836166869E+02  0.41882200712E+02  0.83260073185E+02  0.10215979337E+03  0.00000000000E+00 0. -1.
</event>
<event>
 7    1  0.6255318E-006  0.9217364E+02  0.7818608E-02  0.1465473E+00
          2   -1    0    0  502    0  0.00000000000E+00  0.00000000000E+00  0.50652025336E+03  0.50652025336E+03  0.00000000000E+00 0. -1.
          1   -1    0    0  501    0 -0.00000000000E+00 -0.00000000000E+00 -0.21085550740E+03  0.21085550740E+03  0.00000000000E+00 0. -1.
         25    2    1    2    0    0  0.46558990574E+02  0.10449985547E+03 -0.34966032087E+02  0.17302264864E+03  0.12500501648E+03 0.  0.
          2    1    1    2  501    0 -0.11737589704E+02 -0.20255365900E+02 -0.10075611845E+03  0.10344006122E+03  0.00000000000E+00 0. -1.
          1    1    1    2  502    0 -0.34821400870E+02 -0.84244489573E+02  0.43138689650E+03  0.44091305090E+03  0.00000000000E+00 0. -1.
         22    1    3    3    0    0 -0.11385318436E+02  0.58247256067E+02 -0.69365436782E+02  0.91290372631E+02  0.00000000000E+00 0. -1.
         22    1    3    3    0    0  0.57944309010E+02  0.46252599406E+02  0.34399404695E+02  0.81732276010E+02  0.00000000000E+00 0. -1.
</event>
<event>
 7    1  0.6255318E-006  0.2582280E+03  0.7818608E-02  0.1195947E+00
          2   -1    0    0  502    0  0.00000000000E+00  0.00000000000E+00  0.73651503604E+03  0.73651503604E+03  0.00000000000E+00 0. -1.
          1   -1    0    0  501    0 -0.00000000000E+00 -0.00000000000E+00 -0.84223811384E+03  0.84223811384E+03  0.00000000000E+00 0. -1.
         25    2    1    2    0    0  0.22852414719E+03 -0.55690763544E+02 -0.25506497684E+03  0.36879285394E+03  0.12500111886E+03 0.  0.
          2    1    1    2  501    0 -0.23601426980E+03  0.14691898113E+03 -0.49039097771E+03  0.56371201298E+03  0.00000000000E+00 0. -1.
          1    1    1    2  502    0  0.74901226136E+01 -0.91228217582E+02  0.63973287676E+03  0.64624828296E+03  0.00000000000E+00 0. -1.
         22    1    3    3    0    0  0.21271724253E+03 -0.19207573443E+02 -0.24984000603E+03  0.32869071292E+03  0.00000000000E+00 0.  1.
         22    1    3    3    0    0  0.15806904652E+02 -0.36483190100E+02 -0.52249708172E+01  0.40102141023E+02  0.00000000000E+00 0.  1.
</event>
<event>
 7    1  0.6255318E-006  0.9313499E+02  0.7818608E-02  0.1326206E+00
          2   -1    0    0  502    0  0.00000000000E+00  0.00000000000E+00  0.18987130586E+04  0.18987130586E+04  0.00000000000E+00 0. -1.
          1   -1    0    0  501    0 -0.00000000000E+00 -0.00000000000E+00 -0.76451245796E+03  0.76451245796E+03  0.00000000000E+00 0. -1.
         25    2    1    2    0    0  0.21403345594E+02  0.26491125755E+02  0.83490226593E+02  0.15413947243E+03  0.12501390354E+03 0.  0.
          2    1    1    2  501    0 -0.39472389549E+01 -0.94760270731E+02 -0.72540229825E+03  0.73157609578E+03  0.00000000000E+00 0. -1.
          1    1    1    2  502    0 -0.17456106639E+02  0.68269144975E+02  0.17761126722E+04  0.17775099483E+04  0.00000000000E+00 0. -1.
         22    1    3    3    0    0 -0.52517885599E+02  0.15807724650E+02  0.33575747011E+02  0.64306634602E+02  0.00000000000E+00 0. -1.
         22    1    3    3    0    0  0.73921231193E+02  0.10683401105E+02  0.49914479581E+02  0.89832837827E+02  0.00000000000E+00 0. -1.
</event>
<event>
 7    1  0.6255318E-006  0.9567847E+02  0.7818608E-02  0.1358425E+00
          2   -1    0    0  502    0  0.00000000000E+00  0.00000000000E+00  0.50343189286E+04  0.50343189286E+04  0.00000000000E+00 0. -1.
          1   -1    0    0  501    0 -0.00000000000E+00 -0.00000000000E+00 -0.15794743313E+04  0.15794743313E+04  0.00000000000E+00 0. -1.
         25    2    1    2    0    0 -0.12085960409E+03  0.75486335160E+02 -0.18649623469E+03  0.26591683641E+03  0.12500275053E+03 0.  0.
          2    1    1    2  501    0  0.31634822603E+02 -0.41190517188E+02 -0.13523119090E+04  0.13533088783E+04  0.00000000000E+00 0. -1.
          1    1    1    2  502    0  0.89224781488E+02 -0.34295817972E+02  0.49936527410E+04  0.49945675451E+04  0.00000000000E+00 0. -1.
         22    1    3    3    0    0  0.38171391116E+01 -0.26526006565E+02 -0.40165617122E+02  0.48285363973E+02  0.00000000000E+00 0.  1.
         22    1    3    3    0    0 -0.12467674320E+03  0.10201234172E+03 -0.14633061756E+03  0.21763147244E+03  0.00000000000E+00 0.  1.
</event>
<event>
 7    1  0.6255318E-006  0.1066367E+03  0.7818608E-02  0.1342542E+00
          2   -1    0    0  502    0  0.00000000000E+00  0.00000000000E+00  0.51839277019E+03  0.51839277019E+03  0.00000000000E+00 0. -1.
          1   -1    0    0  501    0 -0.00000000000E+00 -0.00000000000E+00 -0.15083035534E+03  0.15083035534E+03  0.00000000000E+00 0. -1.
         25    2    1    2    0    0 -0.36070110500E+02  0.83956359219E+02  0.12059699587E+03  0.19626009941E+03  0.12499867232E+03 0.  0.
          2    1    1    2  501    0 -0.10183406959E+02 -0.11055705247E+03 -0.83057479835E+02  0.13865463780E+03  0.00000000000E+00 0. -1.
          1    1    1    2  502    0  0.46253517459E+02  0.26600693249E+02  0.33002289882E+03  0.33430838832E+03  0.00000000000E+00 0. -1.
         22    1    3    3    0    0 -0.79299680914E+02  0.30925208810E+02  0.79369905179E+02  0.11638036682E+03  0.00000000000E+00 0. -1.
         22    1    3    3    0    0  0.43229570414E+02  0.53031150409E+02  0.41227090690E+02  0.79879732590E+02  0.00000000000E+00 0. -1.
</event>
<event>
 7    1  0.6255318E-006  0.6622338E+02  0.7818608E-02  0.1445477E+00
          2   -1    0    0  502    0  0.00000000000E+00  0.00000000000E+00  0.14011907517E+04  0.14011907517E+04  0.00000000000E+00 0. -1.
          1   -1    0    0  501    0 -0.00000000000E+00 -0.00000000000E+00 -0.21444490576E+03  0.21444490576E+03  0.00000000000E+00 0. -1.
         25    2    1    2    0    0 -0.70509636354E+01  0.55098389909E+02  0.18517230361E+02  0.13804068978E+03  0.12500718202E+03 0.  0.
          2    1    1    2  501    0 -0.30195212881E+02 -0.61014798695E+02 -0.14690934994E+03  0.16191637855E+03  0.00000000000E+00 0. -1.
          1    1    1    2  502    0  0.37246176516E+02  0.59164087857E+01  0.13151379655E+04  0.13156785891E+04  0.00000000000E+00 0. -1.
         22    1    3    3    0    0  0.29303273129E+02  0.24543451801E+02 -0.44801741192E+02  0.58891925221E+02  0.00000000000E+00 0. -1.
         22    1    3    3    0    0 -0.36354236765E+02  0.30554938108E+02  0.63318971553E+02  0.79148764564E+02  0.00000000000E+00 0. -1.
</event>
<event>
 7    1  0.6255318E-006  0.4585345E+02  0.7818608E-02  0.1516221E+00
          2   -1    0    0  502    0  0.00000000000E+00  0.00000000000E+00  0.15002720746E+03  0.15002720746E+03  0.00000000000E+00 0. -1.
          1   -1    0    0  501    0 -0.00000000000E+00 -0.00000000000E+00 -0.60588873651E+03  0.60588873651E+03  0.00000000000E+00 0. -1.
         25    2    1    2    0    0 -0.72967829817E+02 -0.27342080500E+02 -0.73937600583E+02  0.16481463070E+03  0.12500080064E+03 0.  0.
          2    1    1    2  501    0  0.43227602183E+02  0.12913716609E+02 -0.48282268282E+03  0.48492590436E+03  0.00000000000E+00 0. -1.
          1    1    1    2  502    0  0.29740227635E+02  0.14428363892E+02  0.10089875436E+03  0.10617540890E+03  0.00000000000E+00 0. -1.
         22    1    3    3    0    0 -0.19850073292E+02 -0.68568820157E+02 -0.65800608486E+02  0.97084646493E+02  0.00000000000E+00 0. -1.
         22    1    3    3    0    0 -0.53117756525E+02  0.41226739657E+02 -0.81369920967E+01  0.67729984212E+02  0.00000000000E+00 0. -1.
</event>
<event>
 7    1  0.6255318E-006  0.9163766E+02  0.7818608E-02  0.1328349E+00
          2   -1    0    0  502    0  0.00000000000E+00  0.00000000000E+00  0.52057308834E+03  0.52057308834E+03  0.00000000000E+00 0. -1.
          1   -1    0    0  501    0 -0.00000000000E+00 -0.00000000000E+00 -0.12030783287E+03  0.12030783287E+03  0.00000000000E+00 0. -1.
         25    2    1    2    0    0  0.10492518841E+03  0.64556055202E+02  0.23165250196E+03  0.29062720675E+03  0.12499804883E+03 0.  0.
          2    1    1    2  501    0 -0.37005028407E+02 -0.82591942860E+02 -0.61650237513E+02  0.10950594933E+03  0.00000000000E+00 0. -1.
          1    1    1    2  502    0 -0.67920160001E+02  0.18035887658E+02  0.23026299102E+03  0.24074776512E+03  0.00000000000E+00 0. -1.
         22    1    3    3    0    0  0.12777155324E+03  0.61169167966E+02  0.22619983063E+03  0.26689623509E+03  0.00000000000E+00 0.  1.
         22    1    3    3    0    0 -0.22846364834E+02  0.33868872358E+01  0.54526713312E+01  0.23730971660E+02  0.00000000000E+00 0.  1.
</event>
<event>
 7    1  0.6255318E-006  0.1934973E+03  0.7818608E-02  0.1245945E+00
          2   -1    0    0  502    0  0.00000000000E+00  0.00000000000E+00  0.37135070378E+03  0.37135070378E+03  0.00000000000E+00 0. -1.
          1   -1    0    0  501    0 -0.00000000000E+00 -0.00000000000E+00 -0.12515217324E+04  0.12515217324E+04  0.00000000000E+00 0. -1.
         25    2    1    2    0    0 -0.75937310291E+02  0.98534835110E+02 -0.62378030578E+03  0.64823163291E+03  0.12500716456E+03 0.  0.
          2    1    1    2  501    0 -0.37590377238E+02  0.61775381382E+02 -0.58626464433E+03  0.59070759890E+03  0.00000000000E+00 0. -1.
          1    1    1    2  502    0  0.11352768753E+03 -0.16031021649E+03  0.32987392148E+03  0.38393320438E+03  0.00000000000E+00 0. -1.
         22    1    3    3    0    0  0.21272198241E+02 -0.12230227613E+02 -0.15204599155E+03  0.15401320863E+03  0.00000000000E+00 0.  1.
         22    1    3    3    0    0 -0.97209508532E+02  0.11076506272E+03 -0.47173431423E+03  0.49421842427E+03  0.00000000000E+00 0.  1.
</event>
<event>
 7    1  0.6255318E-006  0.1239536E+03  0.7818608E-02  0.1273985E+00
          2   -1    0    0  502    0  0.00000000000E+00  0.00000000000E+00  0.25615363594E+04  0.25615363594E+04  0.00000000000E+00 0. -1.
          1   -1    0    0  501    0 -0.00000000000E+00 -0.00000000000E+00 -0.68723269870E+02  0.68723269870E+02  0.00000000000E+00 0. -1.
         25    2    1    2    0    0  0.71311523154E+02  0.91586680253E+02  0.98389289778E+03  0.99857176162E+03  0.12500750164E+03 0.  0.
          2    1    1    2  501    0  0.71246576496E+01 -0.12609693912E+03  0.61197447813E+01  0.12644623395E+03  0.00000000000E+00 0. -1.
          1    1    1    2  502    0 -0.78436180803E+02  0.34510258871E+02  0.15028004469E+04  0.15052416337E+04  0.00000000000E+00 0. -1.
         22    1    3    3    0    0  0.83831146433E+02  0.44689529103E+02  0.34508640665E+03  0.35792379521E+03  0.00000000000E+00 0.  1.
         22    1    3    3    0    0 -0.12519623279E+02  0.46897151150E+02  0.63880649114E+03  0.64064796642E+03  0.00000000000E+00 0.  1.
</event>
<event>
 7    1  0.6255318E-006  0.8932401E+02  0.7818608E-02  0.1402812E+00
          2   -1    0    0  502    0  0.00000000000E+00  0.00000000000E+00  0.29281342462E+03  0.29281342462E+03  0.00000000000E+00 0. -1.
          1   -1    0    0  501    0 -0.00000000000E+00 -0.00000000000E+00 -0.11336768819E+03  0.11336768819E+03  0.00000000000E+00 0. -1.
         25    2    1    2    0    0 -0.37454499958E+02 -0.62002314184E+02  0.44523027022E+01  0.14453017426E+03  0.12498808640E+03 0.  0.
          2    1    1    2  501    0  0.33352410608E+02  0.10052968253E+03  0.27886834048E+02  0.10952751196E+03  0.00000000000E+00 0. -1.
          1    1    1    2  502    0  0.41020893505E+01 -0.38527368342E+02  0.14710659968E+03  0.15212342659E+03  0.00000000000E+00 0. -1.
         22    1    3    3    0    0 -0.68850342334E+02 -0.82126917209E+02  0.34665670520E+01  0.10722507756E+03  0.00000000000E+00 0. -1.
         22    1    3    3    0    0  0.31395842375E+02  0.20124603025E+02  0.98573565019E+00  0.37305096704E+02  0.00000000000E+00 0. -1.
</event>
<event>
 7    1  0.6255318E-006  0.2944439E+03  0.7818608E-02  0.1170020E+00
          2   -1    0    0  502    0  0.00000000000E+00  0.00000000000E+00  0.15479051960E+04  0.15479051960E+04  0.00000000000E+00 0. -1.
          1   -1    0    0  501    0 -0.00000000000E+00 -0.00000000000E+00 -0.21916921383E+04  0.21916921383E+04  0.00000000000E+00 0. -1.
         25    2    1    2    0    0  0.10145349658E+03  0.30131394241E+03 -0.25681658387E+03  0.42738950091E+03  0.12499649546E+03 0.  0.
          2    1    1    2  501    0 -0.10703756895E+03 -0.71697156614E+01 -0.18332111072E+04  0.18363473009E+04  0.00000000000E+00 0. -1.
          1    1    1    2  502    0  0.55840723683E+01 -0.29414422675E+03  0.14462407488E+04  0.14758605325E+04  0.00000000000E+00 0. -1.
         22    1    3    3    0    0  0.12442775455E+03  0.26386816309E+03 -0.19257292678E+03  0.34956116164E+03  0.00000000000E+00 0. -1.
         22    1    3    3    0    0 -0.22974257967E+02  0.37445779321E+02 -0.64243657092E+02  0.77828339277E+02  0.00000000000E+00 0. -1.
</event>
<event>
 7    1  0.6255318E-006  0.1348458E+03  0.7818608E-02  0.1393618E+00
          2   -1    0    0  502    0  0.00000000000E+00  0.00000000000E+00  0.39826560369E+03  0.39826560369E+03  0.00000000000E+00 0. -1.
          1   -1    0    0  501    0 -0.00000000000E+00 -0.00000000000E+00 -0.77758841416E+03  0.77758841416E+03  0.00000000000E+00 0. -1.
         25    2    1    2    0    0 -0.48346278655E+02 -0.10733140638E+03 -0.12530889268E+03  0.21256676841E+03  0.12499967597E+03 0.  0.
          2    1    1    2  501    0  0.37800937871E+02  0.13284689448E+03 -0.60025814676E+03  0.61594403238E+03  0.00000000000E+00 0. -1.
          1    1    1    2  502    0  0.10545340784E+02 -0.25515488098E+02  0.34624422896E+03  0.34734321706E+03  0.00000000000E+00 0. -1.
         22    1    3    3    0    0  0.37079879803E+02 -0.42396898292E+02 -0.75686875786E+02  0.94344674663E+02  0.00000000000E+00 0.  1.
         22    1    3    3    0    0 -0.85426158458E+02 -0.64934508088E+02 -0.49622016891E+02  0.11822209375E+03  0.00000000000E+00 0.  1.
</event>
<event>
 7    1  0.6255318E-006  0.1886557E+03  0.7818608E-02  0.1382459E+00
          2   -1    0    0  502    0  0.00000000000E+00  0.00000000000E+00  0.12358514733E+04  0.12358514733E+04  0.00000000000E+00 0. -1.
          1   -1    0    0  501    0 -0.00000000000E+00 -0.00000000000E+00 -0.89749201262E+03  0.89749201262E+03  0.00000000000E+00 0. -1.
         25    2    1    2    0    0  0.13124783251E+03  0.15001597452E+03 -0.12501635281E+03  0.26642926868E+03  0.12499872237E+03 0.  0.
          2    1    1    2  501    0  0.57070675964E+01 -0.20822799554E+02 -0.69399440269E+03  0.69433017402E+03  0.00000000000E+00 0. -1.
          1    1    1    2  502    0 -0.13695490010E+03 -0.12919317496E+03  0.11573702162E+04  0.11725840432E+04  0.00000000000E+00 0. -1.
         22    1    3    3    0    0  0.40315320083E+02  0.10798834440E+03 -0.11960389246E+03  0.16610809328E+03  0.00000000000E+00 0. -1.
         22    1    3    3    0    0  0.90932512422E+02  0.42027630115E+02 -0.54124603492E+01  0.10032117541E+03  0.00000000000E+00 0. -1.
</event>
<event>
 7    1  0.6255318E-006  0.1149285E+03  0.7818608E-02  0.1338942E+00
          2   -1    0    0  502    0  0.00000000000E+00  0.00000000000E+00  0.10016194497E+04  0.10016194497E+04  0.00000000000E+00 0. -1.
          1   -1    0    0  501    0 -0.00000000000E+00 -0.00000000000E+00 -0.33815447992E+03  0.33815447992E+03  0.00000000000E+00 0. -1.
         25    2    1    2    0    0 -0.10514372724E+03  0.11738186735E+03  0.14880164482E+02  0.20171115657E+03  0.12502905754E+03 0.  0.
          2    1    1    2  501    0  0.60932393786E+02 -0.91810345150E+02 -0.23155812761E+03  0.25643919855E+03  0.00000000000E+00 0. -1.
          1    1    1    2  502    0  0.44211333451E+02 -0.25571522200E+02  0.88014293287E+03  0.88162357446E+03  0.00000000000E+00 0. -1.
         22    1    3    3    0    0 -0.37362319075E+02  0.15308086047E+02  0.58989362615E+02  0.71484440872E+02  0.00000000000E+00 0.  1.
         22    1    3    3    0    0 -0.67781408162E+02  0.10207378130E+03 -0.44109198133E+02  0.13022671570E+03  0.00000000000E+00 0.  1.
</event>
<event>
 7    1  0.6255318E-006  0.5690331E+02  0.7818608E-02  0.1507733E+00
          2   -1    0    0  502    0  0.00000000000E+00  0.00000000000E+00  0.35220588827E+04  0.35220588827E+04  0.00000000000E+00 0. -1.
          1   -1    0    0  501    0 -0.00000000000E+00 -0.00000000000E+00 -0.67449626913E+02  0.67449626913E+02  0.00000000000E+00 0. -1.
         25    2    1    2    0    0 -0.27507875633E+02  0.16102428311E+02  0.12175398878E+04  0.12243547914E+04  0.12500122179E+03 0.  0.
          2    1    1    2  501    0 -0.20962268553E+02  0.18877432473E+02 -0.60528055698E+02  0.66778886530E+02  0.00000000000E+00 0. -1.
          1    1    1    2  502    0  0.48470144187E+02 -0.34979860784E+02  0.22975974236E+04  0.22983748316E+04  0.00000000000E+00 0. -1.
         22    1    3    3    0    0  0.16208168416E+02 -0.17973577244E+02  0.98511029395E+03  0.98540755297E+03  0.00000000000E+00 0.  1.
         22    1    3    3    0    0 -0.43716044049E+02  0.34076005555E+02  0.23242959386E+03  0.23894723845E+03  0.00000000000E+00 0.  1.
</event>
<event>
 7    1  0.6255318E-006  0.9352335E+02  0.7818608E-02  0.1296424E+00
          2   -1    0    0  502    0  0.00000000000E+00  0.00000000000E+00  0.16275965721E+04  0.16275965721E+04  0.00000000000E+00 0. -1.
          1   -1    0    0  501    0 -0.00000000000E+00 -0.00000000000E+00 -0.89547524895E+02  0.89547524895E+02  0.00000000000E+00 0. -1.
         25    2    1    2    0    0 -0.32169740980E+02  0.32166961389E+02  0.63291955594E+03  0.64674577999E+03  0.12499333580E+03 0.  0.
          2    1    1    2  501    0 -0.45949420770E+02 -0.83586930726E+02 -0.52049458414E+02  0.10866126439E+03  0.00000000000E+00 0. -1.
          1    1    1    2  502    0  0.78119161750E+02  0.51419969337E+02  0.95717894970E+03  0.96173705265E+03  0.00000000000E+00 0. -1.
         22    1    3    3    0    0  0.47018839817E+02  0.25077058671E+02  0.23590971729E+03  0.24185331274E+03  0.00000000000E+00 0.  1.
         22    1    3    3    0    0 -0.79188580796E+02  0.70899027179E+01  0.39700983865E+03  0.40489246725E+03  0.00000000000E+00 0.  1.
</event>
<event>
 7    1  0.6255318E-006  0.9529256E+02  0.7818608E-02  0.1475689E+00
          2   -1    0    0  502    0  0.00000000000E+00  0.00000000000E+00  0.30324007400E+04  0.30324007400E+04  0.00000000000E+00 0. -1.
          1   -1    0    0  501    0 -0.00000000000E+00 -0.00000000000E+00 -0.14093325883E+02  0.14093325883E+02  0.00000000000E+00 0. -1.
         25    2    1    2    0    0  0.85583840218E+02  0.51930799236E+02  0.18605023980E+04  0.18673817112E+04  0.12499552295E+03 0.  0.
          2    1    1    2  501    0 -0.89664429740E+02 -0.31282479822E+02  0.20341691039E+03  0.22449218903E+03  0.00000000000E+00 0. -1.
          1    1    1    2  502    0  0.40805895220E+01 -0.20648319415E+02  0.95438810571E+03  0.95462016563E+03  0.00000000000E+00 0. -1.
         22    1    3    3    0    0  0.51120266526E+02 -0.29271133030E+02  0.41129649197E+03  0.41549354410E+03  0.00000000000E+00 0.  1.
         22    1    3    3    0    0  0.34463573692E+02  0.81201932267E+02  0.14492059060E+04  0.14518881671E+04  0.00000000000E+00 0.  1.
</event>
<event>
 7    1  0.6255318E-006  0.1587527E+03  0.7818608E-02  0.1323237E+00
          2   -1    0    0  502    0  0.00000000000E+00  0.00000000000E+00  0.87499699232E+03  0.87499699232E+03  0.00000000000E+00 0. -1.
          1   -1    0    0  501    0 -0.00000000000E+00 -0.00000000000E+00 -0.46939940169E+03  0.46939940169E+03  0.00000000000E+00 0. -1.
         25    2    1    2    0    0  0.16361390177E+03  0.98130711864E+02  0.48221571752E+03  0.53343890708E+03  0.12500369555E+03 0.  0.
          2    1    1    2  501    0 -0.12127860434E+03 -0.10115272098E+03 -0.42842209375E+03  0.45660252217E+03  0.00000000000E+00 0. -1.
          1    1    1    2  502    0 -0.42335297429E+02  0.30220091205E+01  0.35180396687E+03  0.35435496476E+03  0.00000000000E+00 0. -1.
         22    1    3    3    0    0  0.18037540305E+02 -0.29350597386E+02  0.66486940800E+02  0.74882065437E+02  0.00000000000E+00 0. -1.
         22    1    3    3    0    0  0.14557636146E+03  0.12748130925E+03  0.41572877672E+03  0.45855684164E+03  0.00000000000E+00 0. -1.
</event>
<event>
 7    1  0.6255318E-006  0.9197748E+02  0.7818608E-02  0.1312606E+00
          2   -1    0    0  502    0  0.00000000000E+00  0.00000000000E+00  0.15089935644E+03  0.15089935644E+03  0.00000000000E+00 0. -1.
          1   -1    0    0  501    0 -0.00000000000E+00 -0.00000000000E+00 -0.69500483817E+03  0.69500483817E+03  0.00000000000E+00 0. -1.
         25    2    1    2    0    0  0.32429232906E+02 -0.27963161989E+02 -0.11722423208E+03  0.17663838137E+03  0.12500401439E+03 0.  0.
          2    1    1    2  501    0 -0.10142031968E+03 -0.13669624037E+02 -0.52921279185E+03  0.53901680765E+03  0.00000000000E+00 0. -1.
          1    1    1    2  502    0  0.68991086778E+02  0.41632786026E+02  0.10233154220E+03  0.13024900559E+03  0.00000000000E+00 0. -1.
         22    1    3    3    0    0  0.62765999398E+02  0.22933015711E+02 -0.35423060439E+02  0.75632579626E+02  0.00000000000E+00 0.  1.
         22    1    3    3    0    0 -0.30336766492E+02 -0.50896177700E+02 -0.81801171637E+02  0.10100580175E+03  0.00000000000E+00 0.  1.
</event>
<event>
 7    1  0.6255318E-006  0.8364997E+02  0.7818608E-02  0.1336320E+00
          2   -1    0    0  502    0  0.00000000000E+00  0.00000000000E+00  0.91161872258E+03  0.91161872258E+03  0.00000000000E+00 0. -1.
          1   -1    0    0  501    0 -0.00000000000E+00 -0.00000000000E+00 -0.17850526671E+04  0.17850526671E+04  0.00000000000E+00 0. -1.
         25    2    1    2    0    0 -0.44847436604E+02 -0.11163561003E+01  0.44614605311E+03  0.46549316649E+03  0.12500019411E+03 0.  0.
          2    1    1    2  501    0 -0.41665815047E+01  0.83546137481E+02 -0.17693355490E+04  0.17713118309E+04  0.00000000000E+00 0. -1.
          1    1    1    2  502    0  0.49014018109E+02 -0.82429781381E+02  0.44975555132E+03  0.45986639230E+03  0.00000000000E+00 0. -1.
         22    1    3    3    0    0  0.12143763718E+02 -0.51665031298E+02  0.13262629790E+03  0.14285125604E+03  0.00000000000E+00 0. -1.
         22    1    3    3    0    0 -0.56991200322E+02  0.50548675198E+02  0.31351975521E+03  0.32264191046E+03  0.00000000000E+00 0. -1.
</event>
<event>
 7    1  0.6255318E-006  0.7573240E+02  0.7818608E-02  0.1439576E+00
          2   -1    0    0  502    0  0.00000000000E+00  0.00000000000E+00  0.20245563735E+03  0.20245563735E+03  0.00000000000E+00 0. -1.
          1   -1    0    0  501    0 -0.00000000000E+00 -0.00000000000E+00 -0.11149278402E+04  0.11149278402E+04  0.00000000000E+00 0. -1.
         25    2    1    2    0    0 -0.80697083502E+02 -0.58824016368E+02 -0.34437053418E+03  0.37972166473E+03  0.12500077466E+03 0.  0.
          2    1    1    2  501    0  0.34453832971E+02 -0.60392021662E+00 -0.74479536175E+03  0.74559208835E+03  0.00000000000E+00 0. -1.
          1    1    1    2  502    0  0.46243250531E+02  0.59427936584E+02  0.17669369311E+03  0.19206972445E+03  0.00000000000E+00 0. -1.
         22    1    3    3    0    0  0.17364578722E+02  0.25269689276E+02 -0.59782111839E+02  0.67186209048E+02  0.00000000000E+00 0. -1.
         22    1    3    3    0    0 -0.98061662224E+02 -0.84093705644E+02 -0.28458842234E+03  0.31253545568E+03  0.00000000000E+00 0. -1.
</event>
<event>
 7    1  0.6255318E-006  0.8386348E+02  0.7818608E-02  0.1390560E+00
          2   -1    0    0  502    0  0.00000000000E+00  0.00000000000E+00  0.15336747293E+03  0.15336747293E+03  0.00000000000E+00 0. -1.
          1   -1    0    0  501    0 -0.00000000000E+00 -0.00000000000E+00 -0.17026040579E+04  0.17026040579E+04  0.00000000000E+00 0. -1.
         25    2    1    2    0    0 -0.10606713911E+03 -0.47120255441E+02 -0.18153485995E+03  0.24910072494E+03  0.12500283724E+03 0.  0.
          2    1    1    2  501    0  0.44858388273E+02 -0.75754301635E+01 -0.14728070025E+04  0.14735094600E+04  0.00000000000E+00 0. -1.
          1    1    1    2  502    0  0.61208750840E+02  0.54695685604E+02  0.10510527751E+03  0.13336134584E+03  0.00000000000E+00 0. -1.
         22    1    3    3    0    0  0.12103504894E+02 -0.31894250788E+02 -0.97510584360E+02  0.10330562485E+03  0.00000000000E+00 0. -1.
         22    1    3    3    0    0 -0.11817064401E+03 -0.15226004653E+02 -0.84024275587E+02  0.14579510009E+03  0.00000000000E+00 0. -1.
</event>
<event>
 7    1  0.6255318E-006  0.1807920E+03  0.7818608E-02  0.1197019E+00
          2   -1    0    0  502    0  0.00000000000E+00  0.00000000000E+00  0.19075214780E+04  0.19075214780E+04  0.00000000000E+00 0. -1.
          1   -1    0    0  501    0 -0.00000000000E+00 -0.00000000000E+00 -0.52719327358E+03  0.52719327358E+03  0.00000000000E+00 0. -1.
         25    2    1    2    0    0 -0.50324713427E+01  0.71255197604E+02 -0.94762537951E+00  0.14397318026E+03  0.12499899875E+03 0.  0.
          2    1    1    2  501    0 -0.92488229487E+02  0.90242204425E+02 -0.44058254824E+03  0.45914127441E+03  0.00000000000E+00 0. -1.
          1    1    1    2  502    0  0.97520700830E+02 -0.16149740203E+03  0.18218583780E+04  0.18316002969E+04  0.00000000000E+00 0. -1.
         22    1    3    3    0    0  0.19973373701E+02  0.63570743027E+02 -0.53378670797E+02  0.85378319977E+02  0.00000000000E+00 0. -1.
         22    1    3    3    0    0 -0.25005845044E+02  0.76844545771E+01  0.52431045417E+02  0.58594860287E+02  0.00000000000E+00 0. -1.
</event>
<event>
 7    1  0.6255318E-006  0.7245556E+02  0.7818608E-02  0.1405089E+00
          2   -1    0    0  502    0  0.00000000000E+00  0.00000000000E+00  0.17041344530E+04  0.17041344530E+04  0.00000000000E+00 0. -1.
          1   -1    0    0  501    0 -0.00000000000E+00 -0.00000000000E+00 -0.34619522008E+03  0.34619522008E+03  0.00000000000E+00 0. -1.
         25    2    1    2    0    0 -0.46359815036E+02 -0.73808517867E+02 -0.16008494944E+03  0.22100805378E+03  0.12498175483E+03 0.  0.
          2    1    1    2  501    0 -0.19137424426E+02  0.42836264445E+02 -0.15130952859E+03  0.15841641332E+03  0.00000000000E+00 0. -1.
          1    1    1    2  502    0  0.65497239462E+02  0.30972253422E+02  0.16693337109E+04  0.16709052060E+04  0.00000000000E+00 0. -1.
         22    1    3    3    0    0 -0.34964076007E+02  0.69550039432E+01  0.58356796235E+01  0.36123591288E+02  0.00000000000E+00 0.  1.
         22    1    3    3    0    0 -0.11395739029E+02 -0.80763521810E+02 -0.16592062906E+03  0.18488446249E+03  0.00000000000E+00 0.  1.
</event>
<event>
 7    1  0.6255318E-006  0.1291952E+03  0.7818608E-02  0.1250233E+00
          2   -1    0    0  502    0  0.00000000000E+00  0.00000000000E+00  0.19677367412E+04  0.19677367412E+04  0.00000000000E+00 0. -1.
          1   -1    0    0  501    0 -0.00000000000E+00 -0.00000000000E+00 -0.39532076238E+03  0.39532076238E+03  0.00000000000E+00 0. -1.
         25    2    1    2    0    0 -0.17620578636E+03 -0.10478670275E+03  0.35889200503E+03  0.43180722981E+03  0.12500112087E+03 0.  0.
          2    1    1    2  501    0  0.10371042979E+03  0.28585424086E+01 -0.34881240685E+03  0.36391498964E+03  0.00000000000E+00 0. -1.
          1    1    1    2  502    0  0.72495356574E+02  0.10192816035E+03  0.15623363806E+04  0.15673352841E+04  0.00000000000E+00 0. -1.
         22    1    3    3    0    0  0.10644278072E+02 -0.20483461077E+02  0.62508819938E+01  0.23915400039E+02  0.00000000000E+00 0.  1.
         22    1    3    3    0    0 -0.18685006443E+03 -0.84303241678E+02  0.35264112303E+03  0.40789182977E+03  0.00000000000E+00 0.  1.
</event>
<event>
 7    1  0.6255318E-006  0.2338386E+03  0.7818608E-02  0.1185600E+00
          2   -1    0    0  502    0  0.00000000000E+00  0.00000000000E+00  0.80513530476E+03  0.80513530476E+03  0.00000000000E+00 0. -1.
          1   -1    0    0  501    0 -0.00000000000E+00 -0.00000000000E+00 -0.82008351879E+03  0.82008351879E+03  0.00000000000E+00 0. -1.
         25    2    1    2    0    0  0.20439384169E+03  0.43742429816E+02  0.10843242213E+03  0.26659668946E+03  0.12500384785E+03 0.  0.
          2    1    1    2  501    0 -0.12595941648E+02  0.11260379549E+03 -0.71155291621E+03  0.72051774792E+03  0.00000000000E+00 0. -1.
          1    1    1    2  502    0 -0.19179790004E+03 -0.15634622530E+03  0.58817228005E+03  0.63810438617E+03  0.00000000000E+00 0. -1.
         22    1    3    3    0    0 -0.11287385330E+02 -0.85554958668E+01  0.26457116435E+02  0.30009674893E+02  0.00000000000E+00 0.  1.
         22    1    3    3    0    0  0.21568122702E+03  0.52297925682E+02  0.81975305690E+02  0.23658701457E+03  0.00000000000E+00 0.  1.
</event>
<event>
 7    1  0.6255318E-006  0.6863673E+02  0.7818608E-02  0.1479642E+00
          2   -1    0    0  502    0  0.00000000000E+00  0.00000000000E+00  0.79153991705E+03  0.79153991705E+03  0.00000000000E+00 0. -1.
          1   -1    0    0  501    0 -0.00000000000E+00 -0.00000000000E+00 -0.90093186461E+03  0.90093186461E+03  0.00000000000E+00 0. -1.
         25    2    1    2    0    0  0.45047260485E+02 -0.10182736606E+02  0.34571670475E+03  0.37051051824E+03  0.12500024151E+03 0.  0.
          2    1    1    2  501    0  0.28301711537E+02 -0.25285515623E+01 -0.88510886971E+03  0.88556484330E+03  0.00000000000E+00 0. -1.
          1    1    1    2  502    0 -0.73348972021E+02  0.12711288168E+02  0.43000021739E+03  0.43639642013E+03  0.00000000000E+00 0. -1.
         22    1    3    3    0    0 -0.16653415874E+02 -0.80183574016E+01  0.27899670647E+03  0.27960828410E+03  0.00000000000E+00 0.  1.
         22    1    3    3    0    0  0.61700676358E+02 -0.21643792042E+01  0.66719998285E+02  0.90902234139E+02  0.00000000000E+00 0.  1.
</event>
<event>
 7    1  0.6255318E-006  0.5270135E+02  0.7818608E-02  0.1435710E+00
          2   -1    0    0  502    0  0.00000000000E+00  0.00000000000E+00  0.91009218063E+03  0.91009218063E+03  0.00000000000E+00 0. -1.
          1   -1    0    0  501    0 -0.00000000000E+00 -0.00000000000E+00 -0.11400333269E+04  0.11400333269E+04  0.00000000000E+00 0. -1.
         25    2    1    2    0    0 -0.10073054117E+03  0.15400186571E+02  0.12949724186E+03  0.20682914893E+03  0.12499981412E+03 0.  0.
          2    1    1    2  501    0  0.49197562874E+02 -0.13341014677E+02 -0.10998800961E+04  0.11010606744E+04  0.00000000000E+00 0. -1.
          1    1    1    2  502    0  0.51532978292E+02 -0.20591718942E+01  0.74044170796E+03  0.74223568422E+03  0.00000000000E+00 0. -1.
         22    1    3    3    0    0 -0.40229108944E+01  0.35591462996E+02  0.96076989478E+02  0.10253645185E+03  0.00000000000E+00 0. -1.
         22    1    3    3    0    0 -0.96707630271E+02 -0.20191276424E+02  0.33420252385E+02  0.10429269709E+03  0.00000000000E+00 0. -1.
</event>
<event>
 7    1  0.6255318E-006  0.3333588E+03  0.7818608E-02  0.1116633E+00
          2   -1    0    0  502    0  0.00000000000E+00  0.00000000000E+00  0.37836432100E+04  0.37836432100E+04  0.00000000000E+00 0. -1.
          1   -1    0    0  501    0 -0.00000000000E+00 -0.00000000000E+00 -0.22788779500E+03  0.22788779500E+03  0.00000000000E+00 0. -1.
         25    2    1    2    0    0 -0.24628947265E+03 -0.11363082041E+03  0.25812794440E+03  0.39474612194E+03  0.12499598963E+03 0.  0.
          2    1    1    2  501    0  0.39101622835E+03  0.69860068459E+01  0.86374226545E+02  0.40050343586E+03  0.00000000000E+00 0. -1.
          1    1    1    2  502    0 -0.14472675569E+03  0.10664481357E+03  0.32112532440E+04  0.32162814472E+04  0.00000000000E+00 0. -1.
         22    1    3    3    0    0 -0.15691070955E+03 -0.37972939537E+02  0.21735224223E+03  0.27074879891E+03  0.00000000000E+00 0. -1.
         22    1    3    3    0    0 -0.89378763105E+02 -0.75657880878E+02  0.40775702167E+02  0.12399732304E+03  0.00000000000E+00 0. -1.
</event>
<event>
 7    1  0.6255318E-006  0.4645708E+02  0.7818608E-02  0.1510886E+00
          2   -1    0    0  502    0  0.00000000000E+00  0.00000000000E+00  0.83020466564E+02  0.83020466564E+02  0.00000000000E+00 0. -1.
          1   -1    0    0  501    0 -0.00000000000E+00 -0.00000000000E+00 -0.10173101559E+04  0.10173101559E+04  0.00000000000E+00 0. -1.
         25    2    1    2    0    0 -0.20431956882E+02  0.98275553233E+01 -0.15960102990E+03  0.20398777743E+03  0.12499791553E+03 0.  0.
          2    1    1    2  501    0 -0.26091809635E+02 -0.21519602589E+02 -0.82565759363E+03  0.82635000923E+03  0.00000000000E+00 0. -1.
          1    1    1    2  502    0  0.46523766517E+02  0.11692047266E+02  0.50968934164E+02  0.69992835848E+02  0.00000000000E+00 0. -1.
         22    1    3    3    0    0  0.34913777029E+02  0.47196422230E+02 -0.58935467590E+02  0.83185716549E+02  0.00000000000E+00 0.  1.
         22    1    3    3    0    0 -0.55345733911E+02 -0.37368866907E+02 -0.10066556231E+03  0.12080206088E+03  0.00000000000E+00 0.  1.
</event>
<event>
 7    1  0.6255318E-006  0.6166787E+02  0.7818608E-02  0.1534817E+00
          2   -1    0    0  502    0  0.00000000000E+00  0.00000000000E+00  0.11160741880E+04  0.11160741880E+04  0.00000000000E+00 0. -1.
          1   -1    0    0  501    0 -0.00000000000E+00 -0.00000000000E+00 -0.38953057192E+03  0.38953057192E+03  0.00000000000E+00 0. -1.
         25    2    1    2    0    0 -0.46583561647E+02  0.36907771455E+02  0.63030293574E+02  0.15208511044E+03  0.12499940439E+03 0.  0.
          2    1    1    2  501    0 -0.12231926925E+02 -0.17953904922E+02 -0.34371333517E+03  0.34439921531E+03  0.00000000000E+00 0. -1.
          1    1    1    2  502    0  0.58815488572E+02 -0.18953866533E+02  0.10072266577E+04  0.10091204342E+04  0.00000000000E+00 0. -1.
         22    1    3    3    0    0 -0.16505390713E+02  0.65970257208E+02  0.81686278261E+02  0.10628805584E+03  0.00000000000E+00 0.  1.
         22    1    3    3    0    0 -0.30078170934E+02 -0.29062485753E+02 -0.18655984687E+02  0.45797054594E+02  0.00000000000E+00 0.  1.
</event>
<event>
 7    1  0.6255318E-006  0.3393544E+02  0.7818608E-02  0.1611647E+00
          2   -1    0    0  502    0  0.00000000000E+00  0.00000000000E+00  0.13479266027E+03  0.13479266027E+03  0.00000000000E+00 0. -1.
          1   -1    0    0  501    0 -0.00000000000E+00 -0.00000000000E+00 -0.62106502947E+03  0.62106502947E+03  0.00000000000E+00 0. -1.
         25    2    1    2    0    0  0.36990885785E+02 -0.27155389958E+01  0.13489019766E+02  0.13107963032E+03  0.12499686415E+03 0.  0.
          2    1    1    2  501    0 -0.12306280586E+02 -0.21134001816E+02 -0.55726934438E+03  0.55780571238E+03  0.00000000000E+00 0. -1.
          1    1    1    2  502    0 -0.24684605199E+02  0.23849540812E+02  0.57507955414E+02  0.66972347029E+02  0.00000000000E+00 0. -1.
         22    1    3    3    0    0  0.37027647125E+02 -0.21312904502E+02 -0.49508714147E+02  0.65394184194E+02  0.00000000000E+00 0.  1.
         22    1    3    3    0    0 -0.36761339787E-01  0.18597365507E+02  0.62997733913E+02  0.65685446130E+02  0.00000000000E+00 0.  1.
</event>
<event>
 7    1  0.6255318E-006  0.1359385E+03  0.7818608E-02  0.1304355E+00
          2   -1    0    0  502    0  0.00000000000E+00  0.00000000000E+00  0.64091679574E+03  0.64091679574E+03  0.00000000000E+00 0. -1.
          1   -1    0    0  501    0 -0.00000000000E+00 -0.00000000000E+00 -0.12436771674E+04  0.12436771674E+04  0.00000000000E+00 0. -1.
         25    2    1    2    0    0  0.85698056253E+02 -0.79194072446E+02  0.31921854317E+03  0.36213433058E+03  0.12499974849E+03 0.  0.
          2    1    1    2  501    0 -0.81783230759E+01 -0.58198465603E+02 -0.12007291000E+04  0.12021665101E+04  0.00000000000E+00 0. -1.
          1    1    1    2  502    0 -0.77519733177E+02  0.13739253805E+03  0.27875018520E+03  0.32029312246E+03  0.00000000000E+00 0. -1.
         22    1    3    3    0    0  0.14996654432E+02 -0.90315258814E+02  0.23134987799E+03  0.24880617289E+03  0.00000000000E+00 0. -1.
         22    1    3    3    0    0  0.70701401821E+02  0.11121186368E+02  0.87868665174E+02  0.11332815769E+03  0.00000000000E+00 0. -1.
</event>
<event>
 7    1  0.6255318E-006  0.1631562E+03  0.7818608E-02  0.1245349E+00
          2   -1    0    0  502    0  0.00000000000E+00  0.00000000000E+00  0.11603448138E+04  0.11603448138E+04  0.00000000000E+00 0. -1.
          1   -1    0    0  501    0 -0.00000000000E+00 -0.00000000000E+00 -0.12986755350E+04  0.12986755350E+04  0.00000000000E+00 0. -1.
         25    2    1    2    0    0 -0.16502218323E+03 -0.39890008921E+02  0.72092507816E+03  0.75112001519E+03  0.12499910051E+03 0.  0.
          2    1    1    2  501    0  0.42860976316E+02 -0.74877831130E+02 -0.12654988789E+04  0.12684365043E+04  0.00000000000E+00 0. -1.
          1    1    1    2  502    0  0.12216120692E+03  0.11476784005E+03  0.40624307960E+03  0.43946382936E+03  0.00000000000E+00 0. -1.
         22    1    3    3    0    0  0.12106939523E+01 -0.20198834220E+02  0.25917953177E+03  0.25996824493E+03  0.00000000000E+00 0.  1.
         22    1    3    3    0    0 -0.16623287718E+03 -0.19691174701E+02  0.46174554639E+03  0.49115177026E+03  0.00000000000E+00 0.  1.
</event>
<event>
 7    1  0.6255318E-006  0.7613752E+02  0.7818608E-02  0.1452576E+00
          2   -1    0    0  502    0  0.00000000000E+00  0.00000000000E+00  0.12999158913E+04  0.12999158913E+04  0.00000000000E+00 0. -1.
          1   -1    0    0  501    0 -0.00000000000E+00 -0.00000000000E+00 -0.18676052853E+04  0.18676052853E+04  0.00000000000E+00 0. -1.
         25    2    1    2    0    0  0.67632530469E+02 -0.34087963225E+02  0.14803638235E+03  0.20802699445E+03  0.12499724599E+03 0.  0.
          2    1    1    2  501    0 -0.18873629544E+02 -0.24754405469E+02 -0.18361765550E+04  0.18364403980E+04  0.00000000000E+00 0. -1.
          1    1    1    2  502    0 -0.48758900925E+02  0.58842368694E+02  0.11204507786E+04  0.11230537841E+04  0.00000000000E+00 0. -1.
         22    1    3    3    0    0 -0.12876012064E+02 -0.13884336358E+02  0.11837751337E+03  0.11988245141E+03  0.00000000000E+00 0. -1.
         22    1    3    3    0    0  0.80508542534E+02 -0.20203626866E+02  0.29658868980E+02  0.88144543045E+02  0.00000000000E+00 0. -1.
</event>
<event>
 7    1  0.6255318E-006  0.1390073E+03  0.7818608E-02  0.1310522E+00
          2   -1    0    0  502    0  0.00000000000E+00  0.00000000000E+00  0.38965081189E+03  0.38965081189E+03  0.00000000000E+00 0. -1.
          1   -1    0    0  501    0 -0.00000000000E+00 -0.00000000000E+00 -0.28577863447E+03  0.28577863447E+03  0.00000000000E+00 0. -1.
         25    2    1    2    0    0  0.14456090158E+03 -0.60798155754E+02  0.93090107309E+02  0.22110563699E+03  0.12501065803E+03 0.  0.
          2    1    1    2  501    0 -0.10111642444E+03  0.93426485349E+02 -0.19656243960E+03  0.23997881597E+03  0.00000000000E+00 0. -1.
          1    1    1    2  502    0 -0.43444477148E+02 -0.32628329595E+02  0.20734450970E+03  0.21434499339E+03  0.00000000000E+00 0. -1.
         22    1    3    3    0    0  0.44469897901E+02 -0.58278627829E+02  0.96183875160E+02  0.12093514014E+03  0.00000000000E+00 0.  1.
         22    1    3    3    0    0  0.10009100368E+03 -0.25195279249E+01 -0.30937678505E+01  0.10017049685E+03  0.00000000000E+00 0.  1.
</event>
<event>
 7    1  0.6255318E-006  0.3873188E+02  0.7818608E-02  0.1600975E+00
          2   -1    0    0  502    0  0.00000000000E+00  0.00000000000E+00  0.57530887203E+03  0.57530887203E+03  0.00000000000E+00 0. -1.
          1   -1    0    0  501    0 -0.00000000000E+00 -0.00000000000E+00 -0.52263703464E+03  0.52263703464E+03  0.00000000000E+00 0. -1.
         25    2    1    2    0    0  0.16446987121E+02 -0.54721938625E+02 -0.89619293043E+02  0.16407567388E+03  0.12499686045E+03 0.  0.
          2    1    1    2  501    0  0.46648789988E+01  0.22354865780E+02 -0.39476531465E+03  0.39542528342E+03  0.00000000000E+00 0. -1.
          1    1    1    2  502    0 -0.21111866120E+02  0.32367072844E+02  0.53705644508E+03  0.53844494937E+03  0.00000000000E+00 0. -1.
         22    1    3    3    0    0  0.10274654844E+02 -0.95409603160E+02 -0.57477369130E+02  0.11185798527E+03  0.00000000000E+00 0. -1.
         22    1    3    3    0    0  0.61723322770E+01  0.40687664535E+02 -0.32141923913E+02  0.52217688611E+02  0.00000000000E+00 0. -1.
</event>
<event>
 7    1  0.6255318E-006  0.2717015E+03  0.7818608E-02  0.1256993E+00
          2   -1    0    0  502    0  0.00000000000E+00  0.00000000000E+00  0.23804321774E+03  0.23804321774E+03  0.00000000000E+00 0. -1.
          1   -1    0    0  501    0 -0.00000000000E+00 -0.00000000000E+00 -0.47007635173E+03  0.47007635173E+03  0.00000000000E+00 0. -1.
         25    2    1    2    0    0 -0.25535190058E+03  0.23259137008E+02 -0.96733421291E+02  0.30121060501E+03  0.12499957276E+03 0.  0.
          2    1    1    2  501    0  0.27700784519E+03 -0.63990614824E+02 -0.18492523011E+03  0.33915407386E+03  0.00000000000E+00 0. -1.
          1    1    1    2  502    0 -0.21655944615E+02  0.40731477816E+02  0.49625517416E+02  0.67754890606E+02  0.00000000000E+00 0. -1.
         22    1    3    3    0    0 -0.88394161222E+02  0.41852326905E+02 -0.90274973053E+02  0.13309664070E+03  0.00000000000E+00 0. -1.
         22    1    3    3    0    0 -0.16695773936E+03 -0.18593189897E+02 -0.64584482376E+01  0.16811396431E+03  0.00000000000E+00 0. -1.
</event>
<event>
 7    1  0.6255318E-006  0.4879842E+02  0.7818608E-02  0.1508678E+00
          2   -1    0    0  502    0  0.00000000000E+00  0.00000000000E+00  0.32736391983E+03  0.32736391983E+03  0.00000000000E+00 0. -1.
          1   -1    0    0  501    0 -0.00000000000E+00 -0.00000000000E+00 -0.71011999374E+02  0.71011999374E+02  0.00000000000E+00 0. -1.
         25    2    1    2    0    0 -0.69226489032E+02  0.36859004597E+01  0.10024019320E+03  0.17458210589E+03  0.12499969087E+03 0.  0.
          2    1    1    2  501    0  0.24977217331E+02 -0.21080862367E+02 -0.22030513463E+02  0.39415830160E+02  0.00000000000E+00 0. -1.
          1    1    1    2  502    0  0.44249271701E+02  0.17394961907E+02  0.17814224072E+03  0.18437798316E+03  0.00000000000E+00 0. -1.
         22    1    3    3    0    0 -0.60989146215E+02 -0.55378044808E+02  0.48275567583E+02  0.95482638360E+02  0.00000000000E+00 0. -1.
         22    1    3    3    0    0 -0.82373428169E+01  0.59063945268E+02  0.51964625622E+02  0.79099467528E+02  0.00000000000E+00 0. -1.
</event>
<event>
 7    1  0.6255318E-006  0.5705291E+02  0.7818608E-02  0.1429506E+00
          2   -1    0    0  502    0  0.00000000000E+00  0.00000000000E+00  0.35406648036E+04  0.35406648036E+04  0.00000000000E+00 0. -1.
          1   -1    0    0  501    0 -0.00000000000E+00 -0.00000000000E+00 -0.74204389826E+02  0.74204389826E+02  0.00000000000E+00 0. -1.
         25    2    1    2    0    0 -0.33645762099E+02  0.18054431400E+02  0.28023292861E+03  0.30921389316E+03  0.12499895057E+03 0.  0.
          2    1    1    2  501    0 -0.16567230928E+02 -0.46480878216E+02 -0.49218349259E+02  0.69694986077E+02  0.00000000000E+00 0. -1.
          1    1    1    2  502    0  0.50212993027E+02  0.28426446816E+02  0.32354458344E+04  0.32359603142E+04  0.00000000000E+00 0. -1.
         22    1    3    3    0    0  0.27555065466E+01  0.38348264326E+02  0.26010628931E+03  0.26293243225E+03  0.00000000000E+00 0. -1.
         22    1    3    3    0    0 -0.36401268646E+02 -0.20293832926E+02  0.20126639307E+02  0.46281460906E+02  0.00000000000E+00 0. -1.
</event>
<event>
 7    1  0.6255318E-006  0.7910535E+02  0.7818608E-02  0.1359411E+00
          2   -1    0    0  502    0  0.00000000000E+00  0.00000000000E+00  0.17691117791E+04  0.17691117791E+04  0.00000000000E+00 0. -1.
          1   -1    0    0  501    0 -0.00000000000E+00 -0.00000000000E+00 -0.37519176698E+02  0.37519176698E+02  0.00000000000E+00 0. -1.
         25    2    1    2    0    0 -0.77832573810E+02 -0.24635890250E+02  0.39593755179E+03  0.42314995273E+03  0.12499800378E+03 0.  0.
          2    1    1    2  501    0  0.38342452833E+02  0.72819970780E+02  0.49955048355E+02  0.96272523026E+02  0.00000000000E+00 0. -1.
          1    1    1    2  502    0  0.39490120977E+02 -0.48184080530E+02  0.12857000023E+04  0.12872084801E+04  0.00000000000E+00 0. -1.
         22    1    3    3    0    0  0.14915508304E+02 -0.22866230715E+02  0.24117250370E+03  0.24271282091E+03  0.00000000000E+00 0. -1.
         22    1    3    3    0    0 -0.92748082113E+02 -0.17696595342E+01  0.15476504809E+03  0.18043713182E+03  0.00000000000E+00 0. -1.
</event>
<event>
 7    1  0.6255318E-006  0.5631423E+02  0.7818608E-02  0.1524820E+00
          2   -1    0    0  502    0  0.00000000000E+00  0.00000000000E+00  0.74480140167E+03  0.74480140167E+03  0.00000000000E+00 0. -1.
          1   -1    0    0  501    0 -0.00000000000E+00 -0.00000000000E+00 -0.17266766092E+04  0.17266766092E+04  0.00000000000E+00 0. -1.
         25    2    1    2    0    0 -0.11672663031E+02 -0.42723315301E+02 -0.24167015313E+03  0.27566683580E+03  0.12500483476E+03 0.  0.
          2    1    1    2  501    0 -0.25411032613E+02  0.25078636961E+00 -0.14668058667E+04  0.14670259828E+04  0.00000000000E+00 0. -1.
          1    1    1    2  502    0  0.37083695645E+02  0.42472528931E+02  0.72660081227E+03  0.72878519235E+03  0.00000000000E+00 0. -1.
         22    1    3    3    0    0  0.15824505860E+02  0.30746809922E+02 -0.18728346545E+02  0.39325974501E+02  0.00000000000E+00 0. -1.
         22    1    3    3    0    0 -0.27497168892E+02 -0.73470125223E+02 -0.22294180658E+03  0.23634086130E+03  0.00000000000E+00 0. -1.
</event>
<event>
 7    1  0.6255318E-006  0.1737606E+03  0.7818608E-02  0.1245653E+00
          2   -1    0    0  502    0  0.00000000000E+00  0.00000000000E+00  0.11228831115E+04  0.11228831115E+04  0.00000000000E+00 0. -1.
          1   -1    0    0  501    0 -0.00000000000E+00 -0.00000000000E+00 -0.81657321988E+03  0.81657321988E+03  0.00000000000E+00 0. -1.
         25    2    1    2    0    0 -0.32253419748E+02 -0.14348933624E+03 -0.62606449609E+02  0.20291442965E+03  0.12500090210E+03 0.  0.
          2    1    1    2  501    0 -0.80357748469E+02  0.80967049655E+01 -0.67402031729E+03  0.67884189064E+03  0.00000000000E+00 0. -1.
          1    1    1    2  502    0  0.11261116822E+03  0.13539263127E+03  0.10429366586E+04  0.10577000111E+04  0.00000000000E+00 0. -1.
         22    1    3    3    0    0  0.14428101153E+02  0.16803118124E+02  0.51482022924E+01  0.22738048914E+02  0.00000000000E+00 0. -1.
         22    1    3    3    0    0 -0.46681520902E+02 -0.16029245436E+03 -0.67754651901E+02  0.18017638073E+03  0.00000000000E+00 0. -1.
</event>
<event>
 7    1  0.6255318E-006  0.4797287E+02  0.7818608E-02  0.1500099E+00
          2   -1    0    0  502    0  0.00000000000E+00  0.00000000000E+00  0.88297923968E+03  0.88297923968E+03  0.00000000000E+00 0. -1.
          1   -1    0    0  501    0 -0.00000000000E+00 -0.00000000000E+00 -0.23132809284E+03  0.23132809284E+03  0.00000000000E+00 0. -1.
         25    2    1    2    0    0 -0.44071569634E+02 -0.49647894259E+02 -0.80520290998E+02  0.16283772328E+03  0.12500156081E+03 0.  0.
          2    1    1    2  501    0  0.90275700109E+01  0.45815006774E+02 -0.10428935288E+03  0.11426627232E+03  0.00000000000E+00 0. -1.
          1    1    1    2  502    0  0.35043999623E+02  0.38328874856E+01  0.83646079072E+03  0.83720333691E+03  0.00000000000E+00 0. -1.
         22    1    3    3    0    0  0.80894446216E+01  0.16640937837E+02 -0.76159285042E+02  0.78374719294E+02  0.00000000000E+00 0.  1.
         22    1    3    3    0    0 -0.52161014255E+02 -0.66288832096E+02 -0.43610059560E+01  0.84463003983E+02  0.00000000000E+00 0.  1.
</event>
<event>
 7    1  0.6255318E-006  0.9027283E+02  0.7818608E-02  0.1455429E+00
          2   -1    0    0  502    0  0.00000000000E+00  0.00000000000E+00  0.42097935992E+03  0.42097935992E+03  0.00000000000E+00 0. -1.
          1   -1    0    0  501    0 -0.00000000000E+00 -0.00000000000E+00 -0.11818076532E+03  0.11818076532E+03  0.00000000000E+00 0. -1.
         25    2    1    2    0    0 -0.66090608692E+02  0.91370421477E+02  0.13712074301E+03  0.21712623010E+03  0.12500071662E+03 0.  0.
          2    1    1    2  501    0  0.52722012841E+02 -0.69407796399E+02 -0.52893964640E+02  0.10195501132E+03  0.00000000000E+00 0. -1.
          1    1    1    2  502    0  0.13368595851E+02 -0.21962625078E+02  0.21857181622E+03  0.22007888382E+03  0.00000000000E+00 0. -1.
         22    1    3    3    0    0  0.34983784750E+02  0.41123307705E+02  0.31316203049E+02  0.62415512538E+02  0.00000000000E+00 0.  1.
         22    1    3    3    0    0 -0.10107439344E+03  0.50247113773E+02  0.10580453997E+03  0.15471071756E+03  0.00000000000E+00 0.  1.
</event>
<event>
 7    1  0.6255318E-006  0.8541450E+02  0.7818608E-02  0.1378018E+00
          2   -1    0    0  502    0  0.00000000000E+00  0.00000000000E+00  0.12615259495E+04  0.12615259495E+04  0.00000000000E+00 0. -1.
          1   -1    0    0  501    0 -0.00000000000E+00 -0.00000000000E+00 -0.73917570208E+03  0.73917570208E+03  0.00000000000E+00 0. -1.
         25    2    1    2    0    0 -0.67979538117E+02 -0.42720842967E+02 -0.45193822182E+03  0.47573003702E+03  0.12499849500E+03 0.  0.
          2    1    1    2  501    0  0.94115034388E+02  0.74650174164E+00 -0.26679194918E+03  0.28290659432E+03  0.00000000000E+00 0. -1.
          1    1    1    2  502    0 -0.26135496272E+02  0.41974341226E+02  0.12410804184E+04  0.12420650202E+04  0.00000000000E+00 0. -1.
         22    1    3    3    0    0 -0.65322609070E+01 -0.56316635232E+02 -0.35924723629E+03  0.36369329197E+03  0.00000000000E+00 0.  1.
         22    1    3    3    0    0 -0.61447277210E+02  0.13595792265E+02 -0.92690985530E+02  0.11203674505E+03  0.00000000000E+00 0.  1.
</event>
<event>
 7    1  0.6255318E-006  0.2838630E+03  0.7818608E-02  0.1232736E+00
          2   -1    0    0  502    0  0.00000000000E+00  0.00000000000E+00  0.27277489998E+03  0.27277489998E+03  0.00000000000E+00 0. -1.
          1   -1    0    0  501    0 -0.00000000000E+00 -0.00000000000E+00 -0.20071395007E+04  0.20071395007E+04  0.00000000000E+00 0. -1.
         25    2    1    2    0    0  0.11299568890E+03 -0.22047789083E+03 -0.22027550179E+03  0.35429424618E+03  0.12499836049E+03 0.  0.
          2    1    1    2  501    0 -0.96508211296E+02  0.27439086517E+03 -0.17034191868E+04  0.17280743930E+04  0.00000000000E+00 0. -1.
          1    1    1    2  502    0 -0.16487477608E+02 -0.53912974337E+02  0.18933008787E+03  0.19754576152E+03  0.00000000000E+00 0. -1.
         22    1    3    3    0    0  0.11309493157E+03 -0.94203182882E+02 -0.14831459920E+03  0.20895435757E+03  0.00000000000E+00 0. -1.
         22    1    3    3    0    0 -0.99242669512E-01 -0.12627470795E+03 -0.71960902598E+02  0.14533988861E+03  0.00000000000E+00 0. -1.
</event>
<event>
 7    1  0.6255318E-006  0.4019971E+02  0.7818608E-02  0.1539402E+00
          2   -1    0    0  502    0  0.00000000000E+00  0.00000000000E+00  0.14931350943E+03  0.14931350943E+03  0.00000000000E+00 0. -1.
          1   -1    0    0  501    0 -0.00000000000E+00 -0.00000000000E+00 -0.14414935230E+04  0.14414935230E+04  0.00000000000E+00 0. -1.
         25    2    1    2    0    0 -0.11222882132E+02  0.40967695364E+01 -0.75512950008E+03  0.76549878111E+03  0.12500034153E+03 0.  0.
          2    1    1    2  501    0  0.43191763484E+02 -0.90012616855E+01 -0.67863953857E+03  0.68007218327E+03  0.00000000000E+00 0. -1.
          1    1    1    2  502    0 -0.31968881353E+02  0.49044921492E+01  0.14158902512E+03  0.14523606801E+03  0.00000000000E+00 0. -1.
         22    1    3    3    0    0  0.33849750068E+02  0.13620873149E+02 -0.71063960964E+02  0.79883792555E+02  0.00000000000E+00 0.  1.
         22    1    3    3    0    0 -0.45072632199E+02 -0.95241036127E+01 -0.68406553912E+03  0.68561498856E+03  0.00000000000E+00 0.  1.
</event>
<event>
 7    1  0.6255318E-006  0.1068191E+03  0.7818608E-02  0.1315987E+00
          2   -1    0    0  502    0  0.00000000000E+00  0.00000000000E+00  0.25438307434E+04  0.25438307434E+04  0.00000000000E+00 0. -1.
          1   -1    0    0  501    0 -0.00000000000E+00 -0.00000000000E+00 -0.67071230554E+03  0.67071230554E+03  0.00000000000E+00 0. -1.
         25    2    1    2    0    0 -0.14284066288E+03  0.51737981192E+02 -0.11090580566E+03  0.22584277367E+03  0.12499834807E+03 0.  0.
          2    1    1    2  501    0  0.10345802421E+03  0.28374196402E+01 -0.49654587794E+03  0.50721733273E+03  0.00000000000E+00 0. -1.
          1    1    1    2  502    0  0.39382638671E+02 -0.54575400832E+02  0.24805701215E+04  0.24814829426E+04  0.00000000000E+00 0. -1.
         22    1    3    3    0    0  0.22903668591E+02 -0.48090621794E+00 -0.11288217890E+02  0.25538856060E+02  0.00000000000E+00 0. -1.
         22    1    3    3    0    0 -0.16574433148E+03  0.52218887410E+02 -0.99617587772E+02  0.20030391761E+03  0.00000000000E+00 0. -1.
</event>
<event>
 7    1  0.6255318E-006  0.1744066E+03  0.7818608E-02  0.1218766E+00
          2   -1    0    0  502    0  0.00000000000E+00  0.00000000000E+00  0.65486435576E+03  0.65486435576E+03  0.00000000000E+00 0. -1.
          1   -1    0    0  501    0 -0.00000000000E+00 -0.00000000000E+00 -0.31947120147E+04  0.31947120147E+04  0.00000000000E+00 0. -1.
         25    2    1    2    0    0 -0.12172246837E+02 -0.15875430671E+03  0.70296063665E+02  0.21428317438E+03  0.12499859504E+03 0.  0.
          2    1    1    2  501    0  0.10609905625E+03  0.11242741064E+01 -0.31053615471E+04  0.31071737338E+04  0.00000000000E+00 0. -1.
          1    1    1    2  502    0 -0.93926809417E+02  0.15763003261E+03  0.49521782451E+03  0.52811946227E+03  0.00000000000E+00 0. -1.
         22    1    3    3    0    0 -0.66123834432E+02 -0.11190759083E+03  0.35133621074E+02  0.13464784326E+03  0.00000000000E+00 0.  1.
         22    1    3    3    0    0  0.53951587596E+02 -0.46846715882E+02  0.35162442590E+02  0.79635331116E+02  0.00000000000E+00 0.  1.
</event>
<event>
 7    1  0.6255318E-006  0.1037761E+03  0.7818608E-02  0.1367777E+00
          2   -1    0    0  502    0  0.00000000000E+00  0.00000000000E+00  0.13522000023E+04  0.13522000023E+04  0.00000000000E+00 0. -1.
          1   -1    0    0  501    0 -0.00000000000E+00 -0.00000000000E+00 -0.19791352402E+03  0.19791352402E+03  0.00000000000E+00 0. -1.
         25    2    1    2    0    0 -0.39366716694E+02  0.50710415144E+02  0.18110743963E+03  0.22922909839E+03  0.12499916109E+03 0.  0.
          2    1    1    2  501    0 -0.33381218959E+02  0.29095608881E+02 -0.16844306510E+03  0.17416637567E+03  0.00000000000E+00 0. -1.
          1    1    1    2  502    0  0.72747935653E+02 -0.79806024025E+02  0.11416221037E+04  0.11467180522E+04  0.00000000000E+00 0. -1.
         22    1    3    3    0    0  0.24548447631E+01  0.15284246533E+02 -0.17402716377E+02  0.23291393093E+02  0.00000000000E+00 0.  1.
         22    1    3    3    0    0 -0.41821561457E+02  0.35426168611E+02  0.19851015601E+03  0.20593770530E+03  0.00000000000E+00 0.  1.
</event>
<event>
 7    1  0.6255318E-006  0.7520422E+02  0.7818608E-02  0.1378505E+00
          2   -1    0    0  502    0  0.00000000000E+00  0.00000000000E+00  0.12754906584E+04  0.12754906584E+04  0.00000000000E+00 0. -1.
          1   -1    0    0  501    0 -0.00000000000E+00 -0.00000000000E+00 -0.26220410421E+03  0.26220410421E+03  0.00000000000E+00 0. -1.
         25    2    1    2    0    0 -0.10692487029E+03  0.91806440780E+01  0.40136227978E+03  0.43385845778E+03  0.12499707854E+03 0.  0.
          2    1    1    2  501    0  0.68169445326E+02  0.31153110365E+02 -0.23930675920E+03  0.25076944503E+03  0.00000000000E+00 0. -1.
          1    1    1    2  502    0  0.38755424968E+02 -0.40333754443E+02  0.85123103357E+03  0.85306685977E+03  0.00000000000E+00 0. -1.
         22    1    3    3    0    0 -0.36229925827E+02 -0.57202237137E+02  0.15929895769E+03  0.17309206041E+03  0.00000000000E+00 0.  1.
         22    1    3    3    0    0 -0.70694944467E+02  0.66382881215E+02  0.24206332209E+03  0.26076639737E+03  0.00000000000E+00 0.  1.
</event>
<event>
 7    1  0.6255318E-006  0.1352322E+03  0.7818608E-02  0.1249909E+00
          2   -1    0    0  502    0  0.00000000000E+00  0.00000000000E+00  0.12561995376E+04  0.12561995376E+04  0.00000000000E+00 0. -1.
          1   -1    0    0  501    0 -0.00000000000E+00 -0.00000000000E+00 -0.10663594299E+03  0.10663594299E+03  0.00000000000E+00 0. -1.
         25    2    1    2    0    0 -0.75924317251E+02  0.73639627664E+02  0.48654590407E+03  0.51336100469E+03  0.12500123065E+03 0.  0.
          2    1    1    2  501    0  0.33844133537E+01 -0.14165602818E+03 -0.33738831802E+02  0.14565779534E+03  0.00000000000E+00 0. -1.
          1    1    1    2  502    0  0.72539903898E+02  0.68016400513E+02  0.69675652233E+03  0.70381668053E+03  0.00000000000E+00 0. -1.
         22    1    3    3    0    0 -0.31710540821E+02  0.41841550546E+01  0.16182725181E+02  0.35846145497E+02  0.00000000000E+00 0.  1.
         22    1    3    3    0    0 -0.44213776430E+02  0.69455472610E+02  0.47036317889E+03  0.47751485920E+03  0.00000000000E+00 0.  1.
</event>
<event>
 7    1  0.6255318E-006  0.7746179E+02  0.7818608E-02  0.1354088E+00
          2   -1    0    0  502    0  0.00000000000E+00  0.00000000000E+00  0.11059025615E+03  0.11059025615E+03  0.00000000000E+00 0. -1.
          1   -1    0    0  501    0 -0.00000000000E+00 -0.00000000000E+00 -0.11487933598E+04  0.11487933598E+04  0.00000000000E+00 0. -1.
         25    2    1    2    0    0  0.95948780916E+02 -0.28688398276E+02 -0.31600831346E+02  0.16325349044E+03  0.12499558730E+03 0.  0.
          2    1    1    2  501    0 -0.40784438788E+02  0.65906749456E+02 -0.10243345465E+04  0.10272625435E+04  0.00000000000E+00 0. -1.
          1    1    1    2  502    0 -0.55164342128E+02 -0.37218351180E+02  0.17732274203E+02  0.68867582035E+02  0.00000000000E+00 0. -1.
         22    1    3    3    0    0 -0.10474060973E+02 -0.34430149576E+02  0.23790782278E+02  0.43140960519E+02  0.00000000000E+00 0. -1.
         22    1    3    3    0    0  0.10642284189E+03  0.57417513000E+01 -0.55391613624E+02  0.12011252992E+03  0.00000000000E+00 0. -1.
</event>
<event>
 7    1  0.6255318E-006  0.9701227E+02  0.7818608E-02  0.1332591E+00
          2   -1    0    0  502    0  0.00000000000E+00  0.00000000000E+00  0.18463006964E+04  0.18463006964E+04  0.00000000000E+00 0. -1.
          1   -1    0    0  501    0 -0.00000000000E+00 -0.00000000000E+00 -0.45827481036E+02  0.45827481036E+02  0.00000000000E+00 0. -1.
         25    2    1    2    0    0 -0.11593192629E+03 -0.24098736663E+02  0.20802972649E+03  0.27004116242E+03  0.12499960664E+03 0.  0.
          2    1    1    2  501    0  0.84630341514E+02 -0.31668415753E+02  0.13041661237E+03  0.15866214433E+03  0.00000000000E+00 0. -1.
          1    1    1    2  502    0  0.31301584780E+02  0.55767152416E+02  0.14620268766E+04  0.14634248707E+04  0.00000000000E+00 0. -1.
         22    1    3    3    0    0  0.13598242918E+02  0.28356616197E+02  0.50162599523E+02  0.59205542675E+02  0.00000000000E+00 0. -1.
         22    1    3    3    0    0 -0.12953016921E+03 -0.52455352860E+02  0.15786712696E+03  0.21083561975E+03  0.00000000000E+00 0. -1.
</event>
<event>
 7    1  0.6255318E-006  0.4620299E+02  0.7818608E-02  0.1468805E+00
          2   -1    0    0  502    0  0.00000000000E+00  0.00000000000E+00  0.64904659103E+03  0.64904659103E+03  0.00000000000E+00 0. -1.
          1   -1    0    0  501    0 -0.00000000000E+00 -0.00000000000E+00 -0.97677904719E+03  0.97677904719E+03  0.00000000000E+00 0. -1.
         25    2    1    2    0    0  0.16203949361E+02 -0.14009853306E+02 -0.34570323080E+03  0.36822959049E+03  0.12499385411E+03 0.  0.
          2    1    1    2  501    0  0.22243962232E+02  0.39803511644E+02 -0.61813154714E+03  0.61981103811E+03  0.00000000000E+00 0. -1.
          1    1    1    2  502    0 -0.38447911593E+02 -0.25793658338E+02  0.63610232178E+03  0.63778500961E+03  0.00000000000E+00 0. -1.
         22    1    3    3    0    0 -0.32755533853E+02 -0.54269783545E+02 -0.17750294784E+03  0.18848191132E+03  0.00000000000E+00 0.  1.
         22    1    3    3    0    0  0.48959483214E+02  0.40259930239E+02 -0.16820028295E+03  0.17974767917E+03  0.00000000000E+00 0.  1.
</event>
<event>
 7    1  0.6255318E-006  0.4858132E+02  0.7818608E-02  0.1500518E+00
          2   -1    0    0  502    0  0.00000000000E+00  0.00000000000E+00  0.31141851443E+04  0.31141851443E+04  0.00000000000E+00 0. -1.
          1   -1    0    0  501    0 -0.00000000000E+00 -0.00000000000E+00 -0.66149999100E+02  0.66149999100E+02  0.00000000000E+00 0. -1.
         25    2    1    2    0    0 -0.51184298998E+02 -0.53378785294E+02  0.15102023446E+04  0.15171702327E+04  0.12500106527E+03 0.  0.
          2    1    1    2  501    0  0.91266640097E+01  0.33490021408E+02 -0.57494056174E+02  0.67159839377E+02  0.00000000000E+00 0. -1.
          1    1    1    2  502    0  0.42057634988E+02  0.19888763886E+02  0.15953268568E+04  0.15960050713E+04  0.00000000000E+00 0. -1.
         22    1    3    3    0    0 -0.42827737148E+02 -0.94240406957E+02  0.10661627124E+04  0.10711761754E+04  0.00000000000E+00 0.  1.
         22    1    3    3    0    0 -0.83565618503E+01  0.40861621662E+02  0.44403963217E+03  0.44599405735E+03  0.00000000000E+00 0.  1.
</event>
<event>
 7    1  0.6255318E-006  0.6937451E+02  0.7818608E-02  0.1496327E+00
          2   -1    0    0  502    0  0.00000000000E+00  0.00000000000E+00  0.38422321934E+03  0.38422321934E+03  0.00000000000E+00 0. -1.
          1   -1    0    0  501    0 -0.00000000000E+00 -0.00000000000E+00 -0.10137269649E+04  0.10137269649E+04  0.00000000000E+00 0. -1.
         25    2    1    2    0    0  0.61486838677E+02 -0.33424473034E+02 -0.60409809645E+01  0.14338678547E+03  0.12500180026E+03 0.  0.
          2    1    1    2  501    0  0.74202700825E+01  0.23893609205E+02 -0.93500990913E+03  0.93534458631E+03  0.00000000000E+00 0. -1.
          1    1    1    2  502    0 -0.68907108760E+02  0.95308638289E+01  0.31154714450E+03  0.31921881249E+03  0.00000000000E+00 0. -1.
         22    1    3    3    0    0 -0.15303186536E+02 -0.30082195846E+02  0.41128810027E+02  0.53204370491E+02  0.00000000000E+00 0.  1.
         22    1    3    3    0    0  0.76790025213E+02 -0.33422771882E+01 -0.47169790992E+02  0.90182414978E+02  0.00000000000E+00 0.  1.
</event>
<event>
 7    1  0.6255318E-006  0.7671924E+02  0.7818608E-02  0.1460505E+00
          2   -1    0    0  502    0  0.00000000000E+00  0.00000000000E+00  0.54763910211E+03  0.54763910211E+03  0.00000000000E+00 0. -1.
          1   -1    0    0  501    0 -0.00000000000E+00 -0.00000000000E+00 -0.25908919474E+03  0.25908919474E+03  0.00000000000E+00 0. -1.
         25    2    1    2    0    0  0.38709644407E+02 -0.66327185384E+02  0.20071039176E+03  0.24860990882E+03  0.12499797323E+03 0.  0.
          2    1    1    2  501    0 -0.27228817079E+02 -0.10422653868E+02 -0.22954243187E+03  0.23138662066E+03  0.00000000000E+00 0. -1.
          1    1    1    2  502    0 -0.11480827328E+02  0.76749839253E+02  0.31738194748E+03  0.32673176737E+03  0.00000000000E+00 0. -1.
         22    1    3    3    0    0 -0.15511259091E+02  0.27054926899E+02  0.84030682885E+02  0.89631043139E+02  0.00000000000E+00 0. -1.
         22    1    3    3    0    0  0.54220903498E+02 -0.93382112283E+02  0.11667970887E+03  0.15897886568E+03  0.00000000000E+00 0. -1.
</event>
<event>
 7    1  0.6255318E-006  0.6103458E+02  0.7818608E-02  0.1487528E+00
          2   -1    0    0  502    0  0.00000000000E+00  0.00000000000E+00  0.14514837685E+04  0.14514837685E+04  0.00000000000E+00 0. -1.
          1   -1    0    0  501    0 -0.00000000000E+00 -0.00000000000E+00 -0.19071751881E+04  0.19071751881E+04  0.00000000000E+00 0. -1.
         25    2    1    2    0    0  0.22822603036E+02  0.45821344892E+02  0.89377679511E+02  0.16196111596E+03  0.12499026615E+03 0.  0.
          2    1    1    2  501    0 -0.50692679408E+02 -0.34109695162E+02 -0.18702121725E+04  0.18712099800E+04  0.00000000000E+00 0. -1.
          1    1    1    2  502    0  0.27870076372E+02 -0.11711649730E+02  0.13251430734E+04  0.13254878607E+04  0.00000000000E+00 0. -1.
         22    1    3    3    0    0 -0.20629861072E+02  0.78141779083E+02  0.50559560149E+02  0.95330991438E+02  0.00000000000E+00 0.  1.
         22    1    3    3    0    0  0.43452464108E+02 -0.32320434191E+02  0.38818119363E+02  0.66630124525E+02  0.00000000000E+00 0.  1.
</event>
<event>
 7    1  0.6255318E-006  0.6956025E+02  0.7818608E-02  0.1366443E+00
          2   -1    0    0  502    0  0.00000000000E+00  0.00000000000E+00  0.90988695219E+02  0.90988695219E+02  0.00000000000E+00 0. -1.
          1   -1    0    0  501    0 -0.00000000000E+00 -0.00000000000E+00 -0.24565123403E+04  0.24565123403E+04  0.00000000000E+00 0. -1.
         25    2    1    2    0    0  0.67078112951E+02 -0.87600818823E+02 -0.14603147355E+04  0.14698017420E+04  0.12499862911E+03 0.  0.
          2    1    1    2  501    0 -0.64244161625E+02  0.18300901097E+02 -0.97618134780E+03  0.97846423495E+03  0.00000000000E+00 0. -1.
          1    1    1    2  502    0 -0.28339513263E+01  0.69299917726E+02  0.70972438195E+02  0.99235058625E+02  0.00000000000E+00 0. -1.
         22    1    3    3    0    0  0.40821084346E+02 -0.65617475718E+02 -0.13839999347E+04  0.13861557752E+04  0.00000000000E+00 0. -1.
         22    1    3    3    0    0  0.26257028605E+02 -0.21983343106E+02 -0.76314800828E+02  0.83645966733E+02  0.00000000000E+00 0. -1.
</event>
<event>
 7    1  0.6255318E-006  0.7513836E+02  0.7818608E-02  0.1463282E+00
          2   -1    0    0  502    0  0.00000000000E+00  0.00000000000E+00  0.53765021920E+03  0.53765021920E+03  0.00000000000E+00 0. -1.
          1   -1    0    0  501    0 -0.00000000000E+00 -0.00000000000E+00 -0.36145807905E+03  0.36145807905E+03  0.00000000000E+00 0. -1.
         25    2    1    2    0    0 -0.14629473112E+02  0.50044485560E+02  0.20848122962E+03  0.24860805549E+03  0.12499228029E+03 0.  0.
          2    1    1    2  501    0 -0.99077461389E+01  0.27442060903E+02 -0.33540738921E+03  0.33667394743E+03  0.00000000000E+00 0. -1.
          1    1    1    2  502    0  0.24537219251E+02 -0.77486546462E+02  0.30311829973E+03  0.31382629533E+03  0.00000000000E+00 0. -1.
         22    1    3    3    0    0  0.18842670051E+02  0.28775529376E+02  0.20602245865E+03  0.20887395906E+03  0.00000000000E+00 0. -1.
         22    1    3    3    0    0 -0.33472143163E+02  0.21268956184E+02  0.24587709787E+01  0.39734096438E+02  0.00000000000E+00 0. -1.
</event>
<event>
 7    1  0.6255318E-006  0.9377915E+02  0.7818608E-02  0.1356311E+00
          2   -1    0    0  502    0  0.00000000000E+00  0.00000000000E+00  0.85899341719E+03  0.85899341719E+03  0.00000000000E+00 0. -1.
          1   -1    0    0  501    0 -0.00000000000E+00 -0.00000000000E+00 -0.11516237979E+04  0.11516237979E+04  0.00000000000E+00 0. -1.
         25    2    1    2    0    0 -0.21548245791E+01  0.42585496599E+02 -0.66228201648E+02  0.14774661887E+03  0.12499888361E+03 0.  0.
          2    1    1    2  501    0  0.48606064483E+01 -0.96460065360E+02 -0.10415106046E+04  0.10459792107E+04  0.00000000000E+00 0. -1.
          1    1    1    2  502    0 -0.27057818692E+01  0.53874568761E+02  0.81510842552E+03  0.81689138554E+03  0.00000000000E+00 0. -1.
         22    1    3    3    0    0 -0.38060820977E+02 -0.16794354317E+02 -0.66398681600E+02  0.78354714909E+02  0.00000000000E+00 0. -1.
         22    1    3    3    0    0  0.35905996397E+02  0.59379850915E+02  0.17047995159E+00  0.69391903962E+02  0.00000000000E+00 0. -1.
</event>
<event>
 7    1  0.6255318E-006  0.4617903E+02  0.7818608E-02  0.1486451E+00
          2   -1    0    0  502    0  0.00000000000E+00  0.00000000000E+00  0.11365919011E+04  0.11365919011E+04  0.00000000000E+00 0. -1.
          1   -1    0    0  501    0 -0.00000000000E+00 -0.00000000000E+00 -0.54350512507E+02  0.54350512507E+02  0.00000000000E+00 0. -1.
         25    2    1    2    0    0  0.84543543097E+01  0.48677006656E+00  0.29014265259E+03  0.31603832189E+03  0.12500299596E+03 0.  0.
          2    1    1    2  501    0 -0.45313573888E+02  0.15702672765E+02 -0.26853024347E+02  0.54963431726E+02  0.00000000000E+00 0. -1.
          1    1    1    2  502    0  0.36859219579E+02 -0.16189442832E+02  0.81895176037E+03  0.81994066001E+03  0.00000000000E+00 0. -1.
         22    1    3    3    0    0  0.40387194361E+01 -0.38962586916E+01 -0.12306278735E+02  0.13525405087E+02  0.00000000000E+00 0. -1.
         22    1    3    3    0    0  0.44156348736E+01  0.43830287582E+01  0.30244893132E+03  0.30251291680E+03  0.00000000000E+00 0. -1.
</event>
<event>
 7    1  0.6255318E-006  0.8857293E+02  0.7818608E-02  0.1479409E+00
          2   -1    0    0  502    0  0.00000000000E+00  0.00000000000E+00  0.16307743011E+04  0.16307743011E+04  0.00000000000E+00 0. -1.
          1   -1    0    0  501    0 -0.00000000000E+00 -0.00000000000E+00 -0.66600534826E+03  0.66600534826E+03  0.00000000000E+00 0. -1.
         25    2    1    2    0    0 -0.30666797367E+02  0.10286952959E+03  0.37273531442E+03  0.40752816529E+03  0.12499999325E+03 0.  0.
          2    1    1    2  501    0  0.34949810802E+02 -0.81234154873E+02 -0.64549587997E+03  0.65152544712E+03  0.00000000000E+00 0. -1.
          1    1    1    2  502    0 -0.42830134344E+01 -0.21635374714E+02  0.12375295183E+04  0.12377260369E+04  0.00000000000E+00 0. -1.
         22    1    3    3    0    0 -0.37047987570E+02  0.82234136211E+01  0.24765141473E+03  0.25054221427E+03  0.00000000000E+00 0.  1.
         22    1    3    3    0    0  0.63811902031E+01  0.94646115966E+02  0.12508389969E+03  0.15698595102E+03  0.00000000000E+00 0.  1.
</event>
<event>
 7    1  0.6255318E-006  0.7849523E+02  0.7818608E-02  0.1420122E+00
          2   -1    0    0  502    0  0.00000000000E+00  0.00000000000E+00  0.39167267075E+03  0.39167267075E+03  0.00000000000E+00 0. -1.
          1   -1    0    0  501    0 -0.00000000000E+00 -0.00000000000E+00 -0.19445838420E+03  0.19445838420E+03  0.00000000000E+00 0. -1.
         25    2    1    2    0    0  0.39264401201E+02  0.10379580031E+03 -0.70767539990E+01  0.16730101409E+03  0.12499714999E+03 0.  0.
          2    1    1    2  501    0 -0.26400383222E+02 -0.28064514522E+02 -0.98857300497E+02  0.10610072135E+03  0.00000000000E+00 0. -1.
          1    1    1    2  502    0 -0.12864017979E+02 -0.75731285786E+02  0.30314834105E+03  0.31272931952E+03  0.00000000000E+00 0. -1.
         22    1    3    3    0    0  0.17669671970E+02 -0.28247587101E+02 -0.45929431673E-01  0.33318847430E+02  0.00000000000E+00 0. -1.
         22    1    3    3    0    0  0.21594729231E+02  0.13204338741E+03 -0.70308245673E+01  0.13398216666E+03  0.00000000000E+00 0. -1.
</event>
<event>
 7    1  0.6255318E-006  0.7950531E+02  0.7818608E-02  0.1508364E+00
          2   -1    0    0  502    0  0.00000000000E+00  0.00000000000E+00  0.71818720510E+03  0.71818720510E+03  0.00000000000E+00 0. -1.
          1   -1    0    0  501    0 -0.00000000000E+00 -0.00000000000E+00 -0.11627408078E+04  0.11627408078E+04  0.00000000000E+00 0. -1.
         25    2    1    2    0    0  0.69757876178E+02  0.43791032091E+02  0.41878902547E+03  0.44473971049E+03  0.12500138578E+03 0.  0.
          2    1    1    2  501    0 -0.15089376574E+02  0.13284056993E+02 -0.11442235736E+04  0.11444001668E+04  0.00000000000E+00 0. -1.
          1    1    1    2  502    0 -0.54668499604E+02 -0.57075089084E+02  0.28088094535E+03  0.29178813565E+03  0.00000000000E+00 0. -1.
         22    1    3    3    0    0  0.45501247882E+02  0.55753477569E+02  0.41004994055E+03  0.41631690761E+03  0.00000000000E+00 0. -1.
         22    1    3    3    0    0  0.24256628296E+02 -0.11962445478E+02  0.87390849287E+01  0.28422802879E+02  0.00000000000E+00 0. -1.
</event>
<event>
 7    1  0.6255318E-006  0.6741889E+02  0.7818608E-02  0.1434848E+00
          2   -1    0    0  502    0  0.00000000000E+00  0.00000000000E+00  0.18681217613E+03  0.18681217613E+03  0.00000000000E+00 0. -1.
          1   -1    0    0  501    0 -0.00000000000E+00 -0.00000000000E+00 -0.23955795908E+04  0.23955795908E+04  0.00000000000E+00 0. -1.
         25    2    1    2    0    0  0.62743875862E+02 -0.27655198523E+02 -0.66041288680E+03  0.67562666448E+03  0.12499841895E+03 0.  0.
          2    1    1    2  501    0  0.36496225100E+01  0.39939701086E+02 -0.17209578487E+04  0.17214251121E+04  0.00000000000E+00 0. -1.
          1    1    1    2  502    0 -0.66393498372E+02 -0.12284502563E+02  0.17260332089E+03  0.18533999032E+03  0.00000000000E+00 0. -1.
         22    1    3    3    0    0 -0.21157379030E+02  0.12309034164E+02 -0.36773291994E+03  0.36854666925E+03  0.00000000000E+00 0.  1.
         22    1    3    3    0    0  0.83901254893E+02 -0.39964232686E+02 -0.29267996686E+03  0.30707999523E+03  0.00000000000E+00 0.  1.
</event>
<event>
 7    1  0.6255318E-006  0.9029478E+02  0.7818608E-02  0.1377944E+00
          2   -1    0    0  502    0  0.00000000000E+00  0.00000000000E+00  0.44076645826E+03  0.44076645826E+03  0.00000000000E+00 0. -1.
          1   -1    0    0  501    0 -0.00000000000E+00 -0.00000000000E+00 -0.24265357602E+04  0.24265357602E+04  0.00000000000E+00 0. -1.
         25    2    1    2    0    0  0.50322231639E+02 -0.45196013178E+02 -0.27259410580E+03  0.30742134134E+03  0.12500131194E+03 0.  0.
          2    1    1    2  501    0 -0.29614335165E+02  0.87167209785E+02 -0.21342392185E+04  0.21362238115E+04  0.00000000000E+00 0. -1.
          1    1    1    2  502    0 -0.20707896474E+02 -0.41971196607E+02  0.42106402233E+03  0.42365706559E+03  0.00000000000E+00 0. -1.
         22    1    3    3    0    0  0.67071837283E+01 -0.80781364777E+02 -0.19816836087E+03  0.21410584873E+03  0.00000000000E+00 0.  1.
         22    1    3    3    0    0  0.43615047911E+02  0.35585351599E+02 -0.74425744930E+02  0.93315492610E+02  0.00000000000E+00 0.  1.
</event>
<event>
 7    1  0.6255318E-006  0.1029413E+03  0.7818608E-02  0.1274672E+00
          2   -1    0    0  502    0  0.00000000000E+00  0.00000000000E+00  0.33595402993E+04  0.33595402993E+04  0.00000000000E+00 0. -1.
          1   -1    0    0  501    0 -0.00000000000E+00 -0.00000000000E+00 -0.29255315372E+03  0.29255315372E+03  0.00000000000E+00 0. -1.
         25    2    1    2    0    0 -0.11543562897E+03 -0.80914492011E+02  0.27932156011E+03  0.33692825842E+03  0.12501031127E+03 0.  0.
          2    1    1    2  501    0  0.14431791188E+02  0.10148372101E+03 -0.25288390994E+03  0.27286900545E+03  0.00000000000E+00 0. -1.
          1    1    1    2  502    0  0.10100383778E+03 -0.20569229001E+02  0.30405494954E+04  0.30422961892E+04  0.00000000000E+00 0. -1.
         22    1    3    3    0    0 -0.44192518457E+02 -0.96755112536E+02  0.11241810220E+03  0.15476550065E+03  0.00000000000E+00 0.  1.
         22    1    3    3    0    0 -0.71243110510E+02  0.15840620525E+02  0.16690345791E+03  0.18216275777E+03  0.00000000000E+00 0.  1.
</event>
<event>
 7    1  0.6255318E-006  0.1385125E+03  0.7818608E-02  0.1388739E+00
          2   -1    0    0  502    0  0.00000000000E+00  0.00000000000E+00  0.10142041374E+03  0.10142041374E+03  0.00000000000E+00 0. -1.
          1   -1    0    0  501    0 -0.00000000000E+00 -0.00000000000E+00 -0.16775623291E+04  0.16775623291E+04  0.00000000000E+00 0. -1.
         25    2    1    2    0    0 -0.28135945956E+02 -0.11146550824E+03 -0.22913039802E+03  0.28520566687E+03  0.12500136853E+03 0.  0.
          2    1    1    2  501    0  0.25152842981E+02  0.13925636923E+03 -0.14140667444E+04  0.14211297476E+04  0.00000000000E+00 0. -1.
          1    1    1    2  502    0  0.29831029748E+01 -0.27790860987E+02  0.67055227014E+02  0.72647328427E+02  0.00000000000E+00 0. -1.
         22    1    3    3    0    0 -0.27300404798E+02  0.27783691834E+01  0.18620660072E+01  0.27504521943E+02  0.00000000000E+00 0.  1.
         22    1    3    3    0    0 -0.83554115720E+00 -0.11424387742E+03 -0.23099246403E+03  0.25770114493E+03  0.00000000000E+00 0.  1.
</event>
<event>
 7    1  0.6255318E-006  0.1294549E+03  0.7818608E-02  0.1244938E+00
          2   -1    0    0  502    0  0.00000000000E+00  0.00000000000E+00  0.77661737116E+03  0.77661737116E+03  0.00000000000E+00 0. -1.
          1   -1    0    0  501    0 -0.00000000000E+00 -0.00000000000E+00 -0.65574550973E+03  0.65574550973E+03  0.00000000000E+00 0. -1.
         25    2    1    2    0    0 -0.13463783229E+02  0.27582840629E+02  0.43639637231E+02  0.13591592821E+03  0.12500654002E+03 0.  0.
          2    1    1    2  501    0  0.93606028167E+02 -0.10174041932E+03 -0.59732223514E+03  0.61311259490E+03  0.00000000000E+00 0. -1.
          1    1    1    2  502    0 -0.80142244938E+02  0.74157578687E+02  0.67455445934E+03  0.68333435778E+03  0.00000000000E+00 0. -1.
         22    1    3    3    0    0  0.64536582205E+01  0.15808097041E+02 -0.42986256167E+02  0.46253257785E+02  0.00000000000E+00 0.  1.
         22    1    3    3    0    0 -0.19917441449E+02  0.11774743588E+02  0.86625893398E+02  0.89662670423E+02  0.00000000000E+00 0.  1.
</event>
<event>
 7    1  0.6255318E-006  0.4877404E+02  0.7818608E-02  0.1474631E+00
          2   -1    0    0  502    0  0.00000000000E+00  0.00000000000E+00  0.10972294063E+03  0.10972294063E+03  0.00000000000E+00 0. -1.
          1   -1    0    0  501    0 -0.00000000000E+00 -0.00000000000E+00 -0.91362727028E+03  0.91362727028E+03  0.00000000000E+00 0. -1.
         25    2    1    2    0    0 -0.79453692108E+02 -0.30348603880E+01 -0.20604893167E+03  0.25378202486E+03  0.12500821706E+03 0.  0.
          2    1    1    2  501    0  0.36769124736E+02 -0.19096779844E+02 -0.67629619293E+03  0.67756416383E+03  0.00000000000E+00 0. -1.
          1    1    1    2  502    0  0.42684567372E+02  0.22131640232E+02  0.78440794957E+02  0.92004022219E+02  0.00000000000E+00 0. -1.
         22    1    3    3    0    0 -0.10438211540E+03 -0.15062702799E+02 -0.19900205327E+03  0.22522062125E+03  0.00000000000E+00 0.  1.
         22    1    3    3    0    0  0.24928423294E+02  0.12027842411E+02 -0.70468784022E+01  0.28561403611E+02  0.00000000000E+00 0.  1.
</event>
<event>
 7    1  0.6255318E-006  0.1405047E+03  0.7818608E-02  0.1246874E+00
          2   -1    0    0  502    0  0.00000000000E+00  0.00000000000E+00  0.32919327292E+03  0.32919327292E+03  0.00000000000E+00 0. -1.
          1   -1    0    0  501    0 -0.00000000000E+00 -0.00000000000E+00 -0.32512281264E+03  0.32512281264E+03  0.00000000000E+00 0. -1.
         25    2    1    2    0    0 -0.23122007127E+02 -0.77002759595E+02  0.30712068750E+02  0.15176399527E+03  0.12500010757E+03 0.  0.
          2    1    1    2  501    0  0.13918762978E+02 -0.97675918789E+02 -0.22042461098E+03  0.24149808736E+03  0.00000000000E+00 0. -1.
          1    1    1    2  502    0  0.92032441487E+01  0.17467867838E+03  0.19378300251E+03  0.26105400293E+03  0.00000000000E+00 0. -1.
         22    1    3    3    0    0  0.35784503329E+02  0.56625252570E+01  0.34717547178E+02  0.50178710155E+02  0.00000000000E+00 0.  1.
         22    1    3    3    0    0 -0.58906510456E+02 -0.82665284852E+02 -0.40054784276E+01  0.10158528511E+03  0.00000000000E+00 0.  1.
</event>
<event>
 7    1  0.6255318E-006  0.8207573E+02  0.7818608E-02  0.1354085E+00
          2   -1    0    0  502    0  0.00000000000E+00  0.00000000000E+00  0.95854827556E+03  0.95854827556E+03  0.00000000000E+00 0. -1.
          1   -1    0    0  501    0 -0.00000000000E+00 -0.00000000000E+00 -0.11692726626E+04  0.11692726626E+04  0.00000000000E+00 0. -1.
         25    2    1    2    0    0 -0.29548375472E+02  0.13166992204E+03 -0.10343594838E+03  0.21102940779E+03  0.12499736266E+03 0.  0.
          2    1    1    2  501    0 -0.67161060866E+01 -0.80390693232E+02 -0.10093387312E+04  0.10125573780E+04  0.00000000000E+00 0. -1.
          1    1    1    2  502    0  0.36264481558E+02 -0.51279228806E+02  0.90205029252E+03  0.90423415229E+03  0.00000000000E+00 0. -1.
         22    1    3    3    0    0 -0.39500814575E+02 -0.10936659679E+02 -0.22758644577E+02  0.46881561194E+02  0.00000000000E+00 0. -1.
         22    1    3    3    0    0  0.99524391031E+01  0.14260658172E+03 -0.80677303807E+02  0.16414784660E+03  0.00000000000E+00 0. -1.
</event>
<event>
 7    1  0.6255318E-006  0.4854351E+02  0.7818608E-02  0.1492502E+00
          2   -1    0    0  502    0  0.00000000000E+00  0.00000000000E+00  0.15358826872E+04  0.15358826872E+04  0.00000000000E+00 0. -1.
          1   -1    0    0  501    0 -0.00000000000E+00 -0.00000000000E+00 -0.43277970489E+02  0.43277970489E+02  0.00000000000E+00 0. -1.
         25    2    1    2    0    0  0.65365969432E+02 -0.19562784796E+01  0.50498602129E+03  0.52432094534E+03  0.12500014017E+03 0.  0.
          2    1    1    2  501    0 -0.24472761885E+02  0.27369371708E+02 -0.22836732522E+02  0.43237887717E+02  0.00000000000E+00 0. -1.
          1    1    1    2  502    0 -0.40893207547E+02 -0.25413093229E+02  0.10104554279E+04  0.10116018246E+04  0.00000000000E+00 0. -1.
         22    1    3    3    0    0 -0.23125237291E+02 -0.10043440278E+02  0.29803157019E+03  0.29909607842E+03  0.00000000000E+00 0.  1.
         22    1    3    3    0    0  0.88491206723E+02  0.80871617986E+01  0.20695445110E+03  0.22522486693E+03  0.00000000000E+00 0.  1.
</event>
<event>
 7    1  0.6255318E-006  0.2772989E+02  0.7818608E-02  0.1673271E+00
          2   -1    0    0  502    0  0.00000000000E+00  0.00000000000E+00  0.35959564597E+03  0.35959564597E+03  0.00000000000E+00 0. -1.
          1   -1    0    0  501    0 -0.00000000000E+00 -0.00000000000E+00 -0.55943105467E+02  0.55943105467E+02  0.00000000000E+00 0. -1.
         25    2    1    2    0    0  0.39086756985E+02  0.27750352767E+02  0.14680784189E+03  0.19868273543E+03  0.12499772105E+03 0.  0.
          2    1    1    2  501    0 -0.22999787357E+02 -0.14157114595E+02 -0.23187565369E+02  0.35596029271E+02  0.00000000000E+00 0. -1.
          1    1    1    2  502    0 -0.16086969628E+02 -0.13593238172E+02  0.18003226398E+03  0.18125998673E+03  0.00000000000E+00 0. -1.
         22    1    3    3    0    0 -0.69289049838E+01 -0.11266586646E+02  0.13690800158E+03  0.13754543466E+03  0.00000000000E+00 0. -1.
         22    1    3    3    0    0  0.46015661968E+02  0.39016939413E+02  0.98998403085E+01  0.61137300772E+02  0.00000000000E+00 0. -1.
</event>
<event>
 7    1  0.6255318E-006  0.1327730E+03  0.7818608E-02  0.1264534E+00
          2   -1    0    0  502    0  0.00000000000E+00  0.00000000000E+00  0.78652197605E+03  0.78652197605E+03  0.00000000000E+00 0. -1.
          1   -1    0    0  501    0 -0.00000000000E+00 -0.00000000000E+00 -0.75667202870E+03  0.75667202870E+03  0.00000000000E+00 0. -1.
         25    2    1    2    0    0 -0.47890981350E+02 -0.20560712121E+03  0.17702379934E+03  0.30253822738E+03  0.12499647638E+03 0.  0.
          2    1    1    2  501    0  0.27084871452E+02  0.83375967679E+02 -0.68405188003E+03  0.68964637084E+03  0.00000000000E+00 0. -1.
          1    1    1    2  502    0  0.20806109899E+02  0.12223115353E+03  0.53687802803E+03  0.55100940653E+03  0.00000000000E+00 0. -1.
         22    1    3    3    0    0  0.61865249647E+01 -0.15731213140E+03  0.67735941557E+02  0.17138709857E+03  0.00000000000E+00 0. -1.
         22    1    3    3    0    0 -0.54077506315E+02 -0.48294989810E+02  0.10928785779E+03  0.13115112881E+03  0.00000000000E+00 0. -1.
</event>
<event>
 7    1  0.6255318E-006  0.2075517E+03  0.7818608E-02  0.1193133E+00
          2   -1    0    0  502    0  0.00000000000E+00  0.00000000000E+00  0.11358454817E+04  0.11358454817E+04  0.00000000000E+00 0. -1.
          1   -1    0    0  501    0 -0.00000000000E+00 -0.00000000000E+00 -0.19720734263E+04  0.19720734263E+04  0.00000000000E+00 0. -1.
         25    2    1    2    0    0  0.14971424455E+03 -0.14502474593E+03 -0.23788163582E+03  0.34007506643E+03  0.12496738054E+03 0.  0.
          2    1    1    2  501    0 -0.20691754562E+03  0.42442626011E+02 -0.16732563825E+04  0.16865358486E+04  0.00000000000E+00 0. -1.
          1    1    1    2  502    0  0.57203301078E+02  0.10258211992E+03  0.10749100737E+04  0.10813079929E+04  0.00000000000E+00 0. -1.
         22    1    3    3    0    0  0.20253627972E+01  0.18437324610E+02 -0.43898603913E+01  0.19060637646E+02  0.00000000000E+00 0.  1.
         22    1    3    3    0    0  0.14768888175E+03 -0.16346207054E+03 -0.23349177543E+03  0.32101442879E+03  0.00000000000E+00 0.  1.
</event>
<event>
 7    1  0.6255318E-006  0.6089184E+02  0.7818608E-02  0.1468426E+00
          2   -1    0    0  502    0  0.00000000000E+00  0.00000000000E+00  0.16917963481E+03  0.16917963481E+03  0.00000000000E+00 0. -1.
          1   -1    0    0  501    0 -0.00000000000E+00 -0.00000000000E+00 -0.45203906393E+03  0.45203906393E+03  0.00000000000E+00 0. -1.
         25    2    1    2    0    0 -0.64130512652E+02  0.59370597704E+02 -0.23668403926E+03  0.28156802783E+03  0.12499451722E+03 0.  0.
          2    1    1    2  501    0  0.97082707443E+01 -0.33306121057E+02 -0.18502851738E+03  0.18825275685E+03  0.00000000000E+00 0. -1.
          1    1    1    2  502    0  0.54422241908E+02 -0.26064476646E+02  0.13885312751E+03  0.15139791405E+03  0.00000000000E+00 0. -1.
         22    1    3    3    0    0 -0.60810042306E+01  0.24625254700E+02 -0.20552448157E+03  0.20708378572E+03  0.00000000000E+00 0. -1.
         22    1    3    3    0    0 -0.58049508422E+02  0.34745343004E+02 -0.31159557685E+02  0.74484242116E+02  0.00000000000E+00 0. -1.
</event>
<event>
 7    1  0.6255318E-006  0.1487542E+03  0.7818608E-02  0.1398843E+00
          2   -1    0    0  502    0  0.00000000000E+00  0.00000000000E+00  0.39965914380E+03  0.39965914380E+03  0.00000000000E+00 0. -1.
          1   -1    0    0  501    0 -0.00000000000E+00 -0.00000000000E+00 -0.33073291888E+03  0.33073291888E+03  0.00000000000E+00 0. -1.
         25    2    1    2    0    0 -0.13905891823E+03 -0.66923100508E+02  0.43031727937E+02  0.20320642292E+03  0.12500014635E+03 0.  0.
          2    1    1    2  501    0 -0.22707774041E+01  0.23899884775E+02 -0.23024633797E+03  0.23149457244E+03  0.00000000000E+00 0. -1.
          1    1    1    2  502    0  0.14132969563E+03  0.43023215733E+02  0.25614083496E+03  0.29569106732E+03  0.00000000000E+00 0. -1.
         22    1    3    3    0    0 -0.13953650006E+03 -0.40907336137E+02  0.73672901951E+02  0.16300779576E+03  0.00000000000E+00 0.  1.
         22    1    3    3    0    0  0.47758183122E+00 -0.26015764372E+02 -0.30641174013E+02  0.40198627155E+02  0.00000000000E+00 0.  1.
</event>
<event>
 7    1  0.8290917E-006  0.1095660E+03  0.7818608E-02  0.1292694E+00
          2   -1    0    0  502    0  0.00000000000E+00  0.00000000000E+00  0.11623360732E+04  0.11623360732E+04  0.00000000000E+00 0. -1.
          1   -1    0    0  501    0 -0.00000000000E+00 -0.00000000000E+00 -0.16962189995E+04  0.16962189995E+04  0.00000000000E+00 0. -1.
         25    2    1    2    0    0  0.14051866164E+03  0.11029857362E+02 -0.13620980819E+03  0.23247226310E+03  0.12499235674E+03 0.  0.
          2    1    1    2  501    0 -0.46276530284E+02 -0.66736640929E+02 -0.15080937010E+04  0.15102787516E+04  0.00000000000E+00 0. -1.
          1    1    1    2  502    0 -0.94242131360E+02  0.55706783567E+02  0.11104205829E+04  0.11158040580E+04  0.00000000000E+00 0. -1.
         22    1    3    3    0    0  0.69425077615E+02 -0.52661532496E+02 -0.93782936988E+02  0.12801686481E+03  0.00000000000E+00 0. -1.
         22    1    3    3    0    0  0.71093584029E+02  0.63691389857E+02 -0.42426871199E+02  0.10445539829E+03  0.00000000000E+00 0. -1.
</event>
<event>
 7    1  0.6255318E-006  0.5667513E+02  0.7818608E-02  0.1457504E+00
          2   -1    0    0  502    0  0.00000000000E+00  0.00000000000E+00  0.32484155575E+03  0.32484155575E+03  0.00000000000E+00 0. -1.
          1   -1    0    0  501    0 -0.00000000000E+00 -0.00000000000E+00 -0.94744965732E+03  0.94744965732E+03  0.00000000000E+00 0. -1.
         25    2    1    2    0    0  0.62291612907E+01  0.86367479293E+02  0.78687643967E+02  0.17122296199E+03  0.12500965350E+03 0.  0.
          2    1    1    2  501    0  0.16658837140E+02 -0.36737186261E+02 -0.89698432627E+03  0.89789087270E+03  0.00000000000E+00 0. -1.
          1    1    1    2  502    0 -0.22887998431E+02 -0.49630293032E+02  0.19568858073E+03  0.20317737838E+03  0.00000000000E+00 0. -1.
         22    1    3    3    0    0 -0.73693346637E+01  0.96638881022E+01  0.91476687201E+02  0.92280453662E+02  0.00000000000E+00 0.  1.
         22    1    3    3    0    0  0.13598495954E+02  0.76703591191E+02 -0.12789043234E+02  0.78942508325E+02  0.00000000000E+00 0.  1.
</event>
<event>
 7    1  0.6255318E-006  0.1078341E+03  0.7818608E-02  0.1399058E+00
          2   -1    0    0  502    0  0.00000000000E+00  0.00000000000E+00  0.29307399169E+04  0.29307399169E+04  0.00000000000E+00 0. -1.
          1   -1    0    0  501    0 -0.00000000000E+00 -0.00000000000E+00 -0.87783861352E+03  0.87783861352E+03  0.00000000000E+00 0. -1.
         25    2    1    2    0    0 -0.21519246918E+02  0.98705385765E+02  0.72687807048E+03  0.74443487964E+03  0.12500291802E+03 0.  0.
          2    1    1    2  501    0  0.54139025078E+02 -0.93319800453E+02 -0.86558671426E+03  0.87228434532E+03  0.00000000000E+00 0. -1.
          1    1    1    2  502    0 -0.32619778160E+02 -0.53855853122E+01  0.21916099471E+04  0.21918593054E+04  0.00000000000E+00 0. -1.
         22    1    3    3    0    0 -0.68824670685E+02  0.69771294138E+02  0.34861583245E+03  0.36212962792E+03  0.00000000000E+00 0. -1.
         22    1    3    3    0    0  0.47305423768E+02  0.28934091628E+02  0.37826223803E+03  0.38230525172E+03  0.00000000000E+00 0. -1.
</event>
<event>
 7    1  0.6255318E-006  0.1016884E+03  0.7818608E-02  0.1356004E+00
          2   -1    0    0  502    0  0.00000000000E+00  0.00000000000E+00  0.24694275083E+03  0.24694275083E+03  0.00000000000E+00 0. -1.
          1   -1    0    0  501    0 -0.00000000000E+00 -0.00000000000E+00 -0.24611411299E+03  0.24611411299E+03  0.00000000000E+00 0. -1.
         25    2    1    2    0    0 -0.58063483491E+01  0.11448105333E+03 -0.10803139762E+03  0.20108248511E+03  0.12499503067E+03 0.  0.
          2    1    1    2  501    0 -0.37896923475E+02 -0.90446696287E+02 -0.60632567152E+02  0.11529566287E+03  0.00000000000E+00 0. -1.
          1    1    1    2  502    0  0.43703271824E+02 -0.24034357046E+02  0.16949260261E+03  0.17667871583E+03  0.00000000000E+00 0. -1.
         22    1    3    3    0    0  0.26506450345E+02 -0.64690202677E+00  0.14209013354E+02  0.30081663062E+02  0.00000000000E+00 0. -1.
         22    1    3    3    0    0 -0.32312798694E+02  0.11512795536E+03 -0.12224041098E+03  0.17100082204E+03  0.00000000000E+00 0. -1.
</event>
<event>
 7    1  0.6255318E-006  0.8495991E+02  0.7818608E-02  0.1446745E+00
          2   -1    0    0  502    0  0.00000000000E+00  0.00000000000E+00  0.17117842408E+04  0.17117842408E+04  0.00000000000E+00 0. -1.
          1   -1    0    0  501    0 -0.00000000000E+00 -0.00000000000E+00 -0.22810860341E+03  0.22810860341E+03  0.00000000000E+00 0. -1.
         25    2    1    2    0    0  0.63674207321E+02  0.14021459987E+02  0.16061949627E+02  0.14189329093E+03  0.12499885506E+03 0.  0.
          2    1    1    2  501    0 -0.88131309151E+02  0.17865527588E+01 -0.15329336705E+03  0.17683092435E+03  0.00000000000E+00 0. -1.
          1    1    1    2  502    0  0.24457101830E+02 -0.15808012746E+02  0.16209070548E+04  0.16211686289E+04  0.00000000000E+00 0. -1.
         22    1    3    3    0    0  0.45079779623E+02 -0.53254575544E+02 -0.19798100898E+01  0.69800830906E+02  0.00000000000E+00 0. -1.
         22    1    3    3    0    0  0.18594427698E+02  0.67276035531E+02  0.18041759717E+02  0.72092460021E+02  0.00000000000E+00 0. -1.
</event>
<event>
 7    1  0.6255318E-006  0.9065866E+02  0.7818608E-02  0.1409523E+00
          2   -1    0    0  502    0  0.00000000000E+00  0.00000000000E+00  0.23540879172E+04  0.23540879172E+04  0.00000000000E+00 0. -1.
          1   -1    0    0  501    0 -0.00000000000E+00 -0.00000000000E+00 -0.37349202454E+02  0.37349202454E+02  0.00000000000E+00 0. -1.
         25    2    1    2    0    0  0.63962903198E+02  0.29280517644E+01  0.68511655123E+03  0.69936375856E+03  0.12500060616E+03 0.  0.
          2    1    1    2  501    0  0.30829963322E+02 -0.19004099457E+02 -0.17449611581E+02  0.40201136538E+02  0.00000000000E+00 0. -1.
          1    1    1    2  502    0 -0.94792866520E+02  0.16076047693E+02  0.16490717751E+04  0.16518722246E+04  0.00000000000E+00 0. -1.
         22    1    3    3    0    0  0.83715175439E+02 -0.36062660157E+02  0.36178608357E+03  0.37309236969E+03  0.00000000000E+00 0.  1.
         22    1    3    3    0    0 -0.19752272241E+02  0.38990711922E+02  0.32333046766E+03  0.32627138887E+03  0.00000000000E+00 0.  1.
</event>
<event>
 7    1  0.6255318E-006  0.1219860E+03  0.7818608E-02  0.1303778E+00
          2   -1    0    0  502    0  0.00000000000E+00  0.00000000000E+00  0.31209859005E+04  0.31209859005E+04  0.00000000000E+00 0. -1.
          1   -1    0    0  501    0 -0.00000000000E+00 -0.00000000000E+00 -0.15871332336E+04  0.15871332336E+04  0.00000000000E+00 0. -1.
         25    2    1    2    0    0 -0.57902943127E+02 -0.53662484234E+02  0.65263487741E+03  0.66917058495E+03  0.12499830208E+03 0.  0.
          2    1    1    2  501    0  0.37527705968E+02  0.11626973177E+03 -0.15760602194E+04  0.15807886621E+04  0.00000000000E+00 0. -1.
          1    1    1    2  502    0  0.20375237159E+02 -0.62607247533E+02  0.24572780088E+04  0.24581598870E+04  0.00000000000E+00 0. -1.
         22    1    3    3    0    0 -0.88054473493E+02 -0.19089607994E+02  0.29077007590E+03  0.30440965897E+03  0.00000000000E+00 0. -1.
         22    1    3    3    0    0  0.30151530366E+02 -0.34572876240E+02  0.36186480151E+03  0.36476092598E+03  0.00000000000E+00 0. -1.
</event>
<event>
 7    1  0.6255318E-006  0.5674134E+02  0.7818608E-02  0.1509034E+00
          2   -1    0    0  502    0  0.00000000000E+00  0.00000000000E+00  0.55605990928E+03  0.55605990928E+03  0.00000000000E+00 0. -1.
          1   -1    0    0  501    0 -0.00000000000E+00 -0.00000000000E+00 -0.25197049189E+03  0.25197049189E+03  0.00000000000E+00 0. -1.
         25    2    1    2    0    0 -0.15312708235E+02 -0.30071282410E+02  0.94990717966E+02  0.16058266952E+03  0.12499918476E+03 0.  0.
          2    1    1    2  501    0  0.41701174194E+02  0.39555678988E+02 -0.21493518177E+03  0.22248768962E+03  0.00000000000E+00 0. -1.
          1    1    1    2  502    0 -0.26388465959E+02 -0.94843965778E+01  0.42403388120E+03  0.42496004203E+03  0.00000000000E+00 0. -1.
         22    1    3    3    0    0  0.46407950518E+02 -0.77465043446E+00  0.37056943340E+01  0.46562110402E+02  0.00000000000E+00 0. -1.
         22    1    3    3    0    0 -0.61720658753E+02 -0.29296631975E+02  0.91285023632E+02  0.11402055912E+03  0.00000000000E+00 0. -1.
</event>
<event>
 7    1  0.6255318E-006  0.1604820E+03  0.7818608E-02  0.1232873E+00
          2   -1    0    0  502    0  0.00000000000E+00  0.00000000000E+00  0.43607303316E+04  0.43607303316E+04  0.00000000000E+00 0. -1.
          1   -1    0    0  501    0 -0.00000000000E+00 -0.00000000000E+00 -0.27914716241E+04  0.27914716241E+04  0.00000000000E+00 0. -1.
         25    2    1    2    0    0 -0.21739658076E+02  0.14435282078E+03  0.68925362753E+03  0.71554779125E+03  0.12501091515E+03 0.  0.
          2    1    1    2  501    0 -0.77768915982E+02 -0.14054836167E+03 -0.27753241748E+04  0.27799687267E+04  0.00000000000E+00 0. -1.
          1    1    1    2  502    0  0.99508574059E+02 -0.38044591172E+01  0.36553292547E+04  0.36566854378E+04  0.00000000000E+00 0. -1.
         22    1    3    3    0    0 -0.31897430811E+02  0.94359036014E+02  0.62791955057E+03  0.63577042693E+03  0.00000000000E+00 0. -1.
         22    1    3    3    0    0  0.10157772735E+02  0.49993784769E+02  0.61334076962E+02  0.79777364329E+02  0.00000000000E+00 0. -1.
</event>
<event>
 7    1  0.6255318E-006  0.1223829E+03  0.7818608E-02  0.1315672E+00
          2   -1    0    0  502    0  0.00000000000E+00  0.00000000000E+00  0.60255133540E+03  0.60255133540E+03  0.00000000000E+00 0. -1.
          1   -1    0    0  501    0 -0.00000000000E+00 -0.00000000000E+00 -0.14711449090E+04  0.14711449090E+04  0.00000000000E+00 0. -1.
         25    2    1    2    0    0 -0.17412010447E+03  0.31364108231E+02 -0.38714636530E+02  0.22005801577E+03  0.12500075662E+03 0.  0.
          2    1    1    2  501    0  0.55111188013E+02 -0.20809307293E+02 -0.13341281256E+04  0.13354280684E+04  0.00000000000E+00 0. -1.
          1    1    1    2  502    0  0.11900891646E+03 -0.10554800938E+02  0.50424918854E+03  0.51821016023E+03  0.00000000000E+00 0. -1.
         22    1    3    3    0    0 -0.18459832286E+03  0.32093451681E+02 -0.59651837718E+02  0.19663385311E+03  0.00000000000E+00 0. -1.
         22    1    3    3    0    0  0.10478218394E+02 -0.72934344967E+00  0.20937201189E+02  0.23424162657E+02  0.00000000000E+00 0. -1.
</event>
<event>
 7    1  0.6255318E-006  0.4849735E+02  0.7818608E-02  0.1500425E+00
          2   -1    0    0  502    0  0.00000000000E+00  0.00000000000E+00  0.17941315285E+04  0.17941315285E+04  0.00000000000E+00 0. -1.
          1   -1    0    0  501    0 -0.00000000000E+00 -0.00000000000E+00 -0.12400619060E+03  0.12400619060E+03  0.00000000000E+00 0. -1.
         25    2    1    2    0    0  0.81493795802E+00  0.14907042933E+02  0.30156213499E+03  0.32678441168E+03  0.12500178560E+03 0.  0.
          2    1    1    2  501    0  0.70046630509E+01  0.34081373457E+02 -0.10825144646E+03  0.11370567700E+03  0.00000000000E+00 0. -1.
          1    1    1    2  502    0 -0.78196010089E+01 -0.48988416389E+02  0.14768146493E+04  0.14776476304E+04  0.00000000000E+00 0. -1.
         22    1    3    3    0    0 -0.50422941089E+02  0.44010053527E+02  0.15646953052E+03  0.17018246614E+03  0.00000000000E+00 0. -1.
         22    1    3    3    0    0  0.51237879047E+02 -0.29103010595E+02  0.14509260447E+03  0.15660194554E+03  0.00000000000E+00 0. -1.
</event>
<event>
 7    1  0.6255318E-006  0.4323447E+02  0.7818608E-02  0.1576627E+00
          2   -1    0    0  502    0  0.00000000000E+00  0.00000000000E+00  0.95718791752E+03  0.95718791752E+03  0.00000000000E+00 0. -1.
          1   -1    0    0  501    0 -0.00000000000E+00 -0.00000000000E+00 -0.38973587006E+02  0.38973587006E+02  0.00000000000E+00 0. -1.
         25    2    1    2    0    0  0.25822706611E+02  0.45058106818E+02  0.15925791031E+03  0.20900561262E+03  0.12499287557E+03 0.  0.
          2    1    1    2  501    0 -0.23655571170E+02 -0.19570427241E+01 -0.30472243126E+01  0.23931185504E+02  0.00000000000E+00 0. -1.
          1    1    1    2  502    0 -0.21671354404E+01 -0.43101064094E+02  0.76200364451E+03  0.76322470640E+03  0.00000000000E+00 0. -1.
         22    1    3    3    0    0 -0.29831411984E+02  0.49927960112E+02  0.13706110455E+03  0.14889076775E+03  0.00000000000E+00 0.  1.
         22    1    3    3    0    0  0.55654118595E+02 -0.48698532933E+01  0.22196805762E+02  0.60114844870E+02  0.00000000000E+00 0.  1.
</event>
<event>
 7    1  0.6255318E-006  0.9680179E+02  0.7818608E-02  0.1321412E+00
          2   -1    0    0  502    0  0.00000000000E+00  0.00000000000E+00  0.15013409902E+04  0.15013409902E+04  0.00000000000E+00 0. -1.
          1   -1    0    0  501    0 -0.00000000000E+00 -0.00000000000E+00 -0.31365220512E+03  0.31365220512E+03  0.00000000000E+00 0. -1.
         25    2    1    2    0    0 -0.82127870300E+02  0.93648938549E+02  0.49247986361E+03  0.52314085780E+03  0.12499932109E+03 0.  0.
          2    1    1    2  501    0  0.93714892695E+02 -0.23859134120E+02 -0.28918183682E+03  0.30492273471E+03  0.00000000000E+00 0. -1.
          1    1    1    2  502    0 -0.11587022395E+02 -0.69789804429E+02  0.98439075826E+03  0.98692960278E+03  0.00000000000E+00 0. -1.
         22    1    3    3    0    0 -0.10801835814E+03  0.89683067599E+02  0.46245645097E+03  0.48329803160E+03  0.00000000000E+00 0. -1.
         22    1    3    3    0    0  0.25890487841E+02  0.39658709497E+01  0.30023412640E+02  0.39842826200E+02  0.00000000000E+00 0. -1.
</event>
<event>
 7    1  0.6255318E-006  0.6655656E+02  0.7818608E-02  0.1448877E+00
          2   -1    0    0  502    0  0.00000000000E+00  0.00000000000E+00  0.21478908217E+02  0.21478908217E+02  0.00000000000E+00 0. -1.
          1   -1    0    0  501    0 -0.00000000000E+00 -0.00000000000E+00 -0.38039072521E+04  0.38039072521E+04  0.00000000000E+00 0. -1.
         25    2    1    2    0    0  0.54834118212E+02  0.52313406094E+02 -0.16157760749E+04  0.16223751274E+04  0.12500102793E+03 0.  0.
          2    1    1    2  501    0 -0.64181881550E+02 -0.16935115992E+02 -0.21653793333E+04  0.21663964940E+04  0.00000000000E+00 0. -1.
          1    1    1    2  502    0  0.93477633378E+01 -0.35378290102E+02 -0.12729356544E+01  0.36614538849E+02  0.00000000000E+00 0. -1.
         22    1    3    3    0    0  0.81812984394E+02 -0.45609647957E+01 -0.80523322225E+03  0.80939156719E+03  0.00000000000E+00 0.  1.
         22    1    3    3    0    0 -0.26978866182E+02  0.56874370889E+02 -0.81054285264E+03  0.81298356026E+03  0.00000000000E+00 0.  1.
</event>
<event>
 7    1  0.6255318E-006  0.2152943E+03  0.7818608E-02  0.1303428E+00
          2   -1    0    0  502    0  0.00000000000E+00  0.00000000000E+00  0.26632651386E+03  0.26632651386E+03  0.00000000000E+00 0. -1.
          1   -1    0    0  501    0 -0.00000000000E+00 -0.00000000000E+00 -0.41580979656E+03  0.41580979656E+03  0.00000000000E+00 0. -1.
         25    2    1    2    0    0  0.19045096406E+03  0.10246866959E+03 -0.84469057105E+02  0.26368896699E+03  0.12500180697E+03 0.  0.
          2    1    1    2  501    0 -0.20493446290E+03 -0.67960435918E+02 -0.19023078619E+03  0.28775772266E+03  0.00000000000E+00 0. -1.
          1    1    1    2  502    0  0.14483498835E+02 -0.34508233672E+02  0.12521656060E+03  0.13068962077E+03  0.00000000000E+00 0. -1.
         22    1    3    3    0    0  0.16919333722E+03  0.88165285613E+02 -0.11582774628E+03  0.22319401819E+03  0.00000000000E+00 0.  1.
         22    1    3    3    0    0  0.21257626842E+02  0.14303383977E+02  0.31358689172E+02  0.40494948805E+02  0.00000000000E+00 0.  1.
</event>
<event>
 7    1  0.6255318E-006  0.8995882E+02  0.7818608E-02  0.1436430E+00
          2   -1    0    0  502    0  0.00000000000E+00  0.00000000000E+00  0.16500850072E+03  0.16500850072E+03  0.00000000000E+00 0. -1.
          1   -1    0    0  501    0 -0.00000000000E+00 -0.00000000000E+00 -0.62862240231E+03  0.62862240231E+03  0.00000000000E+00 0. -1.
         25    2    1    2    0    0 -0.93800386184E+02  0.19745414056E+02 -0.63191045945E+02  0.16972052117E+03  0.12499421264E+03 0.  0.
          2    1    1    2  501    0  0.16075586241E+02  0.24975279414E+02 -0.49365810397E+03  0.49455081910E+03  0.00000000000E+00 0. -1.
          1    1    1    2  502    0  0.77724799943E+02 -0.44720693470E+02  0.93235248322E+02  0.12935956277E+03  0.00000000000E+00 0. -1.
         22    1    3    3    0    0 -0.73277494156E+02  0.29484288997E+02 -0.99408561451E+02  0.12696840763E+03  0.00000000000E+00 0. -1.
         22    1    3    3    0    0 -0.20522892028E+02 -0.97388749410E+01  0.36217515505E+02  0.42752113535E+02  0.00000000000E+00 0. -1.
</event>
<event>
 7    1  0.6255318E-006  0.1154210E+03  0.7818608E-02  0.1301286E+00
          2   -1    0    0  502    0  0.00000000000E+00  0.00000000000E+00  0.75547252960E+03  0.75547252960E+03  0.00000000000E+00 0. -1.
          1   -1    0    0  501    0 -0.00000000000E+00 -0.00000000000E+00 -0.11910083680E+03  0.11910083680E+03  0.00000000000E+00 0. -1.
         25    2    1    2    0    0 -0.14097014152E+02  0.11026940611E+03 -0.22984140722E+02  0.16883294047E+03  0.12497289039E+03 0.  0.
          2    1    1    2  501    0 -0.66438728999E+02 -0.25584832644E+02  0.54398378624E+02  0.89598392671E+02  0.00000000000E+00 0. -1.
          1    1    1    2  502    0  0.80535743150E+02 -0.84684573468E+02  0.60495745490E+03  0.61614203326E+03  0.00000000000E+00 0. -1.
         22    1    3    3    0    0 -0.68602939004E+02  0.47421364094E+02 -0.39442831713E+01  0.83490756269E+02  0.00000000000E+00 0.  1.
         22    1    3    3    0    0  0.54505924852E+02  0.62848042017E+02 -0.19039857550E+02  0.85342184205E+02  0.00000000000E+00 0.  1.
</event>
<event>
 7    1  0.6255318E-006  0.8421777E+02  0.7818608E-02  0.1367503E+00
          2   -1    0    0  502    0  0.00000000000E+00  0.00000000000E+00  0.13812725686E+04  0.13812725686E+04  0.00000000000E+00 0. -1.
          1   -1    0    0  501    0 -0.00000000000E+00 -0.00000000000E+00 -0.81933771766E+03  0.81933771766E+03  0.00000000000E+00 0. -1.
         25    2    1    2    0    0  0.10185382655E+03 -0.14769336743E+02  0.41866557621E+03  0.44888527656E+03  0.12499916608E+03 0.  0.
          2    1    1    2  501    0 -0.38058099823E+02 -0.39274853266E+02 -0.80144964985E+03  0.80331343466E+03  0.00000000000E+00 0. -1.
          1    1    1    2  502    0 -0.63795726725E+02  0.54044190009E+02  0.94471892462E+03  0.94841157509E+03  0.00000000000E+00 0. -1.
         22    1    3    3    0    0  0.42485471955E+02 -0.32698674195E+02  0.35847602997E+03  0.36246280179E+03  0.00000000000E+00 0. -1.
         22    1    3    3    0    0  0.59368354593E+02  0.17929337452E+02  0.60189546241E+02  0.86422474770E+02  0.00000000000E+00 0. -1.
</event>
<event>
 7    1  0.6255318E-006  0.1841544E+03  0.7818608E-02  0.1287580E+00
          2   -1    0    0  502    0  0.00000000000E+00  0.00000000000E+00  0.12299190329E+04  0.12299190329E+04  0.00000000000E+00 0. -1.
          1   -1    0    0  501    0 -0.00000000000E+00 -0.00000000000E+00 -0.75085815800E+03  0.75085815800E+03  0.00000000000E+00 0. -1.
         25    2    1    2    0    0  0.16020157610E+03  0.16244235991E+03  0.52614375831E+02  0.26541615631E+03  0.12500159281E+03 0.  0.
          2    1    1    2  501    0 -0.21739893421E+02 -0.45789306200E+02 -0.63578906487E+03  0.63780641148E+03  0.00000000000E+00 0. -1.
          1    1    1    2  502    0 -0.13846168268E+03 -0.11665305371E+03  0.10622355640E+04  0.10775546231E+04  0.00000000000E+00 0. -1.
         22    1    3    3    0    0  0.33813551722E+02  0.19442249750E+02  0.63208526180E+02  0.74274323540E+02  0.00000000000E+00 0.  1.
         22    1    3    3    0    0  0.12638802438E+03  0.14300011016E+03 -0.10594150349E+02  0.19114183277E+03  0.00000000000E+00 0.  1.
</event>
<event>
 7    1  0.6255318E-006  0.1202829E+03  0.7818608E-02  0.1271751E+00
          2   -1    0    0  502    0  0.00000000000E+00  0.00000000000E+00  0.55230933962E+03  0.55230933962E+03  0.00000000000E+00 0. -1.
          1   -1    0    0  501    0 -0.00000000000E+00 -0.00000000000E+00 -0.62110523934E+03  0.62110523934E+03  0.00000000000E+00 0. -1.
         25    2    1    2    0    0 -0.14635621341E+03  0.12349207148E+03 -0.10467829804E+03  0.25150079979E+03  0.12499869318E+03 0.  0.
          2    1    1    2  501    0  0.60196333231E+02 -0.96710314594E+02 -0.43130442733E+03  0.44609415208E+03  0.00000000000E+00 0. -1.
          1    1    1    2  502    0  0.86159880175E+02 -0.26781756882E+02  0.46718682565E+03  0.47581962708E+03  0.00000000000E+00 0. -1.
         22    1    3    3    0    0 -0.80323604372E+02 -0.57417369046E+01 -0.57309695645E+02  0.98839517284E+02  0.00000000000E+00 0. -1.
         22    1    3    3    0    0 -0.66032609034E+02  0.12923380838E+03 -0.47368602392E+02  0.15266128251E+03  0.00000000000E+00 0. -1.
</event>
<event>
 7    1  0.6255318E-006  0.5042664E+02  0.7818608E-02  0.1455095E+00
          2   -1    0    0  502    0  0.00000000000E+00  0.00000000000E+00  0.30718256078E+04  0.30718256078E+04  0.00000000000E+00 0. -1.
          1   -1    0    0  501    0 -0.00000000000E+00 -0.00000000000E+00 -0.25443402074E+02  0.25443402074E+02  0.00000000000E+00 0. -1.
         25    2    1    2    0    0 -0.24297180778E+02  0.25626421951E+01  0.52443119869E+03  0.53967585753E+03  0.12500011565E+03 0.  0.
          2    1    1    2  501    0  0.21793387785E+02 -0.48635176940E+02  0.22718867214E+02  0.57935128503E+02  0.00000000000E+00 0. -1.
          1    1    1    2  502    0  0.25037929927E+01  0.46072534745E+02  0.24992321399E+04  0.24996580239E+04  0.00000000000E+00 0. -1.
         22    1    3    3    0    0  0.73997233416E+01 -0.49768700074E+02  0.11267629239E+03  0.12340026856E+03  0.00000000000E+00 0. -1.
         22    1    3    3    0    0 -0.31696904119E+02  0.52331342269E+02  0.41175490629E+03  0.41627558897E+03  0.00000000000E+00 0. -1.
</event>
<event>
 7    1  0.6255318E-006  0.5100087E+02  0.7818608E-02  0.1497938E+00
          2   -1    0    0  502    0  0.00000000000E+00  0.00000000000E+00  0.15947277546E+04  0.15947277546E+04  0.00000000000E+00 0. -1.
          1   -1    0    0  501    0 -0.00000000000E+00 -0.00000000000E+00 -0.30171314488E+03  0.30171314488E+03  0.00000000000E+00 0. -1.
         25    2    1    2    0    0 -0.17185921668E+02  0.55332642432E+01  0.89392063262E+03  0.90279842349E+03  0.12499969245E+03 0.  0.
          2    1    1    2  501    0  0.50838185986E+02 -0.49896276399E+01 -0.29466882261E+03  0.29906376002E+03  0.00000000000E+00 0. -1.
          1    1    1    2  502    0 -0.33652264318E+02 -0.54363660328E+00  0.69376279969E+03  0.69457871596E+03  0.00000000000E+00 0. -1.
         22    1    3    3    0    0  0.28765208550E+01 -0.74316673147E+01  0.86607207115E+03  0.86610873248E+03  0.00000000000E+00 0. -1.
         22    1    3    3    0    0 -0.20062442524E+02  0.12964931558E+02  0.27848561469E+02  0.36689691007E+02  0.00000000000E+00 0. -1.
</event>
<event>
 7    1  0.6255318E-006  0.1393716E+03  0.7818608E-02  0.1367497E+00
          2   -1    0    0  502    0  0.00000000000E+00  0.00000000000E+00  0.75270080430E+03  0.75270080430E+03  0.00000000000E+00 0. -1.
          1   -1    0    0  501    0 -0.00000000000E+00 -0.00000000000E+00 -0.11585960070E+04  0.11585960070E+04  0.00000000000E+00 0. -1.
         25    2    1    2    0    0  0.13168245722E+03 -0.91774876530E+02  0.51226494832E+03  0.55118279547E+03  0.12499679694E+03 0.  0.
          2    1    1    2  501    0 -0.99171206657E+02  0.97710878896E+02 -0.11336186898E+04  0.11421355778E+04  0.00000000000E+00 0. -1.
          1    1    1    2  502    0 -0.32511250566E+02 -0.59360023657E+01  0.21545853879E+03  0.21797843809E+03  0.00000000000E+00 0. -1.
         22    1    3    3    0    0  0.14058040939E+03 -0.65052479277E+02  0.49374754533E+03  0.51747590773E+03  0.00000000000E+00 0.  1.
         22    1    3    3    0    0 -0.88979521648E+01 -0.26722397253E+02  0.18517402989E+02  0.33706887740E+02  0.00000000000E+00 0.  1.
</event>
<event>
 7    1  0.6255318E-006  0.5100635E+02  0.7818608E-02  0.1441334E+00
          2   -1    0    0  502    0  0.00000000000E+00  0.00000000000E+00  0.25872671037E+04  0.25872671037E+04  0.00000000000E+00 0. -1.
          1   -1    0    0  501    0 -0.00000000000E+00 -0.00000000000E+00 -0.36073829966E+02  0.36073829966E+02  0.00000000000E+00 0. -1.
         25    2    1    2    0    0 -0.42465214813E+02 -0.19717104537E+02  0.49734720425E+03  0.51494711343E+03  0.12499691747E+03 0.  0.
          2    1    1    2  501    0  0.39922087400E+02 -0.31747037219E+02 -0.28182378985E+01  0.51084145285E+02  0.00000000000E+00 0. -1.
          1    1    1    2  502    0  0.25431274122E+01  0.51464141756E+02  0.20566643074E+04  0.20573096750E+04  0.00000000000E+00 0. -1.
         22    1    3    3    0    0 -0.77481677894E+02 -0.11870671172E+02  0.44259871949E+03  0.44948631763E+03  0.00000000000E+00 0.  1.
         22    1    3    3    0    0  0.35016463081E+02 -0.78464333651E+01  0.54748484755E+02  0.65460795795E+02  0.00000000000E+00 0.  1.
</event>
<event>
 7    1  0.6255318E-006  0.5747941E+02  0.7818608E-02  0.1436948E+00
          2   -1    0    0  502    0  0.00000000000E+00  0.00000000000E+00  0.17201578716E+04  0.17201578716E+04  0.00000000000E+00 0. -1.
          1   -1    0    0  501    0 -0.00000000000E+00 -0.00000000000E+00 -0.81217006543E+03  0.81217006543E+03  0.00000000000E+00 0. -1.
         25    2    1    2    0    0 -0.26749746164E+02  0.97181076276E+02  0.82972615955E+02  0.18074968768E+03  0.12500513627E+03 0.  0.
          2    1    1    2  501    0  0.96588934205E+00 -0.46294401726E+02 -0.76206634075E+03  0.76347181498E+03  0.00000000000E+00 0. -1.
          1    1    1    2  502    0  0.25783856822E+02 -0.50886674551E+02  0.15870815309E+04  0.15881064343E+04  0.00000000000E+00 0. -1.
         22    1    3    3    0    0 -0.37749312573E+01  0.12072194633E+03  0.41273772569E+02  0.12763840618E+03  0.00000000000E+00 0.  1.
         22    1    3    3    0    0 -0.22974814907E+02 -0.23540870050E+02  0.41698843386E+02  0.53111281499E+02  0.00000000000E+00 0.  1.
</event>
<event>
 7    1  0.6255318E-006  0.1184183E+03  0.7818608E-02  0.1431453E+00
          2   -1    0    0  502    0  0.00000000000E+00  0.00000000000E+00  0.49918990856E+03  0.49918990856E+03  0.00000000000E+00 0. -1.
          1   -1    0    0  501    0 -0.00000000000E+00 -0.00000000000E+00 -0.86044220097E+03  0.86044220097E+03  0.00000000000E+00 0. -1.
         25    2    1    2    0    0  0.70430174666E+02 -0.71714541734E+02 -0.25453116151E+03  0.30085516116E+03  0.12499732324E+03 0.  0.
          2    1    1    2  501    0  0.23386224013E+02 -0.13646085272E+01 -0.57507972316E+03  0.57555665718E+03  0.00000000000E+00 0. -1.
          1    1    1    2  502    0 -0.93816398679E+02  0.73079150261E+02  0.46835859227E+03  0.48322029119E+03  0.00000000000E+00 0. -1.
         22    1    3    3    0    0  0.86767103380E+02 -0.56388833544E+02 -0.25819261331E+03  0.27815761062E+03  0.00000000000E+00 0. -1.
         22    1    3    3    0    0 -0.16336928714E+02 -0.15325708190E+02  0.36614517980E+01  0.22697550542E+02  0.00000000000E+00 0. -1.
</event>
<event>
 7    1  0.6255318E-006  0.7032475E+02  0.7818608E-02  0.1414678E+00
          2   -1    0    0  502    0  0.00000000000E+00  0.00000000000E+00  0.67498551033E+03  0.67498551033E+03  0.00000000000E+00 0. -1.
          1   -1    0    0  501    0 -0.00000000000E+00 -0.00000000000E+00 -0.69363302281E+03  0.69363302281E+03  0.00000000000E+00 0. -1.
         25    2    1    2    0    0  0.52939811139E+02  0.56877895629E+02 -0.15178939375E+03  0.21143069510E+03  0.12500080065E+03 0.  0.
          2    1    1    2  501    0 -0.69150918538E+02 -0.15056957242E+02 -0.50879122290E+03  0.51368966312E+03  0.00000000000E+00 0. -1.
          1    1    1    2  502    0  0.16211107399E+02 -0.41820938388E+02  0.64193310417E+03  0.64349817491E+03  0.00000000000E+00 0. -1.
         22    1    3    3    0    0 -0.12044835502E+02  0.15453627389E+02 -0.12982755355E+03  0.13129770113E+03  0.00000000000E+00 0.  1.
         22    1    3    3    0    0  0.64984646641E+02  0.41424268240E+02 -0.21961840204E+02  0.80132993975E+02  0.00000000000E+00 0.  1.
</event>
<event>
 7    1  0.6255318E-006  0.6734049E+02  0.7818608E-02  0.1468045E+00
          2   -1    0    0  502    0  0.00000000000E+00  0.00000000000E+00  0.77581865989E+03  0.77581865989E+03  0.00000000000E+00 0. -1.
          1   -1    0    0  501    0 -0.00000000000E+00 -0.00000000000E+00 -0.12824653576E+04  0.12824653576E+04  0.00000000000E+00 0. -1.
         25    2    1    2    0    0  0.60249760684E+02  0.37255773026E+02  0.33267169847E+03  0.36237315803E+03  0.12500328159E+03 0.  0.
          2    1    1    2  501    0  0.72389959937E+01 -0.30611602787E+02 -0.12647334403E+04  0.12651245584E+04  0.00000000000E+00 0. -1.
          1    1    1    2  502    0 -0.67488756678E+02 -0.66441702382E+01  0.42541504420E+03  0.43078630097E+03  0.00000000000E+00 0. -1.
         22    1    3    3    0    0 -0.21286983568E+02  0.55137866712E+02  0.11627839806E+03  0.13043767044E+03  0.00000000000E+00 0. -1.
         22    1    3    3    0    0  0.81536744253E+02 -0.17882093686E+02  0.21639330041E+03  0.23193548758E+03  0.00000000000E+00 0. -1.
</event>
<event>
 7    1  0.6255318E-006  0.8949218E+02  0.7818608E-02  0.1416573E+00
          2   -1    0    0  502    0  0.00000000000E+00  0.00000000000E+00  0.32410902107E+03  0.32410902107E+03  0.00000000000E+00 0. -1.
          1   -1    0    0  501    0 -0.00000000000E+00 -0.00000000000E+00 -0.10212849717E+04  0.10212849717E+04  0.00000000000E+00 0. -1.
         25    2    1    2    0    0 -0.70782744768E+00 -0.57847957848E+02  0.34433796442E+02  0.14197613108E+03  0.12499859284E+03 0.  0.
          2    1    1    2  501    0  0.16608890143E+02  0.88727624994E+02 -0.96411546915E+03  0.96833211478E+03  0.00000000000E+00 0. -1.
          1    1    1    2  502    0 -0.15901062695E+02 -0.30879667146E+02  0.23250572203E+03  0.23508574694E+03  0.00000000000E+00 0. -1.
         22    1    3    3    0    0 -0.15397861802E+02  0.32744017110E+02 -0.13273647923E+02  0.38541594852E+02  0.00000000000E+00 0.  1.
         22    1    3    3    0    0  0.14690034354E+02 -0.90591974958E+02  0.47707444365E+02  0.10343453622E+03  0.00000000000E+00 0.  1.
</event>
<event>
 7    1  0.6255318E-006  0.1718257E+03  0.7818608E-02  0.1320327E+00
          2   -1    0    0  502    0  0.00000000000E+00  0.00000000000E+00  0.37823917519E+03  0.37823917519E+03  0.00000000000E+00 0. -1.
          1   -1    0    0  501    0 -0.00000000000E+00 -0.00000000000E+00 -0.10143361552E+04  0.10143361552E+04  0.00000000000E+00 0. -1.
         25    2    1    2    0    0 -0.83112117624E+02 -0.12679055159E+03 -0.56090247319E+02  0.20433426462E+03  0.12499163086E+03 0.  0.
          2    1    1    2  501    0 -0.40234680141E+02  0.85102506383E+00 -0.85806720705E+03  0.85901041062E+03  0.00000000000E+00 0. -1.
          1    1    1    2  502    0  0.12334679777E+03  0.12593952652E+03  0.27806047439E+03  0.32923065513E+03  0.00000000000E+00 0. -1.
         22    1    3    3    0    0 -0.71724371271E+02 -0.13090535674E+03 -0.85858000270E+02  0.17219812446E+03  0.00000000000E+00 0. -1.
         22    1    3    3    0    0 -0.11387746353E+02  0.41148051546E+01  0.29767752951E+02  0.32136140157E+02  0.00000000000E+00 0. -1.
</event>
<event>
 7    1  0.6255318E-006  0.2103515E+03  0.7818608E-02  0.1241617E+00
          2   -1    0    0  502    0  0.00000000000E+00  0.00000000000E+00  0.10422200532E+04  0.10422200532E+04  0.00000000000E+00 0. -1.
          1   -1    0    0  501    0 -0.00000000000E+00 -0.00000000000E+00 -0.54868310159E+03  0.54868310159E+03  0.00000000000E+00 0. -1.
         25    2    1    2    0    0  0.17254666960E+03 -0.20953013070E+03  0.54453005365E+02  0.30375130404E+03  0.12499798419E+03 0.  0.
          2    1    1    2  501    0 -0.12517912406E+03  0.15868621096E+03 -0.39842818655E+03  0.44676184538E+03  0.00000000000E+00 0. -1.
          1    1    1    2  502    0 -0.47367545542E+02  0.50843919739E+02  0.83751213275E+03  0.84039000532E+03  0.00000000000E+00 0. -1.
         22    1    3    3    0    0  0.12739467592E+03 -0.20701888631E+03  0.14666518045E+02  0.24351864301E+03  0.00000000000E+00 0.  1.
         22    1    3    3    0    0  0.45151993675E+02 -0.25112443877E+01  0.39786487320E+02  0.60232661028E+02  0.00000000000E+00 0.  1.
</event>
<event>
 7    1  0.6255318E-006  0.5929390E+02  0.7818608E-02  0.1447861E+00
          2   -1    0    0  502    0  0.00000000000E+00  0.00000000000E+00  0.52136381876E+03  0.52136381876E+03  0.00000000000E+00 0. -1.
          1   -1    0    0  501    0 -0.00000000000E+00 -0.00000000000E+00 -0.13048695779E+03  0.13048695779E+03  0.00000000000E+00 0. -1.
         25    2    1    2    0    0  0.31440152936E+02 -0.89455796684E+02 -0.56086680454E+02  0.16662196078E+03  0.12500535714E+03 0.  0.
          2    1    1    2  501    0 -0.27580963439E+02  0.30852781456E+02  0.77462123569E+01  0.42102345227E+02  0.00000000000E+00 0. -1.
          1    1    1    2  502    0 -0.38591894974E+01  0.58603015228E+02  0.43921732907E+03  0.44312647054E+03  0.00000000000E+00 0. -1.
         22    1    3    3    0    0 -0.46686734843E+02 -0.39073841666E+02 -0.38435322768E+02  0.71997849615E+02  0.00000000000E+00 0.  1.
         22    1    3    3    0    0  0.78126887779E+02 -0.50381955018E+02 -0.17651357686E+02  0.94624111164E+02  0.00000000000E+00 0.  1.
</event>
<event>
 7    1  0.6255318E-006  0.5810362E+02  0.7818608E-02  0.1443123E+00
          2   -1    0    0  502    0  0.00000000000E+00  0.00000000000E+00  0.14328889060E+04  0.14328889060E+04  0.00000000000E+00 0. -1.
          1   -1    0    0  501    0 -0.00000000000E+00 -0.00000000000E+00 -0.12213663254E+02  0.12213663254E+02  0.00000000000E+00 0. -1.
         25    2    1    2    0    0 -0.67969977246E+02 -0.10509588721E+02  0.98406476404E+03  0.99435471645E+03  0.12500989177E+03 0.  0.
          2    1    1    2  501    0  0.39187189352E+02  0.43447001483E+02  0.15339849425E+03  0.16417787849E+03  0.00000000000E+00 0. -1.
          1    1    1    2  502    0  0.28782787894E+02 -0.32937412762E+02  0.28321198446E+03  0.28656997432E+03  0.00000000000E+00 0. -1.
         22    1    3    3    0    0  0.19820196747E+02  0.32749785907E+02  0.43105203497E+03  0.43274847837E+03  0.00000000000E+00 0. -1.
         22    1    3    3    0    0 -0.87790173992E+02 -0.43259374628E+02  0.55301272907E+03  0.56160623809E+03  0.00000000000E+00 0. -1.
</event>
<event>
 7    1  0.6255318E-006  0.7886899E+02  0.7818608E-02  0.1415404E+00
          2   -1    0    0  502    0  0.00000000000E+00  0.00000000000E+00  0.15069977732E+04  0.15069977732E+04  0.00000000000E+00 0. -1.
          1   -1    0    0  501    0 -0.00000000000E+00 -0.00000000000E+00 -0.81936967689E+03  0.81936967689E+03  0.00000000000E+00 0. -1.
         25    2    1    2    0    0 -0.38914234271E+01  0.58278645302E+02  0.69701046657E+03  0.71053568750E+03  0.12500331605E+03 0.  0.
          2    1    1    2  501    0 -0.33645508617E+02 -0.71416060952E+02 -0.81019508291E+03  0.81403215316E+03  0.00000000000E+00 0. -1.
          1    1    1    2  502    0  0.37536932044E+02  0.13137415650E+02  0.80081271260E+03  0.80179960939E+03  0.00000000000E+00 0. -1.
         22    1    3    3    0    0 -0.17029338723E+02  0.95332807557E+02  0.43962078744E+03  0.45016083717E+03  0.00000000000E+00 0.  1.
         22    1    3    3    0    0  0.13137915296E+02 -0.37054162255E+02  0.25738967913E+03  0.26037485033E+03  0.00000000000E+00 0.  1.
</event>
<event>
 7    1  0.6255318E-006  0.8894517E+02  0.7818608E-02  0.1432129E+00
          2   -1    0    0  502    0  0.00000000000E+00  0.00000000000E+00  0.11611364240E+04  0.11611364240E+04  0.00000000000E+00 0. -1.
          1   -1    0    0  501    0 -0.00000000000E+00 -0.00000000000E+00 -0.19330822283E+03  0.19330822283E+03  0.00000000000E+00 0. -1.
         25    2    1    2    0    0 -0.65937436568E+02 -0.50350130816E+02  0.25235161037E+02  0.15213608786E+03  0.12500277861E+03 0.  0.
          2    1    1    2  501    0  0.49059112101E+02  0.76387819885E+02 -0.11373488765E+03  0.14552498127E+03  0.00000000000E+00 0. -1.
          1    1    1    2  502    0  0.16878324467E+02 -0.26037689070E+02  0.10563279278E+04  0.10567835777E+04  0.00000000000E+00 0. -1.
         22    1    3    3    0    0 -0.16040233960E+02 -0.86778042928E+02  0.15102768401E+02  0.89531064180E+02  0.00000000000E+00 0.  1.
         22    1    3    3    0    0 -0.49897202608E+02  0.36427912112E+02  0.10132392636E+02  0.62605023676E+02  0.00000000000E+00 0.  1.
</event>
<event>
 7    1  0.6255318E-006  0.1874408E+03  0.7818608E-02  0.1361066E+00
          2   -1    0    0  502    0  0.00000000000E+00  0.00000000000E+00  0.62467525228E+03  0.62467525228E+03  0.00000000000E+00 0. -1.
          1   -1    0    0  501    0 -0.00000000000E+00 -0.00000000000E+00 -0.36200897607E+04  0.36200897607E+04  0.00000000000E+00 0. -1.
         25    2    1    2    0    0 -0.19709110854E+03  0.33296509201E+02  0.16207162066E+03  0.28608691502E+03  0.12499980055E+03 0.  0.
          2    1    1    2  501    0  0.18708398795E+03 -0.93765098317E+01 -0.35551942578E+04  0.35601256366E+04  0.00000000000E+00 0. -1.
          1    1    1    2  502    0  0.10007120592E+02 -0.23919999369E+02  0.39770812872E+03  0.39855246139E+03  0.00000000000E+00 0. -1.
         22    1    3    3    0    0 -0.13442471390E+03  0.15762645333E+02  0.17346959714E+03  0.22002310294E+03  0.00000000000E+00 0.  1.
         22    1    3    3    0    0 -0.62666394640E+02  0.17533863868E+02 -0.11397976485E+02  0.66063812086E+02  0.00000000000E+00 0.  1.
</event>
<event>
 7    1  0.6255318E-006  0.6572546E+02  0.7818608E-02  0.1472687E+00
          2   -1    0    0  502    0  0.00000000000E+00  0.00000000000E+00  0.47821255855E+03  0.47821255855E+03  0.00000000000E+00 0. -1.
          1   -1    0    0  501    0 -0.00000000000E+00 -0.00000000000E+00 -0.67206891287E+03  0.67206891287E+03  0.00000000000E+00 0. -1.
         25    2    1    2    0    0 -0.58676287193E+01 -0.36133123655E+02 -0.10569793350E+03  0.16773899368E+03  0.12499714062E+03 0.  0.
          2    1    1    2  501    0  0.86881846869E+01  0.67180835032E+02 -0.53265942752E+03  0.53694954593E+03  0.00000000000E+00 0. -1.
          1    1    1    2  502    0 -0.28205559676E+01 -0.31047711377E+02  0.44450100670E+03  0.44559293181E+03  0.00000000000E+00 0. -1.
         22    1    3    3    0    0 -0.35402648464E+02 -0.70401454550E+02 -0.90533951211E+02  0.12002544998E+03  0.00000000000E+00 0. -1.
         22    1    3    3    0    0  0.29535019745E+02  0.34268330895E+02 -0.15163982293E+02  0.47713543703E+02  0.00000000000E+00 0. -1.
</event>
<event>
 7    1  0.6255318E-006  0.3126735E+03  0.7818608E-02  0.1206448E+00
          2   -1    0    0  502    0  0.00000000000E+00  0.00000000000E+00  0.53509575810E+03  0.53509575810E+03  0.00000000000E+00 0. -1.
          1   -1    0    0  501    0 -0.00000000000E+00 -0.00000000000E+00 -0.20114644094E+04  0.20114644094E+04  0.00000000000E+00 0. -1.
         25    2    1    2    0    0 -0.33974503068E+03 -0.10242694422E+03 -0.38371413387E+03  0.53738338049E+03  0.12500558517E+03 0.  0.
          2    1    1    2  501    0  0.34678434677E+02  0.57870039462E+02 -0.14982163671E+04  0.14997345825E+04  0.00000000000E+00 0. -1.
          1    1    1    2  502    0  0.30506659600E+03  0.44556904762E+02  0.40556184970E+03  0.50944220447E+03  0.00000000000E+00 0. -1.
         22    1    3    3    0    0 -0.17096635326E+03 -0.10716912776E+03 -0.16239363575E+03  0.25901044153E+03  0.00000000000E+00 0. -1.
         22    1    3    3    0    0 -0.16877867742E+03  0.47421835354E+01 -0.22132049812E+03  0.27837293896E+03  0.00000000000E+00 0. -1.
</event>
<event>
 7    1  0.6255318E-006  0.8283673E+02  0.7818608E-02  0.1336765E+00
          2   -1    0    0  502    0  0.00000000000E+00  0.00000000000E+00  0.31253825612E+03  0.31253825612E+03  0.00000000000E+00 0. -1.
          1   -1    0    0  501    0 -0.00000000000E+00 -0.00000000000E+00 -0.42727051441E+03  0.42727051441E+03  0.00000000000E+00 0. -1.
         25    2    1    2    0    0  0.94674157809E+01  0.14286906254E+03  0.59177204765E+01  0.19015444634E+03  0.12498997182E+03 0.  0.
          2    1    1    2  501    0 -0.27964663136E+02 -0.66579654044E+02 -0.32385772421E+03  0.33181123888E+03  0.00000000000E+00 0. -1.
          1    1    1    2  502    0  0.18497247355E+02 -0.76289408493E+02  0.20320774544E+03  0.21784308531E+03  0.00000000000E+00 0. -1.
         22    1    3    3    0    0  0.26625837331E+02  0.83067555219E+02  0.61497732528E+02  0.10672921367E+03  0.00000000000E+00 0. -1.
         22    1    3    3    0    0 -0.17158421550E+02  0.59801507318E+02 -0.55580012052E+02  0.83425232678E+02  0.00000000000E+00 0. -1.
</event>
<event>
 7    1  0.6255318E-006  0.1387774E+03  0.7818608E-02  0.1356081E+00
          2   -1    0    0  502    0  0.00000000000E+00  0.00000000000E+00  0.50572218483E+03  0.50572218483E+03  0.00000000000E+00 0. -1.
          1   -1    0    0  501    0 -0.00000000000E+00 -0.00000000000E+00 -0.71587828679E+03  0.71587828679E+03  0.00000000000E+00 0. -1.
         25    2    1    2    0    0  0.22307401395E+01  0.10704918470E+03 -0.64115095624E+02  0.17663072421E+03  0.12499265219E+03 0.  0.
          2    1    1    2  501    0 -0.12406951189E+02  0.34350517932E+02 -0.58374191032E+03  0.58488332886E+03  0.00000000000E+00 0. -1.
          1    1    1    2  502    0  0.10176211050E+02 -0.14139970263E+03  0.43770090399E+03  0.46008641854E+03  0.00000000000E+00 0. -1.
         22    1    3    3    0    0 -0.11724581222E+02  0.13265882733E+03 -0.40781350922E+02  0.13928010933E+03  0.00000000000E+00 0.  1.
         22    1    3    3    0    0  0.13955321361E+02 -0.25609642628E+02 -0.23333744702E+02  0.37350614877E+02  0.00000000000E+00 0.  1.
</event>
<event>
 7    1  0.6255318E-006  0.9944810E+02  0.7818608E-02  0.1332260E+00
          2   -1    0    0  502    0  0.00000000000E+00  0.00000000000E+00  0.64254213767E+03  0.64254213767E+03  0.00000000000E+00 0. -1.
          1   -1    0    0  501    0 -0.00000000000E+00 -0.00000000000E+00 -0.10240254104E+04  0.10240254104E+04  0.00000000000E+00 0. -1.
         25    2    1    2    0    0  0.49444103554E+02 -0.24970374880E+02  0.56920432263E+02  0.14809920939E+03  0.12500080486E+03 0.  0.
          2    1    1    2  501    0 -0.10011047912E+03 -0.11736556894E+02 -0.97401431852E+03  0.97921588400E+03  0.00000000000E+00 0. -1.
          1    1    1    2  502    0  0.50666375562E+02  0.36706931774E+02  0.53561061358E+03  0.53925245463E+03  0.00000000000E+00 0. -1.
         22    1    3    3    0    0  0.80306477267E+02 -0.32731849970E+02  0.45776063015E+01  0.86841572838E+02  0.00000000000E+00 0.  1.
         22    1    3    3    0    0 -0.30862373713E+02  0.77614750898E+01  0.52342825962E+02  0.61257636556E+02  0.00000000000E+00 0.  1.
</event>
<event>
 7    1  0.6255318E-006  0.1277867E+03  0.7818608E-02  0.1296368E+00
          2   -1    0    0  502    0  0.00000000000E+00  0.00000000000E+00  0.12831390809E+04  0.12831390809E+04  0.00000000000E+00 0. -1.
          1   -1    0    0  501    0 -0.00000000000E+00 -0.00000000000E+00 -0.54098280498E+03  0.54098280498E+03  0.00000000000E+00 0. -1.
         25    2    1    2    0    0  0.30159819110E+02 -0.18884646545E+03  0.35423987283E+03  0.42152836930E+03  0.12501070521E+03 0.  0.
          2    1    1    2  501    0 -0.50355954128E+01  0.12641935992E+03 -0.49815501895E+03  0.51397046091E+03  0.00000000000E+00 0. -1.
          1    1    1    2  502    0 -0.25124223698E+02  0.62427105534E+02  0.88607142203E+03  0.88862305567E+03  0.00000000000E+00 0. -1.
         22    1    3    3    0    0 -0.35933472406E+02 -0.13584536837E+03  0.25404278498E+03  0.29031519965E+03  0.00000000000E+00 0. -1.
         22    1    3    3    0    0  0.66093291516E+02 -0.53001097077E+02  0.10019708785E+03  0.13121316964E+03  0.00000000000E+00 0. -1.
</event>
<event>
 7    1  0.6255318E-006  0.6928928E+02  0.7818608E-02  0.1438581E+00
          2   -1    0    0  502    0  0.00000000000E+00  0.00000000000E+00  0.19055566158E+04  0.19055566158E+04  0.00000000000E+00 0. -1.
          1   -1    0    0  501    0 -0.00000000000E+00 -0.00000000000E+00 -0.15503762971E+03  0.15503762971E+03  0.00000000000E+00 0. -1.
         25    2    1    2    0    0 -0.11817654488E+02 -0.99520581635E+02  0.38951188167E+03  0.42117336693E+03  0.12499398355E+03 0.  0.
          2    1    1    2  501    0 -0.12114004158E+02  0.35959259932E+02 -0.13583673412E+03  0.14103700156E+03  0.00000000000E+00 0. -1.
          1    1    1    2  502    0  0.23931658645E+02  0.63561321703E+02  0.14968438385E+04  0.14983838770E+04  0.00000000000E+00 0. -1.
         22    1    3    3    0    0  0.49394841458E+02 -0.77046788828E+02  0.18297274970E+03  0.20458515383E+03  0.00000000000E+00 0. -1.
         22    1    3    3    0    0 -0.61212495946E+02 -0.22473792807E+02  0.20653913196E+03  0.21658821310E+03  0.00000000000E+00 0. -1.
</event>
<event>
 7    1  0.6255318E-006  0.9888947E+02  0.7818608E-02  0.1461014E+00
          2   -1    0    0  502    0  0.00000000000E+00  0.00000000000E+00  0.13246393601E+04  0.13246393601E+04  0.00000000000E+00 0. -1.
          1   -1    0    0  501    0 -0.00000000000E+00 -0.00000000000E+00 -0.85713951864E+03  0.85713951864E+03  0.00000000000E+00 0. -1.
         25    2    1    2    0    0 -0.88854007570E+02  0.79018856367E+02  0.12749080152E+03  0.21451603191E+03  0.12499683657E+03 0.  0.
          2    1    1    2  501    0  0.79186382434E+02 -0.58662280228E+02 -0.81053206752E+03  0.81650105864E+03  0.00000000000E+00 0. -1.
          1    1    1    2  502    0  0.96676251360E+01 -0.20356576139E+02  0.11505411074E+04  0.11507617882E+04  0.00000000000E+00 0. -1.
         22    1    3    3    0    0 -0.81211103053E+02  0.88204586635E+02  0.14818775995E+03  0.19061716754E+03  0.00000000000E+00 0.  1.
         22    1    3    3    0    0 -0.76429045172E+01 -0.91857302677E+01 -0.20696958431E+02  0.23898864372E+02  0.00000000000E+00 0.  1.
</event>
<event>
 7    1  0.6255318E-006  0.6453877E+02  0.7818608E-02  0.1389062E+00
          2   -1    0    0  502    0  0.00000000000E+00  0.00000000000E+00  0.72810887863E+03  0.72810887863E+03  0.00000000000E+00 0. -1.
          1   -1    0    0  501    0 -0.00000000000E+00 -0.00000000000E+00 -0.18910831059E+03  0.18910831059E+03  0.00000000000E+00 0. -1.
         25    2    1    2    0    0 -0.90566832246E+01  0.58848250503E+02  0.36729015146E+03  0.39252021850E+03  0.12499970589E+03 0.  0.
          2    1    1    2  501    0  0.59400729489E+02 -0.26517240074E+02 -0.16779317717E+03  0.17996155420E+03  0.00000000000E+00 0. -1.
          1    1    1    2  502    0 -0.50344046264E+02 -0.32331010429E+02  0.33950359375E+03  0.34473541651E+03  0.00000000000E+00 0. -1.
         22    1    3    3    0    0 -0.33360531082E+02  0.64515735996E+02  0.35892461047E+03  0.36619951014E+03  0.00000000000E+00 0. -1.
         22    1    3    3    0    0  0.24303847857E+02 -0.56674854932E+01  0.83655409884E+01  0.26320708359E+02  0.00000000000E+00 0. -1.
</event>
<event>
 7    1  0.6255318E-006  0.1367743E+03  0.7818608E-02  0.1362010E+00
          2   -1    0    0  502    0  0.00000000000E+00  0.00000000000E+00  0.70089198428E+03  0.70089198428E+03  0.00000000000E+00 0. -1.
          1   -1    0    0  501    0 -0.00000000000E+00 -0.00000000000E+00 -0.59108431582E+03  0.59108431582E+03  0.00000000000E+00 0. -1.
         25    2    1    2    0    0 -0.29973807111E+01 -0.16613796101E+03 -0.12013273370E+03  0.24014209288E+03  0.12500217873E+03 0.  0.
          2    1    1    2  501    0  0.16480853083E+02  0.31164306690E+02 -0.40299131035E+03  0.40453038050E+03  0.00000000000E+00 0. -1.
          1    1    1    2  502    0 -0.13483472372E+02  0.13497365432E+03  0.63293171251E+03  0.64730382672E+03  0.00000000000E+00 0. -1.
         22    1    3    3    0    0 -0.47790522399E+02 -0.22592524311E+02 -0.54955190248E+02  0.76252404035E+02  0.00000000000E+00 0.  1.
         22    1    3    3    0    0  0.44793141688E+02 -0.14354543669E+03 -0.65177543456E+02  0.16388968884E+03  0.00000000000E+00 0.  1.
</event>
<event>
 7    1  0.6255318E-006  0.1004102E+03  0.7818608E-02  0.1333512E+00
          2   -1    0    0  502    0  0.00000000000E+00  0.00000000000E+00  0.14993519869E+04  0.14993519869E+04  0.00000000000E+00 0. -1.
          1   -1    0    0  501    0 -0.00000000000E+00 -0.00000000000E+00 -0.69292415532E+03  0.69292415532E+03  0.00000000000E+00 0. -1.
         25    2    1    2    0    0  0.40185829793E+02  0.36806255056E+02  0.99192391301E+01  0.13672687784E+03  0.12500498587E+03 0.  0.
          2    1    1    2  501    0 -0.98042375194E+01  0.60501431381E+02 -0.62620044725E+03  0.62919277364E+03  0.00000000000E+00 0. -1.
          1    1    1    2  502    0 -0.30381592273E+02 -0.97307686437E+02  0.14227090397E+04  0.14263564907E+04  0.00000000000E+00 0. -1.
         22    1    3    3    0    0  0.75860047366E+02  0.56928907935E+02  0.12105453256E+01  0.94853111520E+02  0.00000000000E+00 0.  1.
         22    1    3    3    0    0 -0.35674217573E+02 -0.20122652878E+02  0.87086938044E+01  0.41873766323E+02  0.00000000000E+00 0.  1.
</event>
<event>
 7    1  0.6255318E-006  0.1551014E+03  0.7818608E-02  0.1252154E+00
          2   -1    0    0  502    0  0.00000000000E+00  0.00000000000E+00  0.11052852846E+04  0.11052852846E+04  0.00000000000E+00 0. -1.
          1   -1    0    0  501    0 -0.00000000000E+00 -0.00000000000E+00 -0.41660918492E+03  0.41660918492E+03  0.00000000000E+00 0. -1.
         25    2    1    2    0    0 -0.92153669283E+02 -0.53134199403E+01  0.51841125391E+01  0.15547390420E+03  0.12499891468E+03 0.  0.
          2    1    1    2  501    0  0.16652996088E+03  0.46007832820E+02 -0.31770376806E+03  0.36164158056E+03  0.00000000000E+00 0. -1.
          1    1    1    2  502    0 -0.74376291597E+02 -0.40694412880E+02  0.10011957552E+04  0.10047789848E+04  0.00000000000E+00 0. -1.
         22    1    3    3    0    0  0.26054170013E+02  0.19001706145E+01 -0.21784121727E+02  0.34014384940E+02  0.00000000000E+00 0. -1.
         22    1    3    3    0    0 -0.11820783930E+03 -0.72135905549E+01  0.26968234266E+02  0.12145951926E+03  0.00000000000E+00 0. -1.
</event>
<event>
 7    1  0.6255318E-006  0.9546825E+02  0.7818608E-02  0.1318372E+00
          2   -1    0    0  502    0  0.00000000000E+00  0.00000000000E+00  0.88885105195E+03  0.88885105195E+03  0.00000000000E+00 0. -1.
          1   -1    0    0  501    0 -0.00000000000E+00 -0.00000000000E+00 -0.24981951697E+03  0.24981951697E+03  0.00000000000E+00 0. -1.
         25    2    1    2    0    0 -0.45677039994E+02 -0.14457433840E+03  0.24740351771E+03  0.31594620109E+03  0.12500148040E+03 0.  0.
          2    1    1    2  501    0  0.59831817960E+02  0.72237506959E+02 -0.20295932084E+03  0.22358575484E+03  0.00000000000E+00 0. -1.
          1    1    1    2  502    0 -0.14154777966E+02  0.72336831444E+02  0.59458733812E+03  0.59913861299E+03  0.00000000000E+00 0. -1.
         22    1    3    3    0    0 -0.57726676360E+01 -0.14824175387E+03  0.15165985067E+03  0.21215478215E+03  0.00000000000E+00 0.  1.
         22    1    3    3    0    0 -0.39904372358E+02  0.36674154655E+01  0.95743667032E+02  0.10379141894E+03  0.00000000000E+00 0.  1.
</event>
<event>
 7    1  0.6255318E-006  0.9943481E+02  0.7818608E-02  0.1416475E+00
          2   -1    0    0  502    0  0.00000000000E+00  0.00000000000E+00  0.14481508391E+03  0.14481508391E+03  0.00000000000E+00 0. -1.
          1   -1    0    0  501    0 -0.00000000000E+00 -0.00000000000E+00 -0.62015928281E+03  0.62015928281E+03  0.00000000000E+00 0. -1.
         25    2    1    2    0    0  0.27409633214E+02  0.68956040351E+02 -0.20053602269E+03  0.24768151911E+03  0.12500086007E+03 0.  0.
          2    1    1    2  501    0  0.25411242080E+02  0.18246866180E+02 -0.37384798053E+03  0.37515462398E+03  0.00000000000E+00 0. -1.
          1    1    1    2  502    0 -0.52820875294E+02 -0.87202906531E+02  0.99039804326E+02  0.14213822362E+03  0.00000000000E+00 0. -1.
         22    1    3    3    0    0  0.28490962041E+01 -0.34654640159E+02 -0.77648614304E+02  0.85078603286E+02  0.00000000000E+00 0. -1.
         22    1    3    3    0    0  0.24560537009E+02  0.10361068051E+03 -0.12288740839E+03  0.16260291583E+03  0.00000000000E+00 0. -1.
</event>
<event>
 7    1  0.6255318E-006  0.7022779E+02  0.7818608E-02  0.1416404E+00
          2   -1    0    0  502    0  0.00000000000E+00  0.00000000000E+00  0.11924542866E+04  0.11924542866E+04  0.00000000000E+00 0. -1.
          1   -1    0    0  501    0 -0.00000000000E+00 -0.00000000000E+00 -0.23192766766E+03  0.23192766766E+03  0.00000000000E+00 0. -1.
         25    2    1    2    0    0 -0.67502702880E+02  0.66379073035E+02  0.32519535439E+03  0.36102701675E+03  0.12500276826E+03 0.  0.
          2    1    1    2  501    0  0.44296130490E+02 -0.14161381591E+01 -0.21029770734E+03  0.21491691031E+03  0.00000000000E+00 0. -1.
          1    1    1    2  502    0  0.23206572390E+02 -0.64962934876E+02  0.84562897194E+03  0.84843802725E+03  0.00000000000E+00 0. -1.
         22    1    3    3    0    0  0.27799005041E+02  0.57896766483E+01  0.17725956605E+02  0.33474088106E+02  0.00000000000E+00 0. -1.
         22    1    3    3    0    0 -0.95301707921E+02  0.60589396387E+02  0.30746939778E+03  0.32755292864E+03  0.00000000000E+00 0. -1.
</event>
<event>
 7    1  0.6255318E-006  0.1396978E+03  0.7818608E-02  0.1232222E+00
          2   -1    0    0  502    0  0.00000000000E+00  0.00000000000E+00  0.19919921007E+04  0.19919921007E+04  0.00000000000E+00 0. -1.
          1   -1    0    0  501    0 -0.00000000000E+00 -0.00000000000E+00 -0.27452206361E+03  0.27452206361E+03  0.00000000000E+00 0. -1.
         25    2    1    2    0    0 -0.11902965405E+03  0.18865994431E+03  0.42204036757E+03  0.49346077524E+03  0.12499932685E+03 0.  0.
          2    1    1    2  501    0  0.10082372538E+03 -0.55655248913E+02 -0.22178935796E+03  0.24990688193E+03  0.00000000000E+00 0. -1.
          1    1    1    2  502    0  0.18205928671E+02 -0.13300469540E+03  0.15172190275E+04  0.15231465071E+04  0.00000000000E+00 0. -1.
         22    1    3    3    0    0 -0.11344577232E+03  0.19136586556E+03  0.31170020976E+03  0.38294628673E+03  0.00000000000E+00 0.  1.
         22    1    3    3    0    0 -0.55838817334E+01 -0.27059212482E+01  0.11034015781E+03  0.11051448851E+03  0.00000000000E+00 0.  1.
</event>
<event>
 7    1  0.6255318E-006  0.5285298E+02  0.7818608E-02  0.1462804E+00
          2   -1    0    0  502    0  0.00000000000E+00  0.00000000000E+00  0.68220352133E+02  0.68220352133E+02  0.00000000000E+00 0. -1.
          1   -1    0    0  501    0 -0.00000000000E+00 -0.00000000000E+00 -0.13356378071E+04  0.13356378071E+04  0.00000000000E+00 0. -1.
         25    2    1    2    0    0  0.56001075954E+02 -0.45249367785E+02 -0.23817185567E+03  0.27846995892E+03  0.12504422976E+03 0.  0.
          2    1    1    2  501    0 -0.14716857222E+02  0.50536555338E+02 -0.10675360680E+04  0.10688329082E+04  0.00000000000E+00 0. -1.
          1    1    1    2  502    0 -0.41284218733E+02 -0.52871875535E+01  0.38290468682E+02  0.56555292064E+02  0.00000000000E+00 0. -1.
         22    1    3    3    0    0 -0.20401844861E+02 -0.13705958693E+02  0.18168479819E+01  0.24645273665E+02  0.00000000000E+00 0. -1.
         22    1    3    3    0    0  0.76402920815E+02 -0.31543409092E+02 -0.23998870365E+03  0.25382468526E+03  0.00000000000E+00 0. -1.
</event>
<event>
 7    1  0.6255318E-006  0.6940828E+02  0.7818608E-02  0.1462046E+00
          2   -1    0    0  502    0  0.00000000000E+00  0.00000000000E+00  0.10767251363E+04  0.10767251363E+04  0.00000000000E+00 0. -1.
          1   -1    0    0  501    0 -0.00000000000E+00 -0.00000000000E+00 -0.30978809633E+03  0.30978809633E+03  0.00000000000E+00 0. -1.
         25    2    1    2    0    0 -0.42244672425E+02  0.44829600358E+02  0.33320703536E+03  0.36117347259E+03  0.12500017389E+03 0.  0.
          2    1    1    2  501    0 -0.24520365405E+02 -0.20355535952E+02 -0.29320662871E+03  0.29493342178E+03  0.00000000000E+00 0. -1.
          1    1    1    2  502    0  0.66765037830E+02 -0.24474064406E+02  0.72693663330E+03  0.73040633824E+03  0.00000000000E+00 0. -1.
         22    1    3    3    0    0 -0.27576723632E+02  0.88355055673E+02  0.20308073669E+03  0.22317902492E+03  0.00000000000E+00 0.  1.
         22    1    3    3    0    0 -0.14667948793E+02 -0.43525455315E+02  0.13012629868E+03  0.13799444768E+03  0.00000000000E+00 0.  1.
</event>
<event>
 7    1  0.6255318E-006  0.3239319E+03  0.7818608E-02  0.1192101E+00
          2   -1    0    0  502    0  0.00000000000E+00  0.00000000000E+00  0.17945867309E+04  0.17945867309E+04  0.00000000000E+00 0. -1.
          1   -1    0    0  501    0 -0.00000000000E+00 -0.00000000000E+00 -0.20134917204E+03  0.20134917204E+03  0.00000000000E+00 0. -1.
         25    2    1    2    0    0  0.99483975611E+02  0.35896493965E+03  0.70353746590E+03  0.80581735345E+03  0.12499500752E+03 0.  0.
          2    1    1    2  501    0  0.84418548570E+01 -0.75644851694E+02 -0.11654131165E+03  0.13919513577E+03  0.00000000000E+00 0. -1.
          1    1    1    2  502    0 -0.10792583047E+03 -0.28332008796E+03  0.10062414046E+04  0.10509234137E+04  0.00000000000E+00 0. -1.
         22    1    3    3    0    0  0.70981727018E+02  0.27609901511E+03  0.40920021050E+03  0.49871222563E+03  0.00000000000E+00 0.  1.
         22    1    3    3    0    0  0.28502248593E+02  0.82865924543E+02  0.29433725539E+03  0.30710512783E+03  0.00000000000E+00 0.  1.
</event>
<event>
 7    1  0.6255318E-006  0.1568221E+03  0.7818608E-02  0.1294506E+00
          2   -1    0    0  502    0  0.00000000000E+00  0.00000000000E+00  0.11632227150E+04  0.11632227150E+04  0.00000000000E+00 0. -1.
          1   -1    0    0  501    0 -0.00000000000E+00 -0.00000000000E+00 -0.22363168308E+03  0.22363168308E+03  0.00000000000E+00 0. -1.
         25    2    1    2    0    0  0.30470225315E+02  0.11587594093E+03  0.49116763300E+02  0.17998172473E+03  0.12500118593E+03 0.  0.
          2    1    1    2  501    0 -0.21874275928E+02 -0.17100004964E+03 -0.11022508819E+03  0.20461933191E+03  0.00000000000E+00 0. -1.
          1    1    1    2  502    0 -0.85959493875E+01  0.55124108708E+02  0.10006993568E+04  0.10022533414E+04  0.00000000000E+00 0. -1.
         22    1    3    3    0    0  0.75492596986E+02  0.62710418133E+02  0.65953184085E+01  0.98362731596E+02  0.00000000000E+00 0. -1.
         22    1    3    3    0    0 -0.45022371671E+02  0.53165522795E+02  0.42521444891E+02  0.81618993136E+02  0.00000000000E+00 0. -1.
</event>
<event>
 7    1  0.6255318E-006  0.1038122E+03  0.7818608E-02  0.1337545E+00
          2   -1    0    0  502    0  0.00000000000E+00  0.00000000000E+00  0.21033947838E+04  0.21033947838E+04  0.00000000000E+00 0. -1.
          1   -1    0    0  501    0 -0.00000000000E+00 -0.00000000000E+00 -0.37705396746E+02  0.37705396746E+02  0.00000000000E+00 0. -1.
         25    2    1    2    0    0  0.80458362626E+01  0.94622134211E+02  0.40812581910E+03  0.43727544872E+03  0.12500020028E+03 0.  0.
          2    1    1    2  501    0 -0.57232783421E+02 -0.21668562670E+00  0.16850787453E+02  0.59662278607E+02  0.00000000000E+00 0. -1.
          1    1    1    2  502    0  0.49186947158E+02 -0.94405448585E+02  0.16407127805E+04  0.16441624533E+04  0.00000000000E+00 0. -1.
         22    1    3    3    0    0  0.29999457059E+02  0.11951807646E+03  0.30552514219E+03  0.32943914542E+03  0.00000000000E+00 0.  1.
         22    1    3    3    0    0 -0.21953620796E+02 -0.24895942247E+02  0.10260067691E+03  0.10783630330E+03  0.00000000000E+00 0.  1.
</event>
<event>
 7    1  0.6255318E-006  0.4930375E+02  0.7818608E-02  0.1462221E+00
          2   -1    0    0  502    0  0.00000000000E+00  0.00000000000E+00  0.71423671439E+03  0.71423671439E+03  0.00000000000E+00 0. -1.
          1   -1    0    0  501    0 -0.00000000000E+00 -0.00000000000E+00 -0.15377562425E+03  0.15377562425E+03  0.00000000000E+00 0. -1.
         25    2    1    2    0    0  0.26749100981E+02  0.28687863272E+02 -0.14864679188E+02  0.13184876477E+03  0.12499852072E+03 0.  0.
          2    1    1    2  501    0 -0.52620550829E+02  0.78946237625E+01 -0.70755684412E+02  0.88530301764E+02  0.00000000000E+00 0. -1.
          1    1    1    2  502    0  0.25871449848E+02 -0.36582487034E+02  0.64608145374E+03  0.64763327210E+03  0.00000000000E+00 0. -1.
         22    1    3    3    0    0 -0.85262180604E+01  0.88075869234E+01 -0.65713678732E+02  0.66847270358E+02  0.00000000000E+00 0. -1.
         22    1    3    3    0    0  0.35275319042E+02  0.19880276348E+02  0.50848999544E+02  0.65001494412E+02  0.00000000000E+00 0. -1.
</event>
<event>
 7    1  0.6255318E-006  0.2543760E+03  0.7818608E-02  0.1163415E+00
          2   -1    0    0  502    0  0.00000000000E+00  0.00000000000E+00  0.69149277304E+03  0.69149277304E+03  0.00000000000E+00 0. -1.
          1   -1    0    0  501    0 -0.00000000000E+00 -0.00000000000E+00 -0.38817376836E+03  0.38817376836E+03  0.00000000000E+00 0. -1.
         25    2    1    2    0    0 -0.12990609596E+03  0.33538478998E+03  0.24741455160E+03  0.45408984220E+03  0.12500029333E+03 0.  0.
          2    1    1    2  501    0  0.12924041887E+03 -0.20140845178E+03 -0.21605289119E+03  0.32240859497E+03  0.00000000000E+00 0. -1.
          1    1    1    2  502    0  0.66567708647E+00 -0.13397633819E+03  0.27195734427E+03  0.30316810423E+03  0.00000000000E+00 0. -1.
         22    1    3    3    0    0 -0.11730490804E+03  0.27106743266E+03  0.13676932239E+03  0.32549015660E+03  0.00000000000E+00 0.  1.
         22    1    3    3    0    0 -0.12601187921E+02  0.64317357317E+02  0.11064522921E+03  0.12859968560E+03  0.00000000000E+00 0.  1.
</event>
<event>
 7    1  0.6255318E-006  0.1316441E+03  0.7818608E-02  0.1275958E+00
          2   -1    0    0  502    0  0.00000000000E+00  0.00000000000E+00  0.17108366853E+04  0.17108366853E+04  0.00000000000E+00 0. -1.
          1   -1    0    0  501    0 -0.00000000000E+00 -0.00000000000E+00 -0.14535545551E+03  0.14535545551E+03  0.00000000000E+00 0. -1.
         25    2    1    2    0    0 -0.10918264217E+03  0.36407038356E+02  0.13137733744E+03  0.21478152815E+03  0.12499911300E+03 0.  0.
          2    1    1    2  501    0 -0.18867994504E+02 -0.76891875504E+02 -0.85127858239E+02  0.11625452242E+03  0.00000000000E+00 0. -1.
          1    1    1    2  502    0  0.12805063667E+03  0.40484837148E+02  0.15192317506E+04  0.15251560902E+04  0.00000000000E+00 0. -1.
         22    1    3    3    0    0 -0.12207681673E+03  0.45915184362E+02  0.63544069270E+02  0.14508205291E+03  0.00000000000E+00 0. -1.
         22    1    3    3    0    0  0.12894174561E+02 -0.95081460065E+01  0.67833268173E+02  0.69699475243E+02  0.00000000000E+00 0. -1.
</event>
<event>
 7    1  0.6255318E-006  0.1333827E+03  0.7818608E-02  0.1286453E+00
          2   -1    0    0  502    0  0.00000000000E+00  0.00000000000E+00  0.93331622698E+03  0.93331622698E+03  0.00000000000E+00 0. -1.
          1   -1    0    0  501    0 -0.00000000000E+00 -0.00000000000E+00 -0.14795224434E+04  0.14795224434E+04  0.00000000000E+00 0. -1.
         25    2    1    2    0    0 -0.66634004805E+02 -0.76492475258E+01  0.47668793165E+02  0.14965254328E+03  0.12499987314E+03 0.  0.
          2    1    1    2  501    0  0.12957802929E+03  0.39906031285E+02 -0.14238059064E+04  0.14302469074E+04  0.00000000000E+00 0. -1.
          1    1    1    2  502    0 -0.62944024485E+02 -0.32256783759E+02  0.82993089679E+03  0.83293921973E+03  0.00000000000E+00 0. -1.
         22    1    3    3    0    0 -0.61360409375E+01  0.28031536055E+02 -0.32308965515E+02  0.43212119419E+02  0.00000000000E+00 0.  1.
         22    1    3    3    0    0 -0.60497963867E+02 -0.35680783581E+02  0.79977758680E+02  0.10644042386E+03  0.00000000000E+00 0.  1.
</event>
<event>
 7    1  0.6255318E-006  0.2474615E+03  0.7818608E-02  0.1255867E+00
          2   -1    0    0  502    0  0.00000000000E+00  0.00000000000E+00  0.73079602618E+03  0.73079602618E+03  0.00000000000E+00 0. -1.
          1   -1    0    0  501    0 -0.00000000000E+00 -0.00000000000E+00 -0.36819250536E+03  0.36819250536E+03  0.00000000000E+00 0. -1.
         25    2    1    2    0    0 -0.15042263313E+03 -0.22280171312E+03  0.12942983423E+03  0.32349246818E+03  0.12501089174E+03 0.  0.
          2    1    1    2  501    0  0.16872274705E+03  0.17496622296E+03 -0.21493795218E+03  0.32446705200E+03  0.00000000000E+00 0. -1.
          1    1    1    2  502    0 -0.18300113912E+02  0.47835490155E+02  0.44811163877E+03  0.45102901136E+03  0.00000000000E+00 0. -1.
         22    1    3    3    0    0 -0.39897943323E+02 -0.15786477710E+03  0.41467666692E+02  0.16802589417E+03  0.00000000000E+00 0.  1.
         22    1    3    3    0    0 -0.11052468981E+03 -0.64936936017E+02  0.87962167535E+02  0.15546657401E+03  0.00000000000E+00 0.  1.
</event>
<event>
 7    1  0.6255318E-006  0.1056397E+03  0.7818608E-02  0.1363665E+00
          2   -1    0    0  502    0  0.00000000000E+00  0.00000000000E+00  0.21569403177E+04  0.21569403177E+04  0.00000000000E+00 0. -1.
          1   -1    0    0  501    0 -0.00000000000E+00 -0.00000000000E+00 -0.20822325281E+03  0.20822325281E+03  0.00000000000E+00 0. -1.
         25    2    1    2    0    0  0.73961437318E+02  0.82957251934E+02  0.44562890246E+02  0.17309894231E+03  0.12500077113E+03 0.  0.
          2    1    1    2  501    0  0.22247536830E+02 -0.39134706299E+02 -0.13903558429E+03  0.14614161567E+03  0.00000000000E+00 0. -1.
          1    1    1    2  502    0 -0.96208974148E+02 -0.43822545636E+02  0.20431897589E+04  0.20459230125E+04  0.00000000000E+00 0. -1.
         22    1    3    3    0    0  0.10470406222E+03  0.66520080714E+02  0.56421242626E+02  0.13627625766E+03  0.00000000000E+00 0.  1.
         22    1    3    3    0    0 -0.30742624900E+02  0.16437171220E+02 -0.11858352380E+02  0.36822684647E+02  0.00000000000E+00 0.  1.
</event>
<event>
 7    1  0.6255318E-006  0.6343829E+02  0.7818608E-02  0.1531378E+00
          2   -1    0    0  502    0  0.00000000000E+00  0.00000000000E+00  0.99783581853E+03  0.99783581853E+03  0.00000000000E+00 0. -1.
          1   -1    0    0  501    0 -0.00000000000E+00 -0.00000000000E+00 -0.77866195078E+03  0.77866195078E+03  0.00000000000E+00 0. -1.
         25    2    1    2    0    0  0.28258954938E+01 -0.43799511958E+02  0.31384845604E+03  0.34066320213E+03  0.12499672392E+03 0.  0.
          2    1    1    2  501    0 -0.14815351225E+02  0.61767680421E+02 -0.76376187592E+03  0.76639868481E+03  0.00000000000E+00 0. -1.
          1    1    1    2  502    0  0.11989455732E+02 -0.17968168463E+02  0.66908728763E+03  0.66943588237E+03  0.00000000000E+00 0. -1.
         22    1    3    3    0    0 -0.45173254774E+02 -0.22851117371E+02  0.48195230629E+02  0.69896900986E+02  0.00000000000E+00 0.  1.
         22    1    3    3    0    0  0.47999150268E+02 -0.20948394586E+02  0.26565322541E+03  0.27076630114E+03  0.00000000000E+00 0.  1.
</event>
<event>
 7    1  0.6255318E-006  0.1855005E+03  0.7818608E-02  0.1270448E+00
          2   -1    0    0  502    0  0.00000000000E+00  0.00000000000E+00  0.18585192707E+04  0.18585192707E+04  0.00000000000E+00 0. -1.
          1   -1    0    0  501    0 -0.00000000000E+00 -0.00000000000E+00 -0.10309393429E+04  0.10309393429E+04  0.00000000000E+00 0. -1.
         25    2    1    2    0    0  0.22206250538E+03 -0.42065119632E+02  0.91894181246E+03  0.95454713003E+03  0.12499975275E+03 0.  0.
          2    1    1    2  501    0 -0.59245493748E+02 -0.25992430366E-02 -0.10045869386E+04  0.10063324231E+04  0.00000000000E+00 0. -1.
          1    1    1    2  502    0 -0.16281701163E+03  0.42067718875E+02  0.91322505400E+03  0.92857906045E+03  0.00000000000E+00 0. -1.
         22    1    3    3    0    0  0.39312338950E+02 -0.51460948010E+02  0.13780680651E+03  0.15226426069E+03  0.00000000000E+00 0.  1.
         22    1    3    3    0    0  0.18275016643E+03  0.93958283781E+01  0.78113500595E+03  0.80228286934E+03  0.00000000000E+00 0.  1.
</event>
<event>
 7    1  0.6255318E-006  0.7740704E+02  0.7818608E-02  0.1394084E+00
          2   -1    0    0  502    0  0.00000000000E+00  0.00000000000E+00  0.16509068664E+04  0.16509068664E+04  0.00000000000E+00 0. -1.
          1   -1    0    0  501    0 -0.00000000000E+00 -0.00000000000E+00 -0.21040387500E+03  0.21040387500E+03  0.00000000000E+00 0. -1.
         25    2    1    2    0    0  0.87532280118E+02  0.66127783170E+02  0.18775706494E+03  0.25081850255E+03  0.12498968764E+03 0.  0.
          2    1    1    2  501    0 -0.47913380556E+02 -0.57017391446E+00 -0.17461869036E+03  0.18107375336E+03  0.00000000000E+00 0. -1.
          1    1    1    2  502    0 -0.39618899562E+02 -0.65557609255E+02  0.14273646168E+04  0.14294184854E+04  0.00000000000E+00 0. -1.
         22    1    3    3    0    0 -0.10734306187E+02  0.21627910676E+02  0.12225379466E+03  0.12461533677E+03  0.00000000000E+00 0. -1.
         22    1    3    3    0    0  0.98266586305E+02  0.44499872494E+02  0.65503270286E+02  0.12620316578E+03  0.00000000000E+00 0. -1.
</event>
<event>
 7    1  0.6255318E-006  0.6723705E+02  0.7818608E-02  0.1498528E+00
          2   -1    0    0  502    0  0.00000000000E+00  0.00000000000E+00  0.23701173420E+03  0.23701173420E+03  0.00000000000E+00 0. -1.
          1   -1    0    0  501    0 -0.00000000000E+00 -0.00000000000E+00 -0.11279265849E+04  0.11279265849E+04  0.00000000000E+00 0. -1.
         25    2    1    2    0    0 -0.87846957948E+00  0.53456928495E+02 -0.12261755736E+03  0.18308016847E+03  0.12499947121E+03 0.  0.
          2    1    1    2  501    0 -0.22178296716E+02 -0.64174283844E+02 -0.97310866138E+03  0.97547459342E+03  0.00000000000E+00 0. -1.
          1    1    1    2  502    0  0.23056766296E+02  0.10717355349E+02  0.20481136807E+03  0.20638355717E+03  0.00000000000E+00 0. -1.
         22    1    3    3    0    0 -0.16769532215E+02  0.22498824974E+02  0.21164175812E+02  0.35147356568E+02  0.00000000000E+00 0. -1.
         22    1    3    3    0    0  0.15891062636E+02  0.30958103522E+02 -0.14378173317E+03  0.14793281190E+03  0.00000000000E+00 0. -1.
</event>
<event>
 7    1  0.6255318E-006  0.8420271E+02  0.7818608E-02  0.1346396E+00
          2   -1    0    0  502    0  0.00000000000E+00  0.00000000000E+00  0.11806600740E+04  0.11806600740E+04  0.00000000000E+00 0. -1.
          1   -1    0    0  501    0 -0.00000000000E+00 -0.00000000000E+00 -0.16741596394E+04  0.16741596394E+04  0.00000000000E+00 0. -1.
         25    2    1    2    0    0  0.77447870013E+02  0.54413234415E+02  0.59662057324E+02  0.16776094129E+03  0.12500079876E+03 0.  0.
          2    1    1    2  501    0 -0.18335300967E+02 -0.82320952283E+02 -0.16180096360E+04  0.16202061920E+04  0.00000000000E+00 0. -1.
          1    1    1    2  502    0 -0.59112569046E+02  0.27907717868E+02  0.10648480132E+04  0.10668525801E+04  0.00000000000E+00 0. -1.
         22    1    3    3    0    0 -0.16579501419E+02  0.50020217012E+02 -0.59342868127E+01  0.53029404459E+02  0.00000000000E+00 0. -1.
         22    1    3    3    0    0  0.94027371432E+02  0.43930174023E+01  0.65596344137E+02  0.11473153683E+03  0.00000000000E+00 0. -1.
</event>
<event>
 7    1  0.6255318E-006  0.6070418E+02  0.7818608E-02  0.1520992E+00
          2   -1    0    0  502    0  0.00000000000E+00  0.00000000000E+00  0.65403198976E+03  0.65403198976E+03  0.00000000000E+00 0. -1.
          1   -1    0    0  501    0 -0.00000000000E+00 -0.00000000000E+00 -0.79419111100E+03  0.79419111100E+03  0.00000000000E+00 0. -1.
         25    2    1    2    0    0 -0.22433443502E+02 -0.75415516755E+02  0.53026941869E+02  0.15693174478E+03  0.12499982560E+03 0.  0.
          2    1    1    2  501    0 -0.72753260047E+01  0.23062959838E+02 -0.74039085284E+03  0.74078569469E+03  0.00000000000E+00 0. -1.
          1    1    1    2  502    0  0.29708769506E+02  0.52352556917E+02  0.54720478973E+03  0.55050566129E+03  0.00000000000E+00 0. -1.
         22    1    3    3    0    0 -0.53149703499E+02 -0.44370011956E+02 -0.19802103264E+02  0.72011889551E+02  0.00000000000E+00 0. -1.
         22    1    3    3    0    0  0.30716259998E+02 -0.31045504800E+02  0.72829045133E+02  0.84919855225E+02  0.00000000000E+00 0. -1.
</event>
<event>
 7    1  0.6255318E-006  0.8943234E+02  0.7818608E-02  0.1316093E+00
          2   -1    0    0  502    0  0.00000000000E+00  0.00000000000E+00  0.10275515515E+04  0.10275515515E+04  0.00000000000E+00 0. -1.
          1   -1    0    0  501    0 -0.00000000000E+00 -0.00000000000E+00 -0.46009689349E+03  0.46009689349E+03  0.00000000000E+00 0. -1.
         25    2    1    2    0    0 -0.36172833962E+02 -0.23546116381E+01  0.37863901160E+03  0.40038265291E+03  0.12499899813E+03 0.  0.
          2    1    1    2  501    0  0.36302753472E+02  0.82663193281E+02 -0.44211776259E+03  0.45124185248E+03  0.00000000000E+00 0. -1.
          1    1    1    2  502    0 -0.12991951027E+00 -0.80308581643E+02  0.63093340904E+03  0.63602393965E+03  0.00000000000E+00 0. -1.
         22    1    3    3    0    0  0.43101149345E+02 -0.21597331091E+02  0.12646647471E+03  0.13534372173E+03  0.00000000000E+00 0.  1.
         22    1    3    3    0    0 -0.79273983307E+02  0.19242719453E+02  0.25217253689E+03  0.26503893118E+03  0.00000000000E+00 0.  1.
</event>
<event>
 7    1  0.6255318E-006  0.7635753E+02  0.7818608E-02  0.1364262E+00
          2   -1    0    0  502    0  0.00000000000E+00  0.00000000000E+00  0.19027909227E+03  0.19027909227E+03  0.00000000000E+00 0. -1.
          1   -1    0    0  501    0 -0.00000000000E+00 -0.00000000000E+00 -0.44073911906E+03  0.44073911906E+03  0.00000000000E+00 0. -1.
         25    2    1    2    0    0 -0.11063111119E+03 -0.59633980416E+02 -0.32877026051E+02  0.18028197309E+03  0.12500094638E+03 0.  0.
          2    1    1    2  501    0  0.39991063107E+02  0.47339063059E+02 -0.31987191634E+03  0.32581945136E+03  0.00000000000E+00 0. -1.
          1    1    1    2  502    0  0.70640048085E+02  0.12294917357E+02  0.10228891561E+03  0.12491678688E+03  0.00000000000E+00 0. -1.
         22    1    3    3    0    0  0.23293103807E+01  0.80636631483E+01 -0.47082787451E+02  0.47825068995E+02  0.00000000000E+00 0. -1.
         22    1    3    3    0    0 -0.11296042157E+03 -0.67697643564E+02  0.14205761400E+02  0.13245690410E+03  0.00000000000E+00 0. -1.
</event>
<event>
 7    1  0.6255318E-006  0.8989958E+02  0.7818608E-02  0.1373064E+00
          2   -1    0    0  502    0  0.00000000000E+00  0.00000000000E+00  0.35232210365E+04  0.35232210365E+04  0.00000000000E+00 0. -1.
          1   -1    0    0  501    0 -0.00000000000E+00 -0.00000000000E+00 -0.13489981990E+03  0.13489981990E+03  0.00000000000E+00 0. -1.
         25    2    1    2    0    0  0.67636963172E+02 -0.97050020776E+02  0.14256129472E+04  0.14359635800E+04  0.12500264982E+03 0.  0.
          2    1    1    2  501    0 -0.19647462602E+02  0.87506800273E+02 -0.11390076602E+03  0.14497188479E+03  0.00000000000E+00 0. -1.
          1    1    1    2  502    0 -0.47989500570E+02  0.95432205032E+01  0.20766090355E+04  0.20771853917E+04  0.00000000000E+00 0. -1.
         22    1    3    3    0    0  0.10343474291E+03 -0.83058050505E+02  0.11658060591E+04  0.11733290899E+04  0.00000000000E+00 0.  1.
         22    1    3    3    0    0 -0.35797779738E+02 -0.13991970271E+02  0.25980688814E+03  0.26263449010E+03  0.00000000000E+00 0.  1.
</event>
<event>
 7    1  0.6255318E-006  0.8043613E+02  0.7818608E-02  0.1337123E+00
          2   -1    0    0  502    0  0.00000000000E+00  0.00000000000E+00  0.32580374975E+03  0.32580374975E+03  0.00000000000E+00 0. -1.
          1   -1    0    0  501    0 -0.00000000000E+00 -0.00000000000E+00 -0.41474432052E+03  0.41474432052E+03  0.00000000000E+00 0. -1.
         25    2    1    2    0    0  0.16199442243E+02  0.21052508500E+02 -0.11068058890E+03  0.16905933904E+03  0.12500094926E+03 0.  0.
          2    1    1    2  501    0  0.36328425194E+02 -0.81968793123E+02 -0.26181735212E+03  0.27674349748E+03  0.00000000000E+00 0. -1.
          1    1    1    2  502    0 -0.52527867437E+02  0.60916284623E+02  0.28355737026E+03  0.29474523375E+03  0.00000000000E+00 0. -1.
         22    1    3    3    0    0  0.10935699571E+02 -0.25651341511E+02 -0.11821534915E+03  0.12145966253E+03  0.00000000000E+00 0. -1.
         22    1    3    3    0    0  0.52637426718E+01  0.46703850010E+02  0.75347602479E+01  0.47599676519E+02  0.00000000000E+00 0. -1.
</event>
<event>
 7    1  0.6255318E-006  0.1586043E+03  0.7818608E-02  0.1328753E+00
          2   -1    0    0  502    0  0.00000000000E+00  0.00000000000E+00  0.22363721779E+04  0.22363721779E+04  0.00000000000E+00 0. -1.
          1   -1    0    0  501    0 -0.00000000000E+00 -0.00000000000E+00 -0.23680095128E+03  0.23680095128E+03  0.00000000000E+00 0. -1.
         25    2    1    2    0    0  0.78241017329E+02 -0.95471022259E+02  0.25027625164E+03  0.30577901456E+03  0.12500492282E+03 0.  0.
          2    1    1    2  501    0  0.32634448786E+02 -0.23913835727E+02 -0.20366746305E+03  0.20764709073E+03  0.00000000000E+00 0. -1.
          1    1    1    2  502    0 -0.11087546612E+03  0.11938485799E+03  0.19529624380E+04  0.19597470238E+04  0.00000000000E+00 0. -1.
         22    1    3    3    0    0 -0.84824412641E+01  0.15500846209E+02  0.92981210027E+02  0.94645303428E+02  0.00000000000E+00 0. -1.
         22    1    3    3    0    0  0.86723458593E+02 -0.11097186847E+03  0.15729504161E+03  0.21113371113E+03  0.00000000000E+00 0. -1.
</event>
<event>
 7    1  0.6255318E-006  0.8476112E+02  0.7818608E-02  0.1417869E+00
          2   -1    0    0  502    0  0.00000000000E+00  0.00000000000E+00  0.20221876764E+03  0.20221876764E+03  0.00000000000E+00 0. -1.
          1   -1    0    0  501    0 -0.00000000000E+00 -0.00000000000E+00 -0.72521297673E+03  0.72521297673E+03  0.00000000000E+00 0. -1.
         25    2    1    2    0    0  0.15445444397E+02 -0.11416223440E+03 -0.19893888156E+03  0.26167339977E+03  0.12499884814E+03 0.  0.
          2    1    1    2  501    0 -0.19280425921E+02  0.30764306529E+02 -0.48398734632E+03  0.48534722496E+03  0.00000000000E+00 0. -1.
          1    1    1    2  502    0  0.38349815235E+01  0.83397927874E+02  0.15993201879E+03  0.18041111964E+03  0.00000000000E+00 0. -1.
         22    1    3    3    0    0 -0.29698597648E+02 -0.99298610653E+02 -0.72193023919E+02  0.12630935627E+03  0.00000000000E+00 0. -1.
         22    1    3    3    0    0  0.45144042046E+02 -0.14863623750E+02 -0.12674585764E+03  0.13536404350E+03  0.00000000000E+00 0. -1.
</event>
<event>
 7    1  0.6255318E-006  0.4799863E+02  0.7818608E-02  0.1490667E+00
          2   -1    0    0  502    0  0.00000000000E+00  0.00000000000E+00  0.16273784660E+03  0.16273784660E+03  0.00000000000E+00 0. -1.
          1   -1    0    0  501    0 -0.00000000000E+00 -0.00000000000E+00 -0.15488810164E+03  0.15488810164E+03  0.00000000000E+00 0. -1.
         25    2    1    2    0    0 -0.56490925875E+02 -0.42790185468E+02  0.67896949782E+02  0.15892510662E+03  0.12499987618E+03 0.  0.
          2    1    1    2  501    0  0.46859106573E+02  0.64356756265E+01 -0.95780783427E+02  0.10682299501E+03  0.00000000000E+00 0. -1.
          1    1    1    2  502    0  0.96318193020E+01  0.36354509841E+02  0.35733578608E+02  0.51877846611E+02  0.00000000000E+00 0. -1.
         22    1    3    3    0    0 -0.92186659914E+02 -0.13321814528E+02  0.26536737014E+02  0.96850655237E+02  0.00000000000E+00 0.  1.
         22    1    3    3    0    0  0.35695734039E+02 -0.29468370940E+02  0.41360212768E+02  0.62074451384E+02  0.00000000000E+00 0.  1.
</event>
<event>
 7    1  0.6255318E-006  0.5219390E+02  0.7818608E-02  0.1549357E+00
          2   -1    0    0  502    0  0.00000000000E+00  0.00000000000E+00  0.85844273275E+03  0.85844273275E+03  0.00000000000E+00 0. -1.
          1   -1    0    0  501    0 -0.00000000000E+00 -0.00000000000E+00 -0.11521794354E+03  0.11521794354E+03  0.00000000000E+00 0. -1.
         25    2    1    2    0    0 -0.44340559059E+02  0.53949913536E+02  0.99940398914E+02  0.17461241632E+03  0.12499893700E+03 0.  0.
          2    1    1    2  501    0  0.26447420574E+01 -0.23205987998E+02 -0.75176987560E+02  0.78721610743E+02  0.00000000000E+00 0. -1.
          1    1    1    2  502    0  0.41695817002E+02 -0.30743925538E+02  0.71846137786E+03  0.72032664923E+03  0.00000000000E+00 0. -1.
         22    1    3    3    0    0 -0.34455461174E+02 -0.34843548614E+02  0.14774631612E+02  0.51181455861E+02  0.00000000000E+00 0.  1.
         22    1    3    3    0    0 -0.98850978848E+01  0.88793462150E+02  0.85165767302E+02  0.12343096046E+03  0.00000000000E+00 0.  1.
</event>
<event>
 7    1  0.6255318E-006  0.1496844E+03  0.7818608E-02  0.1240831E+00
          2   -1    0    0  502    0  0.00000000000E+00  0.00000000000E+00  0.56878503826E+03  0.56878503826E+03  0.00000000000E+00 0. -1.
          1   -1    0    0  501    0 -0.00000000000E+00 -0.00000000000E+00 -0.97910541346E+03  0.97910541346E+03  0.00000000000E+00 0. -1.
         25    2    1    2    0    0  0.99174724902E+02 -0.15207147074E+03  0.16471499888E+02  0.22103631865E+03  0.12499754231E+03 0.  0.
          2    1    1    2  501    0 -0.98383705572E+02  0.31658554989E+01 -0.86162580929E+03  0.86723031047E+03  0.00000000000E+00 0. -1.
          1    1    1    2  502    0 -0.79101932990E+00  0.14890561524E+03  0.43483393420E+03  0.45962382259E+03  0.00000000000E+00 0. -1.
         22    1    3    3    0    0  0.96529629421E+02 -0.91148843585E+02 -0.39237998901E+02  0.13844024560E+03  0.00000000000E+00 0.  1.
         22    1    3    3    0    0  0.26450954816E+01 -0.60922627154E+02  0.55709498789E+02  0.82596073059E+02  0.00000000000E+00 0.  1.
</event>
<event>
 7    1  0.6255318E-006  0.2047252E+03  0.7818608E-02  0.1212547E+00
          2   -1    0    0  502    0  0.00000000000E+00  0.00000000000E+00  0.18325619026E+04  0.18325619026E+04  0.00000000000E+00 0. -1.
          1   -1    0    0  501    0 -0.00000000000E+00 -0.00000000000E+00 -0.39815377181E+03  0.39815377181E+03  0.00000000000E+00 0. -1.
         25    2    1    2    0    0  0.12452196591E+03 -0.53697652136E+02  0.12310775765E+03  0.22174351640E+03  0.12500203691E+03 0.  0.
          2    1    1    2  501    0 -0.17013842769E+03  0.13877633808E+03 -0.31271228396E+03  0.38209282789E+03  0.00000000000E+00 0. -1.
          1    1    1    2  502    0  0.45616461786E+02 -0.85078685940E+02  0.16240126571E+04  0.16268793301E+04  0.00000000000E+00 0. -1.
         22    1    3    3    0    0  0.76219525473E+01  0.31356802949E+02  0.64151533433E+00  0.32276226449E+02  0.00000000000E+00 0.  1.
         22    1    3    3    0    0  0.11690001336E+03 -0.85054455085E+02  0.12246624232E+03  0.18946728995E+03  0.00000000000E+00 0.  1.
</event>
<event>
 7    1  0.6255318E-006  0.1061959E+03  0.7818608E-02  0.1292757E+00
          2   -1    0    0  502    0  0.00000000000E+00  0.00000000000E+00  0.55195718028E+03  0.55195718028E+03  0.00000000000E+00 0. -1.
          1   -1    0    0  501    0 -0.00000000000E+00 -0.00000000000E+00 -0.23235485816E+03  0.23235485816E+03  0.00000000000E+00 0. -1.
         25    2    1    2    0    0 -0.15414989964E+03 -0.54052733497E+02 -0.80958130618E+02  0.22105186461E+03  0.12500327348E+03 0.  0.
          2    1    1    2  501    0  0.50367837187E+02  0.66897704468E+02 -0.52135712804E+02  0.98642558947E+02  0.00000000000E+00 0. -1.
          1    1    1    2  502    0  0.10378206245E+03 -0.12844970971E+02  0.45269616554E+03  0.46461761489E+03  0.00000000000E+00 0. -1.
         22    1    3    3    0    0 -0.17001121494E+03 -0.47798482296E+02 -0.93555718751E+02  0.19985289747E+03  0.00000000000E+00 0.  1.
         22    1    3    3    0    0  0.15861315304E+02 -0.62542512003E+01  0.12597588133E+02  0.21198967145E+02  0.00000000000E+00 0.  1.
</event>
<event>
 7    1  0.6255318E-006  0.1543887E+03  0.7818608E-02  0.1367163E+00
          2   -1    0    0  502    0  0.00000000000E+00  0.00000000000E+00  0.15055830009E+03  0.15055830009E+03  0.00000000000E+00 0. -1.
          1   -1    0    0  501    0 -0.00000000000E+00 -0.00000000000E+00 -0.83907083150E+03  0.83907083150E+03  0.00000000000E+00 0. -1.
         25    2    1    2    0    0  0.12333782565E+03  0.46502119241E+02 -0.39929918668E+03  0.43867939365E+03  0.12500041442E+03 0.  0.
          2    1    1    2  501    0  0.16476207935E+02  0.24971221728E+02 -0.37216264092E+03  0.37336317258E+03  0.00000000000E+00 0. -1.
          1    1    1    2  502    0 -0.13981403358E+03 -0.71473340969E+02  0.82949296187E+02  0.17758656535E+03  0.00000000000E+00 0. -1.
         22    1    3    3    0    0  0.41097585797E+02 -0.93631162373E+01 -0.20163920712E+02  0.46725402111E+02  0.00000000000E+00 0.  1.
         22    1    3    3    0    0  0.82240239849E+02  0.55865235478E+02 -0.37913526597E+03  0.39195399154E+03  0.00000000000E+00 0.  1.
</event>
<event>
 7    1  0.6255318E-006  0.4698078E+02  0.7818608E-02  0.1494372E+00
          2   -1    0    0  502    0  0.00000000000E+00  0.00000000000E+00  0.19519619778E+03  0.19519619778E+03  0.00000000000E+00 0. -1.
          1   -1    0    0  501    0 -0.00000000000E+00 -0.00000000000E+00 -0.73280297277E+02  0.73280297277E+02  0.00000000000E+00 0. -1.
         25    2    1    2    0    0  0.32855741899E+02  0.11649298793E+02  0.94709726017E+02  0.16065458978E+03  0.12499903630E+03 0.  0.
          2    1    1    2  501    0 -0.19297074213E+02 -0.46556395894E+02 -0.13836961293E+02  0.52262190631E+02  0.00000000000E+00 0. -1.
          1    1    1    2  502    0 -0.13558667686E+02  0.34907097101E+02  0.41043135780E+02  0.55559714651E+02  0.00000000000E+00 0. -1.
         22    1    3    3    0    0  0.14247742943E+02 -0.40092286923E+02 -0.87976410655E+01  0.43448683961E+02  0.00000000000E+00 0.  1.
         22    1    3    3    0    0  0.18607998956E+02  0.51741585715E+02  0.10350736708E+03  0.11720590581E+03  0.00000000000E+00 0.  1.
</event>
<event>
 7    1  0.6255318E-006  0.1191859E+03  0.7818608E-02  0.1408856E+00
          2   -1    0    0  502    0  0.00000000000E+00  0.00000000000E+00  0.84323919639E+03  0.84323919639E+03  0.00000000000E+00 0. -1.
          1   -1    0    0  501    0 -0.00000000000E+00 -0.00000000000E+00 -0.15404357961E+04  0.15404357961E+04  0.00000000000E+00 0. -1.
         25    2    1    2    0    0 -0.22436699875E+02 -0.91062630184E+02 -0.23114761124E+03  0.27901602226E+03  0.12499965751E+03 0.  0.
          2    1    1    2  501    0 -0.16957625298E+02 -0.21892607884E+02 -0.12808367725E+04  0.12811360916E+04  0.00000000000E+00 0. -1.
          1    1    1    2  502    0  0.39394325173E+02  0.11295523807E+03  0.81478778404E+03  0.82352287866E+03  0.00000000000E+00 0. -1.
         22    1    3    3    0    0 -0.58179460576E+02 -0.24321440067E+01 -0.11241189538E+03  0.12659857495E+03  0.00000000000E+00 0.  1.
         22    1    3    3    0    0  0.35742760700E+02 -0.88630486177E+02 -0.11873571586E+03  0.15241744731E+03  0.00000000000E+00 0.  1.
</event>
<event>
 7    1  0.6255318E-006  0.9623073E+02  0.7818608E-02  0.1292117E+00
          2   -1    0    0  502    0  0.00000000000E+00  0.00000000000E+00  0.88261085358E+03  0.88261085358E+03  0.00000000000E+00 0. -1.
          1   -1    0    0  501    0 -0.00000000000E+00 -0.00000000000E+00 -0.13138055676E+03  0.13138055676E+03  0.00000000000E+00 0. -1.
         25    2    1    2    0    0  0.72457008462E+02  0.57777190285E+02  0.18799631492E+03  0.24404118558E+03  0.12500105618E+03 0.  0.
          2    1    1    2  501    0  0.15596572265E+02 -0.96596256568E+02 -0.75761513373E+02  0.12374933033E+03  0.00000000000E+00 0. -1.
          1    1    1    2  502    0 -0.88053580726E+02  0.38819066283E+02  0.63899549526E+03  0.64620089442E+03  0.00000000000E+00 0. -1.
         22    1    3    3    0    0 -0.33602653398E+02  0.29540505344E+02  0.68232728646E+02  0.81593412907E+02  0.00000000000E+00 0.  1.
         22    1    3    3    0    0  0.10605966186E+03  0.28236684941E+02  0.11976358627E+03  0.16244777268E+03  0.00000000000E+00 0.  1.
</event>
<event>
 7    1  0.6255318E-006  0.2511307E+03  0.7818608E-02  0.1142882E+00
          2   -1    0    0  502    0  0.00000000000E+00  0.00000000000E+00  0.13322136224E+04  0.13322136224E+04  0.00000000000E+00 0. -1.
          1   -1    0    0  501    0 -0.00000000000E+00 -0.00000000000E+00 -0.93439641546E+03  0.93439641546E+03  0.00000000000E+00 0. -1.
         25    2    1    2    0    0 -0.31018951197E+03 -0.54535498141E+02  0.65764422930E+03  0.73980543884E+03  0.12499800445E+03 0.  0.
          2    1    1    2  501    0  0.23047600275E+03 -0.98837715559E+02 -0.86334126846E+03  0.89902515409E+03  0.00000000000E+00 0. -1.
          1    1    1    2  502    0  0.79713509219E+02  0.15337321370E+03  0.60351424614E+03  0.62777944497E+03  0.00000000000E+00 0. -1.
         22    1    3    3    0    0 -0.29500127696E+03 -0.13839775438E+02  0.57864285248E+03  0.64964978529E+03  0.00000000000E+00 0.  1.
         22    1    3    3    0    0 -0.15188235003E+02 -0.40695722703E+02  0.79001376813E+02  0.90155653551E+02  0.00000000000E+00 0.  1.
</event>
<event>
 7    1  0.6255318E-006  0.1149471E+03  0.7818608E-02  0.1265280E+00
          2   -1    0    0  502    0  0.00000000000E+00  0.00000000000E+00  0.14296507252E+04  0.14296507252E+04  0.00000000000E+00 0. -1.
          1   -1    0    0  501    0 -0.00000000000E+00 -0.00000000000E+00 -0.71329819948E+03  0.71329819948E+03  0.00000000000E+00 0. -1.
         25    2    1    2    0    0  0.32427607087E+02  0.20496511844E+03 -0.24044336226E+03  0.34132144375E+03  0.12500027211E+03 0.  0.
          2    1    1    2  501    0 -0.42375029657E+02 -0.91158478562E+02 -0.41402517413E+03  0.42605440517E+03  0.00000000000E+00 0. -1.
          1    1    1    2  502    0  0.99474225702E+01 -0.11380663988E+03  0.13708210621E+04  0.13755730758E+04  0.00000000000E+00 0. -1.
         22    1    3    3    0    0 -0.30854818987E+02  0.26314574945E+02 -0.78798081568E+01  0.41310629212E+02  0.00000000000E+00 0.  1.
         22    1    3    3    0    0  0.63282426074E+02  0.17865054350E+03 -0.23256355410E+03  0.30001081453E+03  0.00000000000E+00 0.  1.
</event>
<event>
 7    1  0.6530874E-006  0.5471041E+02  0.7818608E-02  0.1486543E+00
          2   -1    0    0  502    0  0.00000000000E+00  0.00000000000E+00  0.77017452745E+03  0.77017452745E+03  0.00000000000E+00 0. -1.
          1   -1    0    0  501    0 -0.00000000000E+00 -0.00000000000E+00 -0.96793763468E+03  0.96793763468E+03  0.00000000000E+00 0. -1.
         25    2    1    2    0    0 -0.80567372916E+02 -0.32284142019E+02 -0.51814927749E+03  0.54003431997E+03  0.12500010230E+03 0.  0.
          2    1    1    2  501    0  0.27254243485E+02  0.20257754139E+02 -0.43720303713E+03  0.43851985823E+03  0.00000000000E+00 0. -1.
          1    1    1    2  502    0  0.53313129430E+02  0.12026387880E+02  0.75758920740E+03  0.75955798392E+03  0.00000000000E+00 0. -1.
         22    1    3    3    0    0 -0.10061189544E+02  0.39142957902E+02 -0.25890641143E+03  0.26204184507E+03  0.00000000000E+00 0. -1.
         22    1    3    3    0    0 -0.70506183372E+02 -0.71427099922E+02 -0.25924286606E+03  0.27799247490E+03  0.00000000000E+00 0. -1.
</event>
<event>
 7    1  0.6255318E-006  0.1355750E+03  0.7818608E-02  0.1290480E+00
          2   -1    0    0  502    0  0.00000000000E+00  0.00000000000E+00  0.70292405336E+03  0.70292405336E+03  0.00000000000E+00 0. -1.
          1   -1    0    0  501    0 -0.00000000000E+00 -0.00000000000E+00 -0.14532785501E+04  0.14532785501E+04  0.00000000000E+00 0. -1.
         25    2    1    2    0    0 -0.63835617136E+02  0.16652288816E+03  0.33962021519E+03  0.40345000601E+03  0.12500063394E+03 0.  0.
          2    1    1    2  501    0  0.49052919333E+02 -0.45642552828E+02 -0.14093526036E+04  0.14109444329E+04  0.00000000000E+00 0. -1.
          1    1    1    2  502    0  0.14782697804E+02 -0.12088033534E+03  0.31937789170E+03  0.34180816452E+03  0.00000000000E+00 0. -1.
         22    1    3    3    0    0 -0.27427926148E+02  0.14137495050E+03  0.32720225235E+03  0.35749193237E+03  0.00000000000E+00 0. -1.
         22    1    3    3    0    0 -0.36407690989E+02  0.25147937664E+02  0.12417962835E+02  0.45958073642E+02  0.00000000000E+00 0. -1.
</event>
<event>
 7    1  0.6255318E-006  0.5422690E+02  0.7818608E-02  0.1486349E+00
          2   -1    0    0  502    0  0.00000000000E+00  0.00000000000E+00  0.81252712269E+03  0.81252712269E+03  0.00000000000E+00 0. -1.
          1   -1    0    0  501    0 -0.00000000000E+00 -0.00000000000E+00 -0.95717552064E+03  0.95717552064E+03  0.00000000000E+00 0. -1.
         25    2    1    2    0    0  0.32481784054E+02  0.61898004756E+02 -0.43871587919E+03  0.46150152735E+03  0.12500243121E+03 0.  0.
          2    1    1    2  501    0  0.70477794540E+00 -0.53198285471E+02 -0.50530230763E+03  0.50809544023E+03  0.00000000000E+00 0. -1.
          1    1    1    2  502    0 -0.33186561999E+02 -0.86997192848E+01  0.79936978886E+03  0.80010567575E+03  0.00000000000E+00 0. -1.
         22    1    3    3    0    0 -0.38584969137E+02  0.47718925849E+02 -0.12155773199E+03  0.13616966598E+03  0.00000000000E+00 0.  1.
         22    1    3    3    0    0  0.71066753191E+02  0.14179078907E+02 -0.31715814720E+03  0.32533186137E+03  0.00000000000E+00 0.  1.
</event>
<event>
 7    1  0.6255318E-006  0.1804152E+03  0.7818608E-02  0.1177081E+00
          2   -1    0    0  502    0  0.00000000000E+00  0.00000000000E+00  0.40957219647E+03  0.40957219647E+03  0.00000000000E+00 0. -1.
          1   -1    0    0  501    0 -0.00000000000E+00 -0.00000000000E+00 -0.33707486497E+03  0.33707486497E+03  0.00000000000E+00 0. -1.
         25    2    1    2    0    0  0.10990012562E+03 -0.46918189325E+02  0.21917151253E+02  0.17431128835E+03  0.12499883850E+03 0.  0.
          2    1    1    2  501    0  0.11261979861E+03  0.11586292699E+03 -0.18184649406E+03  0.24326032207E+03  0.00000000000E+00 0. -1.
          1    1    1    2  502    0 -0.22251992424E+03 -0.68944737666E+02  0.23242667430E+03  0.32907545102E+03  0.00000000000E+00 0. -1.
         22    1    3    3    0    0  0.37139176727E+02 -0.37751272583E+02 -0.49105808008E+02  0.72220893166E+02  0.00000000000E+00 0. -1.
         22    1    3    3    0    0  0.72760948896E+02 -0.91669167413E+01  0.71022959261E+02  0.10209039518E+03  0.00000000000E+00 0. -1.
</event>
<event>
 7    1  0.6255318E-006  0.8232871E+02  0.7818608E-02  0.1451723E+00
          2   -1    0    0  502    0  0.00000000000E+00  0.00000000000E+00  0.68857518399E+03  0.68857518399E+03  0.00000000000E+00 0. -1.
          1   -1    0    0  501    0 -0.00000000000E+00 -0.00000000000E+00 -0.10856260520E+04  0.10856260520E+04  0.00000000000E+00 0. -1.
         25    2    1    2    0    0 -0.88353536270E+02  0.40820943930E+02 -0.26749115885E+03  0.31088485797E+03  0.12500071208E+03 0.  0.
          2    1    1    2  501    0  0.71170382467E+01 -0.28080700638E+02 -0.79363795534E+03  0.79416647004E+03  0.00000000000E+00 0. -1.
          1    1    1    2  502    0  0.81236498023E+02 -0.12740243293E+02  0.66407824613E+03  0.66914990802E+03  0.00000000000E+00 0. -1.
         22    1    3    3    0    0 -0.12037856901E+03  0.31155554843E+02 -0.19886717514E+03  0.23454172725E+03  0.00000000000E+00 0.  1.
         22    1    3    3    0    0  0.32025032742E+02  0.96653890875E+01 -0.68623983706E+02  0.76343130719E+02  0.00000000000E+00 0.  1.
</event>
<event>
 7    1  0.6255318E-006  0.5485104E+02  0.7818608E-02  0.1434611E+00
          2   -1    0    0  502    0  0.00000000000E+00  0.00000000000E+00  0.16706118028E+03  0.16706118028E+03  0.00000000000E+00 0. -1.
          1   -1    0    0  501    0 -0.00000000000E+00 -0.00000000000E+00 -0.11598792995E+04  0.11598792995E+04  0.00000000000E+00 0. -1.
         25    2    1    2    0    0 -0.17517517377E+02 -0.78860225329E+02 -0.15212683710E+03  0.21282837571E+03  0.12501017713E+03 0.  0.
          2    1    1    2  501    0 -0.23803414722E+02  0.43268062515E+02 -0.97131042889E+03  0.97256499889E+03  0.00000000000E+00 0. -1.
          1    1    1    2  502    0  0.41320932100E+02  0.35592162814E+02  0.13061914678E+03  0.14154710519E+03  0.00000000000E+00 0. -1.
         22    1    3    3    0    0  0.17564639813E+01  0.10824243967E+02  0.17113981483E+02  0.20325791138E+02  0.00000000000E+00 0. -1.
         22    1    3    3    0    0 -0.19273981359E+02 -0.89684469296E+02 -0.16924081859E+03  0.19250258457E+03  0.00000000000E+00 0. -1.
</event>
<event>
 7    1  0.6255318E-006  0.1267492E+03  0.7818608E-02  0.1295985E+00
          2   -1    0    0  502    0  0.00000000000E+00  0.00000000000E+00  0.25041515032E+04  0.25041515032E+04  0.00000000000E+00 0. -1.
          1   -1    0    0  501    0 -0.00000000000E+00 -0.00000000000E+00 -0.66407037917E+03  0.66407037917E+03  0.00000000000E+00 0. -1.
         25    2    1    2    0    0 -0.16702221616E+03  0.53490430990E+01  0.24189850216E+03  0.31947687454E+03  0.12500222026E+03 0.  0.
          2    1    1    2  501    0  0.51809682094E+02  0.44174928971E+02 -0.62165277068E+03  0.62537015823E+03  0.00000000000E+00 0. -1.
          1    1    1    2  502    0  0.11521253406E+03 -0.49523972070E+02  0.22198353925E+04  0.22233748496E+04  0.00000000000E+00 0. -1.
         22    1    3    3    0    0 -0.15746233659E+03  0.43661930459E+02  0.22085514798E+03  0.27473213865E+03  0.00000000000E+00 0. -1.
         22    1    3    3    0    0 -0.95598795622E+01 -0.38312887360E+02  0.21043354177E+02  0.44744735892E+02  0.00000000000E+00 0. -1.
</event>
<event>
 7    1  0.6255318E-006  0.5071702E+02  0.7818608E-02  0.1521237E+00
          2   -1    0    0  502    0  0.00000000000E+00  0.00000000000E+00  0.10481827080E+03  0.10481827080E+03  0.00000000000E+00 0. -1.
          1   -1    0    0  501    0 -0.00000000000E+00 -0.00000000000E+00 -0.25062850226E+03  0.25062850226E+03  0.00000000000E+00 0. -1.
         25    2    1    2    0    0  0.65335853103E+02 -0.39484816730E+02 -0.59244824831E+02  0.15799100653E+03  0.12499353753E+03 0.  0.
          2    1    1    2  501    0 -0.27037620169E+02  0.10201337029E+02 -0.12962988593E+03  0.13281192532E+03  0.00000000000E+00 0. -1.
          1    1    1    2  502    0 -0.38298232934E+02  0.29283479701E+02  0.43064479302E+02  0.64643841213E+02  0.00000000000E+00 0. -1.
         22    1    3    3    0    0  0.17143665225E+01  0.63891215294E+01 -0.77235932696E+02  0.77518702427E+02  0.00000000000E+00 0. -1.
         22    1    3    3    0    0  0.63621486580E+02 -0.45873938259E+02  0.17991107865E+02  0.80472304107E+02  0.00000000000E+00 0. -1.
</event>
<event>
 7    1  0.6255318E-006  0.1502418E+03  0.7818608E-02  0.1262566E+00
          2   -1    0    0  502    0  0.00000000000E+00  0.00000000000E+00  0.15920995404E+04  0.15920995404E+04  0.00000000000E+00 0. -1.
          1   -1    0    0  501    0 -0.00000000000E+00 -0.00000000000E+00 -0.37619441058E+03  0.37619441058E+03  0.00000000000E+00 0. -1.
         25    2    1    2    0    0 -0.31106261284E+02 -0.84600657144E+02  0.72617708092E+02  0.17034204256E+03  0.12497283406E+03 0.  0.
          2    1    1    2  501    0  0.97159895665E+02  0.12789177769E+03 -0.30649062999E+03  0.34602436099E+03  0.00000000000E+00 0. -1.
          1    1    1    2  502    0 -0.66053634381E+02 -0.43291120546E+02  0.14497780517E+04  0.14519275474E+04  0.00000000000E+00 0. -1.
         22    1    3    3    0    0  0.40951978986E+02 -0.69117785694E+02  0.35788749459E+02  0.87949800852E+02  0.00000000000E+00 0. -1.
         22    1    3    3    0    0 -0.72058240269E+02 -0.15482871450E+02  0.36828958633E+02  0.82392241704E+02  0.00000000000E+00 0. -1.
</event>
<event>
 7    1  0.6255318E-006  0.6180030E+02  0.7818608E-02  0.1510730E+00
          2   -1    0    0  502    0  0.00000000000E+00  0.00000000000E+00  0.20816156326E+03  0.20816156326E+03  0.00000000000E+00 0. -1.
          1   -1    0    0  501    0 -0.00000000000E+00 -0.00000000000E+00 -0.13235277509E+03  0.13235277509E+03  0.00000000000E+00 0. -1.
         25    2    1    2    0    0 -0.46929429349E+02 -0.42140565900E+01  0.43365289535E+02  0.14044677378E+03  0.12499847326E+03 0.  0.
          2    1    1    2  501    0 -0.12504294225E+02 -0.22167871294E+02 -0.72373653097E+02  0.76718430344E+02  0.00000000000E+00 0. -1.
          1    1    1    2  502    0  0.59433723573E+02  0.26381927884E+02  0.10481715173E+03  0.12334913422E+03  0.00000000000E+00 0. -1.
         22    1    3    3    0    0 -0.24522732694E+02 -0.34366547112E+02  0.78421762449E+02  0.89064003979E+02  0.00000000000E+00 0. -1.
         22    1    3    3    0    0 -0.22406696654E+02  0.30152490522E+02 -0.35056472914E+02  0.51382769805E+02  0.00000000000E+00 0. -1.
</event>
<event>
 7    1  0.6255318E-006  0.7713386E+02  0.7818608E-02  0.1357712E+00
          2   -1    0    0  502    0  0.00000000000E+00  0.00000000000E+00  0.29790587051E+03  0.29790587051E+03  0.00000000000E+00 0. -1.
          1   -1    0    0  501    0 -0.00000000000E+00 -0.00000000000E+00 -0.15708030499E+03  0.15708030499E+03  0.00000000000E+00 0. -1.
         25    2    1    2    0    0 -0.27574279458E+02 -0.97522362834E+02  0.13061718680E+03  0.20726448552E+03  0.12500706112E+03 0.  0.
          2    1    1    2  501    0 -0.31235077133E+02  0.70282139055E+02 -0.96177964902E+02  0.12314791937E+03  0.00000000000E+00 0. -1.
          1    1    1    2  502    0  0.58809356591E+02  0.27240223779E+02  0.10638634362E+03  0.12457377061E+03  0.00000000000E+00 0. -1.
         22    1    3    3    0    0 -0.25668658240E+02 -0.12791388278E+03  0.10488021172E+03  0.16739384766E+03  0.00000000000E+00 0. -1.
         22    1    3    3    0    0 -0.19056212180E+01  0.30391519950E+02  0.25736975079E+02  0.39870637859E+02  0.00000000000E+00 0. -1.
</event>
<event>
 7    1  0.6255318E-006  0.5905563E+02  0.7818608E-02  0.1422621E+00
          2   -1    0    0  502    0  0.00000000000E+00  0.00000000000E+00  0.65907631869E+03  0.65907631869E+03  0.00000000000E+00 0. -1.
          1   -1    0    0  501    0 -0.00000000000E+00 -0.00000000000E+00 -0.19576630539E+03  0.19576630539E+03  0.00000000000E+00 0. -1.
         25    2    1    2    0    0 -0.79731065415E+02 -0.17725106634E+02  0.21113802160E+03  0.25860320108E+03  0.12500051699E+03 0.  0.
          2    1    1    2  501    0  0.26808324321E+02  0.42490676774E+02 -0.16629197833E+03  0.17371576187E+03  0.00000000000E+00 0. -1.
          1    1    1    2  502    0  0.52922741094E+02 -0.24765570140E+02  0.41846397004E+03  0.42252366112E+03  0.00000000000E+00 0. -1.
         22    1    3    3    0    0 -0.10037689834E+02  0.40180461328E+02  0.13184668791E+03  0.13819831331E+03  0.00000000000E+00 0.  1.
         22    1    3    3    0    0 -0.69693375581E+02 -0.57905567963E+02  0.79291333687E+02  0.12040488777E+03  0.00000000000E+00 0.  1.
</event>
<event>
 7    1  0.6255318E-006  0.1730231E+03  0.7818608E-02  0.1260835E+00
          2   -1    0    0  502    0  0.00000000000E+00  0.00000000000E+00  0.49391096735E+03  0.49391096735E+03  0.00000000000E+00 0. -1.
          1   -1    0    0  501    0 -0.00000000000E+00 -0.00000000000E+00 -0.25861193912E+04  0.25861193912E+04  0.00000000000E+00 0. -1.
         25    2    1    2    0    0  0.94169137987E+02 -0.92901685555E+02 -0.13051195879E+03  0.22395601352E+03  0.12499749948E+03 0.  0.
          2    1    1    2  501    0 -0.17468395406E+02 -0.67528154169E+02 -0.23906791116E+04  0.23916964295E+04  0.00000000000E+00 0. -1.
          1    1    1    2  502    0 -0.76700742581E+02  0.16042983972E+03  0.42898264652E+03  0.46437791550E+03  0.00000000000E+00 0. -1.
         22    1    3    3    0    0  0.56690464247E+02  0.13442265899E+02 -0.10348073816E+02  0.59174199452E+02  0.00000000000E+00 0. -1.
         22    1    3    3    0    0  0.37478673740E+02 -0.10634395145E+03 -0.12016388498E+03  0.16478181407E+03  0.00000000000E+00 0. -1.
</event>
<event>
 7    1  0.6255318E-006  0.1100075E+03  0.7818608E-02  0.1274578E+00
          2   -1    0    0  502    0  0.00000000000E+00  0.00000000000E+00  0.85705767560E+03  0.85705767560E+03  0.00000000000E+00 0. -1.
          1   -1    0    0  501    0 -0.00000000000E+00 -0.00000000000E+00 -0.45820731468E+03  0.45820731468E+03  0.00000000000E+00 0. -1.
         25    2    1    2    0    0 -0.10633843386E+03 -0.57874022139E+01 -0.12249696826E+03  0.20487119869E+03  0.12500137710E+03 0.  0.
          2    1    1    2  501    0  0.82741410506E+02 -0.87274889877E+02 -0.27925785856E+03  0.30405262535E+03  0.00000000000E+00 0. -1.
          1    1    1    2  502    0  0.23597023354E+02  0.93062292091E+02  0.80060518775E+03  0.80634116624E+03  0.00000000000E+00 0. -1.
         22    1    3    3    0    0 -0.15973584306E+02  0.53568924275E+02 -0.46589297018E+02  0.72769139340E+02  0.00000000000E+00 0.  1.
         22    1    3    3    0    0 -0.90364849555E+02 -0.59356326489E+02 -0.75907671246E+02  0.13210205935E+03  0.00000000000E+00 0.  1.
</event>
<event>
 7    1  0.6255318E-006  0.1574113E+03  0.7818608E-02  0.1334636E+00
          2   -1    0    0  502    0  0.00000000000E+00  0.00000000000E+00  0.49495541456E+03  0.49495541456E+03  0.00000000000E+00 0. -1.
          1   -1    0    0  501    0 -0.00000000000E+00 -0.00000000000E+00 -0.81584442619E+03  0.81584442619E+03  0.00000000000E+00 0. -1.
         25    2    1    2    0    0  0.76434516580E+02 -0.12446859628E+03 -0.15731609457E+03  0.24841091177E+03  0.12499984277E+03 0.  0.
          2    1    1    2  501    0 -0.50066111571E+02  0.15281453945E+03 -0.60156602057E+03  0.62268818529E+03  0.00000000000E+00 0. -1.
          1    1    1    2  502    0 -0.26368405009E+02 -0.28345943171E+02  0.43799310351E+03  0.43970074369E+03  0.00000000000E+00 0. -1.
         22    1    3    3    0    0 -0.88303742325E+01 -0.25926921446E+01 -0.80464834782E+02  0.80989426459E+02  0.00000000000E+00 0. -1.
         22    1    3    3    0    0  0.85264890812E+02 -0.12187590413E+03 -0.76851259783E+02  0.16742148531E+03  0.00000000000E+00 0. -1.
</event>
<event>
 7    1  0.6255318E-006  0.7859980E+02  0.7818608E-02  0.1401783E+00
          2   -1    0    0  502    0  0.00000000000E+00  0.00000000000E+00  0.40223841280E+03  0.40223841280E+03  0.00000000000E+00 0. -1.
          1   -1    0    0  501    0 -0.00000000000E+00 -0.00000000000E+00 -0.13762168208E+03  0.13762168208E+03  0.00000000000E+00 0. -1.
         25    2    1    2    0    0 -0.24528349102E+02 -0.11628957890E+03  0.71773160657E+02  0.18681744178E+03  0.12499785555E+03 0.  0.
          2    1    1    2  501    0  0.14137703260E+02  0.42078859549E+02 -0.68245889417E+02  0.81412569648E+02  0.00000000000E+00 0. -1.
          1    1    1    2  502    0  0.10390645841E+02  0.74210719353E+02  0.26108945948E+03  0.27163008346E+03  0.00000000000E+00 0. -1.
         22    1    3    3    0    0 -0.55151663416E+01 -0.17187789930E+01 -0.31122852629E+02  0.31654434394E+02  0.00000000000E+00 0. -1.
         22    1    3    3    0    0 -0.19013182760E+02 -0.11457079991E+03  0.10289601329E+03  0.15516300739E+03  0.00000000000E+00 0. -1.
</event>
<event>
 7    1  0.6255318E-006  0.1137693E+03  0.7818608E-02  0.1368806E+00
          2   -1    0    0  502    0  0.00000000000E+00  0.00000000000E+00  0.51167573047E+03  0.51167573047E+03  0.00000000000E+00 0. -1.
          1   -1    0    0  501    0 -0.00000000000E+00 -0.00000000000E+00 -0.67473098658E+03  0.67473098658E+03  0.00000000000E+00 0. -1.
         25    2    1    2    0    0 -0.92260907793E+01 -0.12717783152E+03 -0.22650925228E+03  0.28842955120E+03  0.12500337219E+03 0.  0.
          2    1    1    2  501    0 -0.33496129353E+02  0.21951792839E+02 -0.40956368945E+03  0.41151705627E+03  0.00000000000E+00 0. -1.
          1    1    1    2  502    0  0.42722220133E+02  0.10522603868E+03  0.47301768561E+03  0.48646010958E+03  0.00000000000E+00 0. -1.
         22    1    3    3    0    0  0.26562093182E+02 -0.13157808045E+03 -0.20888099207E+03  0.24829338472E+03  0.00000000000E+00 0.  1.
         22    1    3    3    0    0 -0.35788183962E+02  0.44002489296E+01 -0.17628260209E+02  0.40136166483E+02  0.00000000000E+00 0.  1.
</event>
<event>
 7    1  0.6255318E-006  0.3631759E+02  0.7818608E-02  0.1591657E+00
          2   -1    0    0  502    0  0.00000000000E+00  0.00000000000E+00  0.41695418336E+02  0.41695418336E+02  0.00000000000E+00 0. -1.
          1   -1    0    0  501    0 -0.00000000000E+00 -0.00000000000E+00 -0.61967659088E+03  0.61967659088E+03  0.00000000000E+00 0. -1.
         25    2    1    2    0    0 -0.39145597149E+00 -0.50020437084E+02 -0.24614628164E+03  0.28056340738E+03  0.12500254491E+03 0.  0.
          2    1    1    2  501    0 -0.17417129759E+02  0.31399802160E+02 -0.34835561374E+03  0.35020128157E+03  0.00000000000E+00 0. -1.
          1    1    1    2  502    0  0.17808585731E+02  0.18620634924E+02  0.16520722839E+02  0.30607320266E+02  0.00000000000E+00 0. -1.
         22    1    3    3    0    0 -0.44272887681E+02  0.38399257749E+01 -0.30232552708E+02  0.53747938163E+02  0.00000000000E+00 0.  1.
         22    1    3    3    0    0  0.43881431709E+02 -0.53860362859E+02 -0.21591372893E+03  0.22681546922E+03  0.00000000000E+00 0.  1.
</event>
<event>
 7    1  0.6255318E-006  0.1719321E+03  0.7818608E-02  0.1179186E+00
          2   -1    0    0  502    0  0.00000000000E+00  0.00000000000E+00  0.71487470172E+03  0.71487470172E+03  0.00000000000E+00 0. -1.
          1   -1    0    0  501    0 -0.00000000000E+00 -0.00000000000E+00 -0.26010761327E+04  0.26010761327E+04  0.00000000000E+00 0. -1.
         25    2    1    2    0    0  0.18405757185E+03  0.99783028120E+02 -0.90803631263E+03  0.94020671952E+03  0.12499955167E+03 0.  0.
          2    1    1    2  501    0 -0.24031598417E+02 -0.16382009619E+03 -0.16621497480E+04  0.16703761032E+04  0.00000000000E+00 0. -1.
          1    1    1    2  502    0 -0.16002597343E+03  0.64037068073E+02  0.68398462963E+03  0.70536801163E+03  0.00000000000E+00 0. -1.
         22    1    3    3    0    0  0.18225521100E+03  0.44869961483E+02 -0.73908082049E+03  0.76254228380E+03  0.00000000000E+00 0. -1.
         22    1    3    3    0    0  0.18023608494E+01  0.54913066637E+02 -0.16895549214E+03  0.17766443571E+03  0.00000000000E+00 0. -1.
</event>
<event>
 7    1  0.6255318E-006  0.2071419E+03  0.7818608E-02  0.1283369E+00
          2   -1    0    0  502    0  0.00000000000E+00  0.00000000000E+00  0.37777765641E+03  0.37777765641E+03  0.00000000000E+00 0. -1.
          1   -1    0    0  501    0 -0.00000000000E+00 -0.00000000000E+00 -0.10132264410E+04  0.10132264410E+04  0.00000000000E+00 0. -1.
         25    2    1    2    0    0 -0.15141496404E+03 -0.16830705116E+03 -0.13319953138E+02  0.25895171197E+03  0.12499925269E+03 0.  0.
          2    1    1    2  501    0  0.16456272762E+03  0.12329919889E+03 -0.86274416688E+03  0.88691097708E+03  0.00000000000E+00 0. -1.
          1    1    1    2  502    0 -0.13147763582E+02  0.45007852273E+02  0.24061533543E+03  0.24514140837E+03  0.00000000000E+00 0. -1.
         22    1    3    3    0    0 -0.27317992625E+02 -0.10019681554E+03  0.34655411609E+02  0.10948366142E+03  0.00000000000E+00 0. -1.
         22    1    3    3    0    0 -0.12409697141E+03 -0.68110235628E+02 -0.47975364747E+02  0.14946805055E+03  0.00000000000E+00 0. -1.
</event>
<event>
 7    1  0.6255318E-006  0.4368810E+02  0.7818608E-02  0.1537851E+00
          2   -1    0    0  502    0  0.00000000000E+00  0.00000000000E+00  0.12918624554E+03  0.12918624554E+03  0.00000000000E+00 0. -1.
          1   -1    0    0  501    0 -0.00000000000E+00 -0.00000000000E+00 -0.55747785030E+03  0.55747785030E+03  0.00000000000E+00 0. -1.
         25    2    1    2    0    0 -0.48304314030E+02  0.30325268796E+02 -0.23054318219E+03  0.26838137803E+03  0.12500190613E+03 0.  0.
          2    1    1    2  501    0  0.28788523653E+02  0.86600407266E+01 -0.30293291490E+03  0.30442096893E+03  0.00000000000E+00 0. -1.
          1    1    1    2  502    0  0.19515790377E+02 -0.38985309522E+02  0.10518449232E+03  0.11386174888E+03  0.00000000000E+00 0. -1.
         22    1    3    3    0    0 -0.84012637439E+02  0.24383523167E+01 -0.18927395715E+03  0.20709587071E+03  0.00000000000E+00 0.  1.
         22    1    3    3    0    0  0.35708323409E+02  0.27886916479E+02 -0.41269225047E+02  0.61285507319E+02  0.00000000000E+00 0.  1.
</event>
<event>
 7    1  0.6255318E-006  0.7967740E+02  0.7818608E-02  0.1390647E+00
          2   -1    0    0  502    0  0.00000000000E+00  0.00000000000E+00  0.28141926472E+03  0.28141926472E+03  0.00000000000E+00 0. -1.
          1   -1    0    0  501    0 -0.00000000000E+00 -0.00000000000E+00 -0.87530514061E+03  0.87530514061E+03  0.00000000000E+00 0. -1.
         25    2    1    2    0    0 -0.68240869709E+02 -0.50797803415E+02 -0.33578622813E+02  0.15488380456E+03  0.12499694347E+03 0.  0.
          2    1    1    2  501    0 -0.11913196682E+02  0.46343262907E+02 -0.77301172738E+03  0.77449128654E+03  0.00000000000E+00 0. -1.
          1    1    1    2  502    0  0.80154066391E+02  0.44545405083E+01  0.21270447430E+03  0.22734931423E+03  0.00000000000E+00 0. -1.
         22    1    3    3    0    0 -0.16132059104E+02 -0.86514939231E+02 -0.20766040842E+02  0.90422931236E+02  0.00000000000E+00 0. -1.
         22    1    3    3    0    0 -0.52108810605E+02  0.35717135816E+02 -0.12812581972E+02  0.64460873329E+02  0.00000000000E+00 0. -1.
</event>
<event>
 7    1  0.6255318E-006  0.8182151E+02  0.7818608E-02  0.1406335E+00
          2   -1    0    0  502    0  0.00000000000E+00  0.00000000000E+00  0.17002707504E+03  0.17002707504E+03  0.00000000000E+00 0. -1.
          1   -1    0    0  501    0 -0.00000000000E+00 -0.00000000000E+00 -0.68831978727E+03  0.68831978727E+03  0.00000000000E+00 0. -1.
         25    2    1    2    0    0 -0.75882795178E+02  0.65562300117E+01 -0.36653252487E+03  0.39468074762E+03  0.12500247199E+03 0.  0.
          2    1    1    2  501    0  0.73108145605E+02 -0.47604468877E+02 -0.29864579909E+03  0.31112746540E+03  0.00000000000E+00 0. -1.
          1    1    1    2  502    0  0.27746495728E+01  0.41048238865E+02  0.14688561173E+03  0.15253864929E+03  0.00000000000E+00 0. -1.
         22    1    3    3    0    0 -0.10414579052E+02  0.20180596836E+02 -0.29822996908E+03  0.29909335399E+03  0.00000000000E+00 0.  1.
         22    1    3    3    0    0 -0.65468216126E+02 -0.13624366824E+02 -0.68302555787E+02  0.95587393631E+02  0.00000000000E+00 0.  1.
</event>
<event>
 7    1  0.6255318E-006  0.5627814E+02  0.7818608E-02  0.1557165E+00
          2   -1    0    0  502    0  0.00000000000E+00  0.00000000000E+00  0.76565827578E+03  0.76565827578E+03  0.00000000000E+00 0. -1.
          1   -1    0    0  501    0 -0.00000000000E+00 -0.00000000000E+00 -0.13372001108E+04  0.13372001108E+04  0.00000000000E+00 0. -1.
         25    2    1    2    0    0  0.19659247393E+02  0.33185377746E+02  0.16550652537E+03  0.21096359627E+03  0.12500189481E+03 0.  0.
          2    1    1    2  501    0  0.17845470382E+02  0.10303102596E+02 -0.13129626986E+04  0.13131243897E+04  0.00000000000E+00 0. -1.
          1    1    1    2  502    0 -0.37504717776E+02 -0.43488480342E+02  0.57591433820E+03  0.57877040069E+03  0.00000000000E+00 0. -1.
         22    1    3    3    0    0 -0.29879314180E+02 -0.27466590687E+02  0.10318601103E+03  0.11088074626E+03  0.00000000000E+00 0.  1.
         22    1    3    3    0    0  0.49538561574E+02  0.60651968433E+02  0.62320514340E+02  0.10008285001E+03  0.00000000000E+00 0.  1.
</event>
<event>
 7    1  0.6255318E-006  0.4707476E+02  0.7818608E-02  0.1564568E+00
          2   -1    0    0  502    0  0.00000000000E+00  0.00000000000E+00  0.23405426606E+03  0.23405426606E+03  0.00000000000E+00 0. -1.
          1   -1    0    0  501    0 -0.00000000000E+00 -0.00000000000E+00 -0.28364411858E+03  0.28364411858E+03  0.00000000000E+00 0. -1.
         25    2    1    2    0    0 -0.27180425165E+01  0.51027342571E+02  0.12726746264E+03  0.18556044788E+03  0.12499798130E+03 0.  0.
          2    1    1    2  501    0 -0.19352828698E+02 -0.42937194155E+02 -0.25047186666E+03  0.25486131642E+03  0.00000000000E+00 0. -1.
          1    1    1    2  502    0  0.22070871214E+02 -0.80901484163E+01  0.73614551506E+02  0.77276620338E+02  0.00000000000E+00 0. -1.
         22    1    3    3    0    0 -0.12127147098E+02 -0.34376737586E+02  0.60062345749E+01  0.36944588745E+02  0.00000000000E+00 0. -1.
         22    1    3    3    0    0  0.94091045811E+01  0.85404080157E+02  0.12126122806E+03  0.14861585914E+03  0.00000000000E+00 0. -1.
</event>
<event>
 7    1  0.6255318E-006  0.9661114E+02  0.7818608E-02  0.1445116E+00
          2   -1    0    0  502    0  0.00000000000E+00  0.00000000000E+00  0.45203738332E+03  0.45203738332E+03  0.00000000000E+00 0. -1.
          1   -1    0    0  501    0 -0.00000000000E+00 -0.00000000000E+00 -0.74893802008E+02  0.74893802008E+02  0.00000000000E+00 0. -1.
         25    2    1    2    0    0 -0.79915097810E+02  0.43557480038E+02  0.21394326661E+03  0.26397053062E+03  0.12500017113E+03 0.  0.
          2    1    1    2  501    0  0.67430828740E+01  0.25027875231E+02 -0.33387982489E+02  0.42268440709E+02  0.00000000000E+00 0. -1.
          1    1    1    2  502    0  0.73172014936E+02 -0.68585355269E+02  0.19658829720E+03  0.22069221400E+03  0.00000000000E+00 0. -1.
         22    1    3    3    0    0 -0.77722568332E+02  0.72251546050E+02  0.97788965174E+02  0.14430441866E+03  0.00000000000E+00 0.  1.
         22    1    3    3    0    0 -0.21925294783E+01 -0.28694066013E+02  0.11615430143E+03  0.11966611196E+03  0.00000000000E+00 0.  1.
</event>
<event>
 7    1  0.6255318E-006  0.9561416E+02  0.7818608E-02  0.1401274E+00
          2   -1    0    0  502    0  0.00000000000E+00  0.00000000000E+00  0.17389780056E+04  0.17389780056E+04  0.00000000000E+00 0. -1.
          1   -1    0    0  501    0 -0.00000000000E+00 -0.00000000000E+00 -0.12086690761E+03  0.12086690761E+03  0.00000000000E+00 0. -1.
         25    2    1    2    0    0  0.50079642815E+02 -0.11295679481E+03  0.66117470439E+03  0.68413879390E+03  0.12500676570E+03 0.  0.
          2    1    1    2  501    0 -0.55706378241E+02  0.76753189565E+02 -0.88447014227E+02  0.12968086602E+03  0.00000000000E+00 0. -1.
          1    1    1    2  502    0  0.56267354264E+01  0.36203605248E+02  0.10453834078E+04  0.10460252533E+04  0.00000000000E+00 0. -1.
         22    1    3    3    0    0  0.16963210890E+02  0.73147043423E+01  0.32565833413E+03  0.32618186033E+03  0.00000000000E+00 0. -1.
         22    1    3    3    0    0  0.33116431925E+02 -0.12027149916E+03  0.33551637026E+03  0.35795693357E+03  0.00000000000E+00 0. -1.
</event>
<event>
 7    1  0.6255318E-006  0.1077583E+03  0.7818608E-02  0.1270006E+00
          2   -1    0    0  502    0  0.00000000000E+00  0.00000000000E+00  0.91999409676E+03  0.91999409676E+03  0.00000000000E+00 0. -1.
          1   -1    0    0  501    0 -0.00000000000E+00 -0.00000000000E+00 -0.76293200891E+03  0.76293200891E+03  0.00000000000E+00 0. -1.
         25    2    1    2    0    0 -0.22873070877E+02  0.24801766436E+02  0.10746107672E+02  0.12991743306E+03  0.12499902237E+03 0.  0.
          2    1    1    2  501    0  0.11002741739E+03  0.29002356859E+02 -0.69562033037E+03  0.70486510291E+03  0.00000000000E+00 0. -1.
          1    1    1    2  502    0 -0.87154346513E+02 -0.53804123295E+02  0.84193631055E+03  0.84814356970E+03  0.00000000000E+00 0. -1.
         22    1    3    3    0    0  0.29453322960E+02 -0.25871134948E+02 -0.27268661293E+02  0.47753468414E+02  0.00000000000E+00 0.  1.
         22    1    3    3    0    0 -0.52326393837E+02  0.50672901384E+02  0.38014768965E+02  0.82163964644E+02  0.00000000000E+00 0.  1.
</event>
<event>
 7    1  0.6255318E-006  0.8618694E+02  0.7818608E-02  0.1327189E+00
          2   -1    0    0  502    0  0.00000000000E+00  0.00000000000E+00  0.12827165484E+04  0.12827165484E+04  0.00000000000E+00 0. -1.
          1   -1    0    0  501    0 -0.00000000000E+00 -0.00000000000E+00 -0.36463572588E+03  0.36463572588E+03  0.00000000000E+00 0. -1.
         25    2    1    2    0    0 -0.10412820407E+03 -0.43578916825E+02  0.37373396087E+03  0.40993200591E+03  0.12500148435E+03 0.  0.
          2    1    1    2  501    0  0.67299783578E+02 -0.34191649118E+02 -0.34031330471E+03  0.34858496110E+03  0.00000000000E+00 0. -1.
          1    1    1    2  502    0  0.36828420494E+02  0.77770565943E+02  0.88466016638E+03  0.88883530728E+03  0.00000000000E+00 0. -1.
         22    1    3    3    0    0 -0.29768909960E+02 -0.49459514115E+02  0.45990613492E+02  0.73807642328E+02  0.00000000000E+00 0. -1.
         22    1    3    3    0    0 -0.74359294112E+02  0.58805972899E+01  0.32774334738E+03  0.33612436358E+03  0.00000000000E+00 0. -1.
</event>
<event>
 7    1  0.6255318E-006  0.1200216E+03  0.7818608E-02  0.1358632E+00
          2   -1    0    0  502    0  0.00000000000E+00  0.00000000000E+00  0.25033527219E+04  0.25033527219E+04  0.00000000000E+00 0. -1.
          1   -1    0    0  501    0 -0.00000000000E+00 -0.00000000000E+00 -0.10560080159E+03  0.10560080159E+03  0.00000000000E+00 0. -1.
         25    2    1    2    0    0 -0.10812067838E+03 -0.35322649383E+02  0.17027289603E+04  0.17110957050E+04  0.12499931483E+03 0.  0.
          2    1    1    2  501    0  0.12869899644E+01 -0.41310689046E+02 -0.91510560947E+02  0.10041121520E+03  0.00000000000E+00 0. -1.
          1    1    1    2  502    0  0.10683368842E+03  0.76633338429E+02  0.78653352093E+03  0.79744660328E+03  0.00000000000E+00 0. -1.
         22    1    3    3    0    0  0.15703578954E+02 -0.34501272212E+02  0.22339207056E+03  0.22658543061E+03  0.00000000000E+00 0. -1.
         22    1    3    3    0    0 -0.12382425733E+03 -0.82137717109E+00  0.14793368898E+04  0.14845102744E+04  0.00000000000E+00 0. -1.
</event>
<event>
 7    1  0.6255318E-006  0.5594038E+02  0.7818608E-02  0.1460603E+00
          2   -1    0    0  502    0  0.00000000000E+00  0.00000000000E+00  0.53922497563E+03  0.53922497563E+03  0.00000000000E+00 0. -1.
          1   -1    0    0  501    0 -0.00000000000E+00 -0.00000000000E+00 -0.13983424863E+03  0.13983424863E+03  0.00000000000E+00 0. -1.
         25    2    1    2    0    0 -0.50192788745E+02  0.80570517049E+02  0.24422670233E+03  0.29031457367E+03  0.12499978118E+03 0.  0.
          2    1    1    2  501    0  0.28359946760E+02 -0.47106169748E+02 -0.10873039261E+03  0.12184242317E+03  0.00000000000E+00 0. -1.
          1    1    1    2  502    0  0.21832841985E+02 -0.33464347302E+02  0.26389441727E+03  0.26690222741E+03  0.00000000000E+00 0. -1.
         22    1    3    3    0    0  0.19515076691E+02 -0.89742578633E+00 -0.39820727369E+01  0.19937414440E+02  0.00000000000E+00 0.  1.
         22    1    3    3    0    0 -0.69707865435E+02  0.81467942836E+02  0.24820877507E+03  0.27037715923E+03  0.00000000000E+00 0.  1.
</event>
<event>
 7    1  0.6255318E-006  0.1567344E+03  0.7818608E-02  0.1241066E+00
          2   -1    0    0  502    0  0.00000000000E+00  0.00000000000E+00  0.10499823772E+03  0.10499823772E+03  0.00000000000E+00 0. -1.
          1   -1    0    0  501    0 -0.00000000000E+00 -0.00000000000E+00 -0.51346034529E+03  0.51346034529E+03  0.00000000000E+00 0. -1.
         25    2    1    2    0    0  0.19674507780E+03  0.20143266362E+02 -0.18901338940E+03  0.30077491235E+03  0.12500043885E+03 0.  0.
          2    1    1    2  501    0 -0.81517302663E+02  0.46370255550E+02 -0.66513239698E+02  0.11497513770E+03  0.00000000000E+00 0. -1.
          1    1    1    2  502    0 -0.11522777513E+03 -0.66513521912E+02 -0.15293547847E+03  0.20270853296E+03  0.00000000000E+00 0. -1.
         22    1    3    3    0    0  0.21389525942E+03  0.26067511671E+02 -0.16973117717E+03  0.27429795783E+03  0.00000000000E+00 0. -1.
         22    1    3    3    0    0 -0.17150181626E+02 -0.59242453090E+01 -0.19282212229E+02  0.26476954521E+02  0.00000000000E+00 0. -1.
</event>
<event>
 7    1  0.6255318E-006  0.7207656E+02  0.7818608E-02  0.1383389E+00
          2   -1    0    0  502    0  0.00000000000E+00  0.00000000000E+00  0.17683136880E+04  0.17683136880E+04  0.00000000000E+00 0. -1.
          1   -1    0    0  501    0 -0.00000000000E+00 -0.00000000000E+00 -0.17267008225E+03  0.17267008225E+03  0.00000000000E+00 0. -1.
         25    2    1    2    0    0  0.48604124404E+02 -0.34374905326E+02  0.75254072850E+03  0.76517135656E+03  0.12500264724E+03 0.  0.
          2    1    1    2  501    0 -0.70766010904E+01  0.72074071807E+02 -0.15765027969E+03  0.17348879156E+03  0.00000000000E+00 0. -1.
          1    1    1    2  502    0 -0.41527523314E+02 -0.37699166481E+02  0.10007531569E+04  0.10023236221E+04  0.00000000000E+00 0. -1.
         22    1    3    3    0    0  0.84096585764E+02 -0.34060965998E+02  0.65728181101E+03  0.66351470536E+03  0.00000000000E+00 0.  1.
         22    1    3    3    0    0 -0.35492461360E+02 -0.31393932852E+00  0.95258917486E+02  0.10165665119E+03  0.00000000000E+00 0.  1.
</event>
<event>
 7    1  0.6255318E-006  0.8135279E+02  0.7818608E-02  0.1480181E+00
          2   -1    0    0  502    0  0.00000000000E+00  0.00000000000E+00  0.76947986150E+02  0.76947986150E+02  0.00000000000E+00 0. -1.
          1   -1    0    0  501    0 -0.00000000000E+00 -0.00000000000E+00 -0.74717350430E+03  0.74717350430E+03  0.00000000000E+00 0. -1.
         25    2    1    2    0    0  0.88224352814E+02 -0.28392304483E+02 -0.10108489440E+03  0.18555841610E+03  0.12499644205E+03 0.  0.
          2    1    1    2  501    0 -0.20855979214E+02 -0.11635108155E+02 -0.55904269184E+03  0.55955257028E+03  0.00000000000E+00 0. -1.
          1    1    1    2  502    0 -0.67368373600E+02  0.40027412638E+02 -0.10097931905E+02  0.79010504066E+02  0.00000000000E+00 0. -1.
         22    1    3    3    0    0  0.73827594280E+02  0.10840087800E+02  0.16621801299E+01  0.74637685009E+02  0.00000000000E+00 0. -1.
         22    1    3    3    0    0  0.14396758534E+02 -0.39232392283E+02 -0.10274707453E+03  0.11092073109E+03  0.00000000000E+00 0. -1.
</event>
<event>
 7    1  0.6255318E-006  0.6199274E+02  0.7818608E-02  0.1463577E+00
          2   -1    0    0  502    0  0.00000000000E+00  0.00000000000E+00  0.12205966922E+04  0.12205966922E+04  0.00000000000E+00 0. -1.
          1   -1    0    0  501    0 -0.00000000000E+00 -0.00000000000E+00 -0.22354957336E+03  0.22354957336E+03  0.00000000000E+00 0. -1.
         25    2    1    2    0    0  0.11918063649E+02 -0.76706940944E+02  0.11473370004E+03  0.18658833084E+03  0.12500155299E+03 0.  0.
          2    1    1    2  501    0 -0.30489231498E+02  0.17765167829E+02 -0.18506139842E+03  0.18839563585E+03  0.00000000000E+00 0. -1.
          1    1    1    2  502    0  0.18571167849E+02  0.58941773115E+02  0.10673748172E+04  0.10691622989E+04  0.00000000000E+00 0. -1.
         22    1    3    3    0    0 -0.64612999052E+01 -0.78368057784E+02  0.13682007021E+03  0.15780694690E+03  0.00000000000E+00 0. -1.
         22    1    3    3    0    0  0.18379363554E+02  0.16611168404E+01 -0.22086370176E+02  0.28781383937E+02  0.00000000000E+00 0. -1.
</event>
<event>
 7    1  0.6255318E-006  0.3909946E+02  0.7818608E-02  0.1579697E+00
          2   -1    0    0  502    0  0.00000000000E+00  0.00000000000E+00  0.22535004914E+04  0.22535004914E+04  0.00000000000E+00 0. -1.
          1   -1    0    0  501    0 -0.00000000000E+00 -0.00000000000E+00 -0.82214879160E+02  0.82214879160E+02  0.00000000000E+00 0. -1.
         25    2    1    2    0    0 -0.59659441555E+02 -0.17618130709E+02  0.51149904987E+03  0.53020010495E+03  0.12494489096E+03 0.  0.
          2    1    1    2  501    0  0.38802870502E+02  0.25115901060E+01 -0.67573907433E+02  0.77962836081E+02  0.00000000000E+00 0. -1.
          1    1    1    2  502    0  0.20856571053E+02  0.15106540603E+02  0.17273604698E+04  0.17275524295E+04  0.00000000000E+00 0. -1.
         22    1    3    3    0    0 -0.82670975656E+02  0.14259321528E+02  0.44588944247E+03  0.45371269916E+03  0.00000000000E+00 0. -1.
         22    1    3    3    0    0  0.23011534101E+02 -0.31877452237E+02  0.65609607397E+02  0.76487405797E+02  0.00000000000E+00 0. -1.
</event>
<event>
 7    1  0.6255318E-006  0.1786899E+03  0.7818608E-02  0.1314085E+00
          2   -1    0    0  502    0  0.00000000000E+00  0.00000000000E+00  0.13626350854E+04  0.13626350854E+04  0.00000000000E+00 0. -1.
          1   -1    0    0  501    0 -0.00000000000E+00 -0.00000000000E+00 -0.12414290224E+04  0.12414290224E+04  0.00000000000E+00 0. -1.
         25    2    1    2    0    0 -0.13653120287E+03  0.60995097035E+02 -0.17571911886E+03  0.26242042846E+03  0.12500440520E+03 0.  0.
          2    1    1    2  501    0  0.17668821682E+03 -0.53094538332E+02 -0.10137138883E+04  0.10303657619E+04  0.00000000000E+00 0. -1.
          1    1    1    2  502    0 -0.40157013945E+02 -0.79005587030E+01  0.13106390702E+04  0.13112779175E+04  0.00000000000E+00 0. -1.
         22    1    3    3    0    0 -0.77308260430E+02 -0.91304467996E+01 -0.14683751376E+03  0.16619623232E+03  0.00000000000E+00 0.  1.
         22    1    3    3    0    0 -0.59222942441E+02  0.70125543834E+02 -0.28881605098E+02  0.96224196138E+02  0.00000000000E+00 0.  1.
</event>
<event>
 7    1  0.6255318E-006  0.4638067E+02  0.7818608E-02  0.1493949E+00
          2   -1    0    0  502    0  0.00000000000E+00  0.00000000000E+00  0.68830139094E+03  0.68830139094E+03  0.00000000000E+00 0. -1.
          1   -1    0    0  501    0 -0.00000000000E+00 -0.00000000000E+00 -0.18131398693E+04  0.18131398693E+04  0.00000000000E+00 0. -1.
         25    2    1    2    0    0 -0.62390675442E+01 -0.41319510549E+02 -0.36374938539E+02  0.13672563248E+03  0.12499813802E+03 0.  0.
          2    1    1    2  501    0 -0.33781686319E+02  0.17495972406E+02 -0.17255297984E+04  0.17259491292E+04  0.00000000000E+00 0. -1.
          1    1    1    2  502    0  0.40020753864E+02  0.23823538143E+02  0.63706625864E+03  0.63876649850E+03  0.00000000000E+00 0. -1.
         22    1    3    3    0    0 -0.40168720597E+02  0.81144397237E+01 -0.59682194521E+02  0.72397062021E+02  0.00000000000E+00 0. -1.
         22    1    3    3    0    0  0.33929653053E+02 -0.49433950273E+02  0.23307255982E+02  0.64328570458E+02  0.00000000000E+00 0. -1.
</event>
<event>
 7    1  0.6255318E-006  0.8881286E+02  0.7818608E-02  0.1344013E+00
          2   -1    0    0  502    0  0.00000000000E+00  0.00000000000E+00  0.91748232850E+03  0.91748232850E+03  0.00000000000E+00 0. -1.
          1   -1    0    0  501    0 -0.00000000000E+00 -0.00000000000E+00 -0.20231169636E+03  0.20231169636E+03  0.00000000000E+00 0. -1.
         25    2    1    2    0    0 -0.10834902774E+03 -0.86804275687E+02  0.51857776040E+03  0.55120168189E+03  0.12500362572E+03 0.  0.
          2    1    1    2  501    0  0.42654661340E+02  0.46713493437E+02 -0.17657856709E+03  0.18756748374E+03  0.00000000000E+00 0. -1.
          1    1    1    2  502    0  0.65694366398E+02  0.40090782250E+02  0.37317143882E+03  0.38102485923E+03  0.00000000000E+00 0. -1.
         22    1    3    3    0    0 -0.43305095518E+02 -0.96616459977E+02  0.41664145563E+03  0.42988390780E+03  0.00000000000E+00 0.  1.
         22    1    3    3    0    0 -0.65043932221E+02  0.98121842900E+01  0.10193630477E+03  0.12131777409E+03  0.00000000000E+00 0.  1.
</event>
<event>
 7    1  0.6255318E-006  0.8071138E+02  0.7818608E-02  0.1388760E+00
          2   -1    0    0  502    0  0.00000000000E+00  0.00000000000E+00  0.83289516405E+03  0.83289516405E+03  0.00000000000E+00 0. -1.
          1   -1    0    0  501    0 -0.00000000000E+00 -0.00000000000E+00 -0.19298473303E+03  0.19298473303E+03  0.00000000000E+00 0. -1.
         25    2    1    2    0    0  0.23662617904E+02  0.99051639308E+02  0.33278446888E+03  0.36978554273E+03  0.12499879260E+03 0.  0.
          2    1    1    2  501    0 -0.52636472245E+02 -0.60833934679E+02 -0.16392934529E+03  0.18260393223E+03  0.00000000000E+00 0. -1.
          1    1    1    2  502    0  0.28973854341E+02 -0.38217704628E+02  0.47105530743E+03  0.47349042212E+03  0.00000000000E+00 0. -1.
         22    1    3    3    0    0 -0.13786982655E+02  0.11829303956E+03  0.24921468162E+03  0.27620876459E+03  0.00000000000E+00 0.  1.
         22    1    3    3    0    0  0.37449600559E+02 -0.19241400253E+02  0.83569787257E+02  0.93576778145E+02  0.00000000000E+00 0.  1.
</event>
<event>
 7    1  0.6255318E-006  0.5857604E+02  0.7818608E-02  0.1488378E+00
          2   -1    0    0  502    0  0.00000000000E+00  0.00000000000E+00  0.81016339998E+03  0.81016339998E+03  0.00000000000E+00 0. -1.
          1   -1    0    0  501    0 -0.00000000000E+00 -0.00000000000E+00 -0.37050422802E+03  0.37050422802E+03  0.00000000000E+00 0. -1.
         25    2    1    2    0    0  0.45045815629E+02  0.65989209580E+02  0.26208945313E+03  0.30116437409E+03  0.12500158994E+03 0.  0.
          2    1    1    2  501    0  0.41331351952E+00 -0.31310313920E+02 -0.34871685905E+03  0.35011991428E+03  0.00000000000E+00 0. -1.
          1    1    1    2  502    0 -0.45459129148E+02 -0.34678895659E+02  0.52628657788E+03  0.52938333964E+03  0.00000000000E+00 0. -1.
         22    1    3    3    0    0  0.88091935059E+02  0.44497483313E+02  0.19565976954E+03  0.21914141658E+03  0.00000000000E+00 0.  1.
         22    1    3    3    0    0 -0.43046119430E+02  0.21491726267E+02  0.66429683597E+02  0.82022957510E+02  0.00000000000E+00 0.  1.
</event>
<event>
 7    1  0.6255318E-006  0.1454663E+03  0.7818608E-02  0.1328564E+00
          2   -1    0    0  502    0  0.00000000000E+00  0.00000000000E+00  0.21231669640E+03  0.21231669640E+03  0.00000000000E+00 0. -1.
          1   -1    0    0  501    0 -0.00000000000E+00 -0.00000000000E+00 -0.10629395914E+04  0.10629395914E+04  0.00000000000E+00 0. -1.
         25    2    1    2    0    0  0.11093401346E+03 -0.37019571038E+02 -0.75559855644E+02  0.18711316851E+03  0.12500096824E+03 0.  0.
          2    1    1    2  501    0 -0.12652480408E+03  0.78363348363E+02 -0.92239691407E+03  0.93432617832E+03  0.00000000000E+00 0. -1.
          1    1    1    2  502    0  0.15590790621E+02 -0.41343777325E+02  0.14733387474E+03  0.15381694095E+03  0.00000000000E+00 0. -1.
         22    1    3    3    0    0  0.51859928045E+02 -0.19059159799E+02 -0.10504569278E+03  0.11868993757E+03  0.00000000000E+00 0.  1.
         22    1    3    3    0    0  0.59074085417E+02 -0.17960411240E+02  0.29485837137E+02  0.68423230934E+02  0.00000000000E+00 0.  1.
</event>
<event>
 7    1  0.6255318E-006  0.1185027E+03  0.7818608E-02  0.1423479E+00
          2   -1    0    0  502    0  0.00000000000E+00  0.00000000000E+00  0.52233784707E+03  0.52233784707E+03  0.00000000000E+00 0. -1.
          1   -1    0    0  501    0 -0.00000000000E+00 -0.00000000000E+00 -0.27170781574E+03  0.27170781574E+03  0.00000000000E+00 0. -1.
         25    2    1    2    0    0  0.42404582122E+02  0.12981558278E+03 -0.25280809221E+02  0.18685423905E+03  0.12500061287E+03 0.  0.
          2    1    1    2  501    0 -0.25888518032E+02 -0.11121694909E+03 -0.14554962268E+03  0.18499761564E+03  0.00000000000E+00 0. -1.
          1    1    1    2  502    0 -0.16516064091E+02 -0.18598633684E+02  0.42146046323E+03  0.42219380812E+03  0.00000000000E+00 0. -1.
         22    1    3    3    0    0  0.46499205463E+02  0.54592127227E+02 -0.69197511254E+02  0.99653258991E+02  0.00000000000E+00 0. -1.
         22    1    3    3    0    0 -0.40946233407E+01  0.75223455550E+02  0.43916702033E+02  0.87200980055E+02  0.00000000000E+00 0. -1.
</event>
<event>
 7    1  0.6255318E-006  0.8305757E+02  0.7818608E-02  0.1330648E+00
          2   -1    0    0  502    0  0.00000000000E+00  0.00000000000E+00  0.67037255652E+03  0.67037255652E+03  0.00000000000E+00 0. -1.
          1   -1    0    0  501    0 -0.00000000000E+00 -0.00000000000E+00 -0.12185020752E+03  0.12185020752E+03  0.00000000000E+00 0. -1.
         25    2    1    2    0    0  0.60541033618E+02 -0.70244776604E+02  0.18485511602E+03  0.24165169175E+03  0.12499832324E+03 0.  0.
          2    1    1    2  501    0 -0.74570403824E+02 -0.14566699954E+02 -0.73093746573E+02  0.10543068653E+03  0.00000000000E+00 0. -1.
          1    1    1    2  502    0  0.14029370206E+02  0.84811476558E+02  0.43676097954E+03  0.44514038576E+03  0.00000000000E+00 0. -1.
         22    1    3    3    0    0  0.43451148004E+01 -0.79431098560E+01  0.15084907799E+03  0.15112053913E+03  0.00000000000E+00 0. -1.
         22    1    3    3    0    0  0.56195918818E+02 -0.62301666748E+02  0.34006038036E+02  0.90531152618E+02  0.00000000000E+00 0. -1.
</event>
<event>
 7    1  0.6255318E-006  0.4562926E+02  0.7818608E-02  0.1505141E+00
          2   -1    0    0  502    0  0.00000000000E+00  0.00000000000E+00  0.44796626567E+03  0.44796626567E+03  0.00000000000E+00 0. -1.
          1   -1    0    0  501    0 -0.00000000000E+00 -0.00000000000E+00 -0.78247934571E+03  0.78247934571E+03  0.00000000000E+00 0. -1.
         25    2    1    2    0    0 -0.15964127220E+01 -0.12128561310E+02  0.51371132735E+02  0.13569577153E+03  0.12499879439E+03 0.  0.
          2    1    1    2  501    0 -0.17447581238E+02  0.42450129795E+02 -0.73869869437E+03  0.74012309292E+03  0.00000000000E+00 0. -1.
          1    1    1    2  502    0  0.19043993960E+02 -0.30321568485E+02  0.35281448159E+03  0.35462674694E+03  0.00000000000E+00 0. -1.
         22    1    3    3    0    0  0.42881634607E+02  0.34365000387E+02  0.27007527038E+01  0.55018923139E+02  0.00000000000E+00 0.  1.
         22    1    3    3    0    0 -0.44478047329E+02 -0.46493561697E+02  0.48670380031E+02  0.80676848388E+02  0.00000000000E+00 0.  1.
</event>
<event>
 7    1  0.6255318E-006  0.8192428E+02  0.7818608E-02  0.1346267E+00
          2   -1    0    0  502    0  0.00000000000E+00  0.00000000000E+00  0.82662326683E+03  0.82662326683E+03  0.00000000000E+00 0. -1.
          1   -1    0    0  501    0 -0.00000000000E+00 -0.00000000000E+00 -0.11094292371E+04  0.11094292371E+04  0.00000000000E+00 0. -1.
         25    2    1    2    0    0 -0.36070519989E+02  0.11270443739E+03  0.28254136560E+03  0.33084270015E+03  0.12499558531E+03 0.  0.
          2    1    1    2  501    0 -0.22030471081E+02 -0.78817385044E+02 -0.10815508478E+04  0.10846426869E+04  0.00000000000E+00 0. -1.
          1    1    1    2  502    0  0.58100991070E+02 -0.33887052351E+02  0.51620351192E+03  0.52056711690E+03  0.00000000000E+00 0. -1.
         22    1    3    3    0    0 -0.59799568220E+02  0.24609959126E+02  0.19079359935E+03  0.20145430251E+03  0.00000000000E+00 0. -1.
         22    1    3    3    0    0  0.23729048231E+02  0.88094478268E+02  0.91747766252E+02  0.12938839764E+03  0.00000000000E+00 0. -1.
</event>
<event>
 7    1  0.6255318E-006  0.3233711E+03  0.7818608E-02  0.1262074E+00
          2   -1    0    0  502    0  0.00000000000E+00  0.00000000000E+00  0.11454393708E+04  0.11454393708E+04  0.00000000000E+00 0. -1.
          1   -1    0    0  501    0 -0.00000000000E+00 -0.00000000000E+00 -0.16415059745E+04  0.16415059745E+04  0.00000000000E+00 0. -1.
         25    2    1    2    0    0 -0.21436348627E+03  0.20749093239E+03 -0.76584837588E+02  0.33240612600E+03  0.12499761591E+03 0.  0.
          2    1    1    2  501    0  0.25117546711E+03 -0.20956701023E+03 -0.14180495243E+04  0.14552910020E+04  0.00000000000E+00 0. -1.
          1    1    1    2  502    0 -0.36811980838E+02  0.20760778387E+01  0.99856775823E+03  0.99924821732E+03  0.00000000000E+00 0. -1.
         22    1    3    3    0    0 -0.51252912260E+02  0.13492605493E+03 -0.24131244856E+02  0.14633597744E+03  0.00000000000E+00 0. -1.
         22    1    3    3    0    0 -0.16311057401E+03  0.72564877455E+02 -0.52453592732E+02  0.18607014856E+03  0.00000000000E+00 0. -1.
</event>
<event>
 7    1  0.6255318E-006  0.1437698E+03  0.7818608E-02  0.1334152E+00
          2   -1    0    0  502    0  0.00000000000E+00  0.00000000000E+00  0.73597604275E+03  0.73597604275E+03  0.00000000000E+00 0. -1.
          1   -1    0    0  501    0 -0.00000000000E+00 -0.00000000000E+00 -0.40860417090E+03  0.40860417090E+03  0.00000000000E+00 0. -1.
         25    2    1    2    0    0 -0.18048492223E+03 -0.21653455487E+02  0.95926991615E+02  0.24056435641E+03  0.12500217026E+03 0.  0.
          2    1    1    2  501    0  0.42453478694E+02  0.31094888331E+01 -0.32634113250E+03  0.32910560849E+03  0.00000000000E+00 0. -1.
          1    1    1    2  502    0  0.13803144354E+03  0.18543966654E+02  0.55778601274E+03  0.57491024874E+03  0.00000000000E+00 0. -1.
         22    1    3    3    0    0 -0.13383766184E+03 -0.65153905643E+02  0.95358495900E+02  0.17677894073E+03  0.00000000000E+00 0. -1.
         22    1    3    3    0    0 -0.46647260394E+02  0.43500450157E+02  0.56849571504E+00  0.63785415680E+02  0.00000000000E+00 0. -1.
</event>
<event>
 7    1  0.6255318E-006  0.9766912E+02  0.7818608E-02  0.1411826E+00
          2   -1    0    0  502    0  0.00000000000E+00  0.00000000000E+00  0.16179189624E+03  0.16179189624E+03  0.00000000000E+00 0. -1.
          1   -1    0    0  501    0 -0.00000000000E+00 -0.00000000000E+00 -0.78598433378E+03  0.78598433378E+03  0.00000000000E+00 0. -1.
         25    2    1    2    0    0 -0.20867442805E+02 -0.89560030040E+02 -0.47014956303E+03  0.49509875710E+03  0.12500287404E+03 0.  0.
          2    1    1    2  501    0 -0.91226596443E+01  0.10337452090E+03 -0.29248628758E+03  0.31035099954E+03  0.00000000000E+00 0. -1.
          1    1    1    2  502    0  0.29990102449E+02 -0.13814490864E+02  0.13844341307E+03  0.14232647338E+03  0.00000000000E+00 0. -1.
         22    1    3    3    0    0  0.14241197946E+02  0.22004007348E+02 -0.30774454127E+02  0.40423447220E+02  0.00000000000E+00 0. -1.
         22    1    3    3    0    0 -0.35108640751E+02 -0.11156403739E+03 -0.43937510890E+03  0.45467530988E+03  0.00000000000E+00 0. -1.
</event>
<event>
 7    1  0.6255318E-006  0.1444134E+03  0.7818608E-02  0.1298301E+00
          2   -1    0    0  502    0  0.00000000000E+00  0.00000000000E+00  0.31464816618E+04  0.31464816618E+04  0.00000000000E+00 0. -1.
          1   -1    0    0  501    0 -0.00000000000E+00 -0.00000000000E+00 -0.10641137276E+04  0.10641137276E+04  0.00000000000E+00 0. -1.
         25    2    1    2    0    0 -0.16056033924E+03  0.11059214170E+03  0.20341513936E+02  0.23248574001E+03  0.12500239108E+03 0.  0.
          2    1    1    2  501    0  0.30312900195E+02 -0.50021835918E+02 -0.95543878828E+03  0.95722742028E+03  0.00000000000E+00 0. -1.
          1    1    1    2  502    0  0.13024743904E+03 -0.60570305785E+02  0.30174652085E+04  0.30208822291E+04  0.00000000000E+00 0. -1.
         22    1    3    3    0    0 -0.99981546964E+02  0.95074337023E+02 -0.41964583464E+02  0.14420979703E+03  0.00000000000E+00 0.  1.
         22    1    3    3    0    0 -0.60578792275E+02  0.15517804680E+02  0.62306097400E+02  0.88275942979E+02  0.00000000000E+00 0.  1.
</event>
<event>
 7    1  0.6255318E-006  0.9271861E+02  0.7818608E-02  0.1318720E+00
          2   -1    0    0  502    0  0.00000000000E+00  0.00000000000E+00  0.12323279403E+03  0.12323279403E+03  0.00000000000E+00 0. -1.
          1   -1    0    0  501    0 -0.00000000000E+00 -0.00000000000E+00 -0.18044807939E+04  0.18044807939E+04  0.00000000000E+00 0. -1.
         25    2    1    2    0    0  0.14395291795E+03 -0.48672315587E+02 -0.24300113686E+03  0.31267154669E+03  0.12499002642E+03 0.  0.
          2    1    1    2  501    0 -0.69004958771E+02  0.59016751782E+02 -0.15088369542E+04  0.15115666098E+04  0.00000000000E+00 0. -1.
          1    1    1    2  502    0 -0.74947959174E+02 -0.10344436195E+02  0.70590091206E+02  0.10347543149E+03  0.00000000000E+00 0. -1.
         22    1    3    3    0    0  0.80572425571E+02  0.27927720783E+02 -0.59544705412E+02  0.10400694829E+03  0.00000000000E+00 0. -1.
         22    1    3    3    0    0  0.63380492374E+02 -0.76600036370E+02 -0.18345643144E+03  0.20866459840E+03  0.00000000000E+00 0. -1.
</event>
<event>
 7    1  0.6255318E-006  0.3205042E+02  0.7818608E-02  0.1594324E+00
          2   -1    0    0  502    0  0.00000000000E+00  0.00000000000E+00  0.28875283247E+03  0.28875283247E+03  0.00000000000E+00 0. -1.
          1   -1    0    0  501    0 -0.00000000000E+00 -0.00000000000E+00 -0.58087950177E+02  0.58087950177E+02  0.00000000000E+00 0. -1.
         25    2    1    2    0    0 -0.17415267765E+01 -0.16113784041E+02  0.11454511327E+03  0.17031483418E+03  0.12499549118E+03 0.  0.
          2    1    1    2  501    0 -0.26632826683E+02  0.20602949535E+02 -0.18811698734E+02  0.38570312364E+02  0.00000000000E+00 0. -1.
          1    1    1    2  502    0  0.28374353459E+02 -0.44891654941E+01  0.13493146776E+03  0.13795563610E+03  0.00000000000E+00 0. -1.
         22    1    3    3    0    0 -0.17194117151E+02  0.47038962181E+02  0.85538634710E+02  0.99121943361E+02  0.00000000000E+00 0.  1.
         22    1    3    3    0    0  0.15452590374E+02 -0.63152746222E+02  0.29006478558E+02  0.71192890818E+02  0.00000000000E+00 0.  1.
</event>
<event>
 7    1  0.6255318E-006  0.1512252E+03  0.7818608E-02  0.1203636E+00
          2   -1    0    0  502    0  0.00000000000E+00  0.00000000000E+00  0.20036881476E+03  0.20036881476E+03  0.00000000000E+00 0. -1.
          1   -1    0    0  501    0 -0.00000000000E+00 -0.00000000000E+00 -0.23809826637E+04  0.23809826637E+04  0.00000000000E+00 0. -1.
         25    2    1    2    0    0  0.57390554238E+02  0.29205027821E+02 -0.43943118040E+02  0.14731368896E+03  0.12499486376E+03 0.  0.
          2    1    1    2  501    0  0.15070060539E+03 -0.12584879720E+02 -0.22081978167E+04  0.22133699757E+04  0.00000000000E+00 0. -1.
          1    1    1    2  502    0 -0.20809115962E+03 -0.16620148102E+02  0.71527085808E+02  0.22066781378E+03  0.00000000000E+00 0. -1.
         22    1    3    3    0    0  0.28928885045E+01 -0.23424122926E+02  0.32184705126E+02  0.39911321486E+02  0.00000000000E+00 0.  1.
         22    1    3    3    0    0  0.54497665733E+02  0.52629150748E+02 -0.76127823166E+02  0.10740236747E+03  0.00000000000E+00 0.  1.
</event>
<event>
 7    1  0.6255318E-006  0.1378193E+03  0.7818608E-02  0.1241994E+00
          2   -1    0    0  502    0  0.00000000000E+00  0.00000000000E+00  0.42017051995E+03  0.42017051995E+03  0.00000000000E+00 0. -1.
          1   -1    0    0  501    0 -0.00000000000E+00 -0.00000000000E+00 -0.75321753989E+03  0.75321753989E+03  0.00000000000E+00 0. -1.
         25    2    1    2    0    0 -0.27656660230E+02 -0.50831094649E+02 -0.39386291687E+02  0.14326235307E+03  0.12499652313E+03 0.  0.
          2    1    1    2  501    0 -0.43477380487E+00  0.15268441928E+03 -0.64521649230E+03  0.66303623043E+03  0.00000000000E+00 0. -1.
          1    1    1    2  502    0  0.28091434035E+02 -0.10185332463E+03  0.35155576405E+03  0.36708947634E+03  0.00000000000E+00 0. -1.
         22    1    3    3    0    0 -0.33372070866E+02  0.28382385857E+02 -0.46054959691E+02  0.63563466338E+02  0.00000000000E+00 0.  1.
         22    1    3    3    0    0  0.57154106362E+01 -0.79213480506E+02  0.66686680037E+01  0.79698886727E+02  0.00000000000E+00 0.  1.
</event>
<event>
 7    1  0.6255318E-006  0.3076184E+02  0.7818608E-02  0.1591158E+00
          2   -1    0    0  502    0  0.00000000000E+00  0.00000000000E+00  0.50044863661E+03  0.50044863661E+03  0.00000000000E+00 0. -1.
          1   -1    0    0  501    0 -0.00000000000E+00 -0.00000000000E+00 -0.75956248335E+03  0.75956248335E+03  0.00000000000E+00 0. -1.
         25    2    1    2    0    0 -0.31746979941E+02  0.27970538634E+02 -0.19002556678E+03  0.23135401411E+03  0.12499896819E+03 0.  0.
          2    1    1    2  501    0  0.30681401068E+02  0.25225619457E+01 -0.54795511541E+03  0.54881920538E+03  0.00000000000E+00 0. -1.
          1    1    1    2  502    0  0.10655788732E+01 -0.30493100580E+02  0.47886683544E+03  0.47983790047E+03  0.00000000000E+00 0. -1.
         22    1    3    3    0    0 -0.86280208051E+01 -0.20403546102E+02 -0.17398718430E+03  0.17539181206E+03  0.00000000000E+00 0. -1.
         22    1    3    3    0    0 -0.23118959136E+02  0.48374084736E+02 -0.16038382473E+02  0.55962202047E+02  0.00000000000E+00 0. -1.
</event>
<event>
 7    1  0.6255318E-006  0.2018370E+03  0.7818608E-02  0.1221830E+00
          2   -1    0    0  502    0  0.00000000000E+00  0.00000000000E+00  0.22273230316E+04  0.22273230316E+04  0.00000000000E+00 0. -1.
          1   -1    0    0  501    0 -0.00000000000E+00 -0.00000000000E+00 -0.19226451541E+04  0.19226451541E+04  0.00000000000E+00 0. -1.
         25    2    1    2    0    0  0.73222652719E+02 -0.27951684187E+03 -0.32027267277E+03  0.44909869444E+03  0.12499532255E+03 0.  0.
          2    1    1    2  501    0 -0.13943114193E+02  0.87682739383E+02 -0.15320117117E+04  0.15345822096E+04  0.00000000000E+00 0. -1.
          1    1    1    2  502    0 -0.59279538526E+02  0.19183410249E+03  0.21569622621E+04  0.21662872816E+04  0.00000000000E+00 0. -1.
         22    1    3    3    0    0  0.77556938095E+02 -0.24740576553E+03 -0.20846214261E+03  0.33268777610E+03  0.00000000000E+00 0.  1.
         22    1    3    3    0    0 -0.43342853754E+01 -0.32111076339E+02 -0.11181053016E+03  0.11641091834E+03  0.00000000000E+00 0.  1.
</event>
<event>
 7    1  0.6255318E-006  0.6226699E+02  0.7818608E-02  0.1439043E+00
          2   -1    0    0  502    0  0.00000000000E+00  0.00000000000E+00  0.75787813639E+03  0.75787813639E+03  0.00000000000E+00 0. -1.
          1   -1    0    0  501    0 -0.00000000000E+00 -0.00000000000E+00 -0.40456949288E+02  0.40456949288E+02  0.00000000000E+00 0. -1.
         25    2    1    2    0    0 -0.91320644737E+02 -0.38250981175E+02  0.30148049475E+03  0.34105341955E+03  0.12499739420E+03 0.  0.
          2    1    1    2  501    0  0.50811049034E+02  0.26868817697E+02  0.22702923519E+02  0.61799019448E+02  0.00000000000E+00 0. -1.
          1    1    1    2  502    0  0.40509595704E+02  0.11382163478E+02  0.39323776883E+03  0.39548264668E+03  0.00000000000E+00 0. -1.
         22    1    3    3    0    0 -0.69605906237E+02  0.38566182796E+02  0.14602503281E+03  0.16629985823E+03  0.00000000000E+00 0.  1.
         22    1    3    3    0    0 -0.21714738500E+02 -0.76817163971E+02  0.15545546194E+03  0.17475356132E+03  0.00000000000E+00 0.  1.
</event>
<event>
 7    1  0.6255318E-006  0.1447031E+03  0.7818608E-02  0.1280603E+00
          2   -1    0    0  502    0  0.00000000000E+00  0.00000000000E+00  0.12603059306E+04  0.12603059306E+04  0.00000000000E+00 0. -1.
          1   -1    0    0  501    0 -0.00000000000E+00 -0.00000000000E+00 -0.79386894764E+03  0.79386894764E+03  0.00000000000E+00 0. -1.
         25    2    1    2    0    0 -0.16950765553E+03 -0.14588941645E+02 -0.40336624604E+03  0.45527634015E+03  0.12500613966E+03 0.  0.
          2    1    1    2  501    0  0.12069971347E+03  0.63227691563E+02 -0.35080962112E+03  0.37634233363E+03  0.00000000000E+00 0. -1.
          1    1    1    2  502    0  0.48807942061E+02 -0.48638749918E+02  0.12206128501E+04  0.12225562045E+04  0.00000000000E+00 0. -1.
         22    1    3    3    0    0 -0.15727114650E+03 -0.36475671211E+02 -0.39818763414E+03  0.42967206110E+03  0.00000000000E+00 0.  1.
         22    1    3    3    0    0 -0.12236509033E+02  0.21886729566E+02 -0.51786119062E+01  0.25604279050E+02  0.00000000000E+00 0.  1.
</event>
<event>
 7    1  0.6255318E-006  0.1071507E+03  0.7818608E-02  0.1398356E+00
          2   -1    0    0  502    0  0.00000000000E+00  0.00000000000E+00  0.20255872664E+03  0.20255872664E+03  0.00000000000E+00 0. -1.
          1   -1    0    0  501    0 -0.00000000000E+00 -0.00000000000E+00 -0.24224989422E+03  0.24224989422E+03  0.00000000000E+00 0. -1.
         25    2    1    2    0    0 -0.42400531159E+01 -0.12794711536E+03  0.12714056452E+02  0.17937181806E+03  0.12499663797E+03 0.  0.
          2    1    1    2  501    0  0.18922107753E+02  0.27593139667E+02 -0.13221227863E+03  0.13638003571E+03  0.00000000000E+00 0. -1.
          1    1    1    2  502    0 -0.14682054637E+02  0.10035397570E+03  0.79807054609E+02  0.12905676709E+03  0.00000000000E+00 0. -1.
         22    1    3    3    0    0 -0.12495468020E+02 -0.15250010323E+03  0.11381187579E+02  0.15343386079E+03  0.00000000000E+00 0.  1.
         22    1    3    3    0    0  0.82554149040E+01  0.24552987862E+02  0.13328688737E+01  0.25937957275E+02  0.00000000000E+00 0.  1.
</event>
<event>
 7    1  0.6255318E-006  0.2035513E+03  0.7818608E-02  0.1250356E+00
          2   -1    0    0  502    0  0.00000000000E+00  0.00000000000E+00  0.43152746330E+03  0.43152746330E+03  0.00000000000E+00 0. -1.
          1   -1    0    0  501    0 -0.00000000000E+00 -0.00000000000E+00 -0.68284684642E+03  0.68284684642E+03  0.00000000000E+00 0. -1.
         25    2    1    2    0    0  0.14525252376E+03  0.12299696958E+03  0.73194481279E+02  0.23918218665E+03  0.12499654449E+03 0.  0.
          2    1    1    2  501    0 -0.31776263345E+02  0.57584706121E+02 -0.55632269054E+03  0.56019698795E+03  0.00000000000E+00 0. -1.
          1    1    1    2  502    0 -0.11347626042E+03 -0.18058167570E+03  0.23180882614E+03  0.31499513512E+03  0.00000000000E+00 0. -1.
         22    1    3    3    0    0  0.10963232881E+03  0.20950722854E+02  0.68575479309E+02  0.13099914760E+03  0.00000000000E+00 0. -1.
         22    1    3    3    0    0  0.35620194948E+02  0.10204624672E+03  0.46190019703E+01  0.10818303905E+03  0.00000000000E+00 0. -1.
</event>
<event>
 7    1  0.6255318E-006  0.6933935E+02  0.7818608E-02  0.1459878E+00
          2   -1    0    0  502    0  0.00000000000E+00  0.00000000000E+00  0.22408992810E+03  0.22408992810E+03  0.00000000000E+00 0. -1.
          1   -1    0    0  501    0 -0.00000000000E+00 -0.00000000000E+00 -0.25977100464E+03  0.25977100464E+03  0.00000000000E+00 0. -1.
         25    2    1    2    0    0 -0.38929771062E+02 -0.10436104887E+02 -0.12124399045E+02  0.13190354918E+03  0.12500842321E+03 0.  0.
          2    1    1    2  501    0 -0.30239265467E+02 -0.11649801486E+02 -0.17819666424E+03  0.18111924855E+03  0.00000000000E+00 0. -1.
          1    1    1    2  502    0  0.69169036529E+02  0.22085906372E+02  0.15463998674E+03  0.17083813501E+03  0.00000000000E+00 0. -1.
         22    1    3    3    0    0  0.36732290576E+02  0.18260995807E+02 -0.27698909120E+02  0.49497017135E+02  0.00000000000E+00 0. -1.
         22    1    3    3    0    0 -0.75662061638E+02 -0.28697100694E+02  0.15574510076E+02  0.82406532045E+02  0.00000000000E+00 0. -1.
</event>
<event>
 7    1  0.6255318E-006  0.8007824E+02  0.7818608E-02  0.1398574E+00
          2   -1    0    0  502    0  0.00000000000E+00  0.00000000000E+00  0.82794569869E+03  0.82794569869E+03  0.00000000000E+00 0. -1.
          1   -1    0    0  501    0 -0.00000000000E+00 -0.00000000000E+00 -0.19760667509E+03  0.19760667509E+03  0.00000000000E+00 0. -1.
         25    2    1    2    0    0  0.10602873591E+02 -0.42325770413E+02  0.24485579794E+03  0.27835955071E+03  0.12500314361E+03 0.  0.
          2    1    1    2  501    0  0.12642913461E+02  0.80496391105E+02 -0.17073482894E+03  0.18918217161E+03  0.00000000000E+00 0. -1.
          1    1    1    2  502    0 -0.23245787051E+02 -0.38170620692E+02  0.55621805459E+03  0.55801065147E+03  0.00000000000E+00 0. -1.
         22    1    3    3    0    0  0.14395092074E+02 -0.78317284709E+02  0.22126874073E+03  0.23516094783E+03  0.00000000000E+00 0. -1.
         22    1    3    3    0    0 -0.37922184830E+01  0.35991514296E+02  0.23587057209E+02  0.43198602872E+02  0.00000000000E+00 0. -1.
</event>
<event>
 7    1  0.6255318E-006  0.1190684E+03  0.7818608E-02  0.1309330E+00
          2   -1    0    0  502    0  0.00000000000E+00  0.00000000000E+00  0.48765055375E+03  0.48765055375E+03  0.00000000000E+00 0. -1.
          1   -1    0    0  501    0 -0.00000000000E+00 -0.00000000000E+00 -0.12772434956E+04  0.12772434956E+04  0.00000000000E+00 0. -1.
         25    2    1    2    0    0 -0.43677921704E+02  0.99932106144E+02 -0.26956441185E+03  0.31651767681E+03  0.12499712361E+03 0.  0.
          2    1    1    2  501    0 -0.55285543332E+02 -0.32480717612E+02 -0.97540698003E+03  0.97751228381E+03  0.00000000000E+00 0. -1.
          1    1    1    2  502    0  0.98963465036E+02 -0.67451388532E+02  0.45537845007E+03  0.47086408869E+03  0.00000000000E+00 0. -1.
         22    1    3    3    0    0  0.33928791814E+02  0.62653894469E+02 -0.17326564583E+03  0.18734368799E+03  0.00000000000E+00 0.  1.
         22    1    3    3    0    0 -0.77606713518E+02  0.37278211675E+02 -0.96298766026E+02  0.12917398882E+03  0.00000000000E+00 0.  1.
</event>
<event>
 7    1  0.6255318E-006  0.1061904E+03  0.7818608E-02  0.1365533E+00
          2   -1    0    0  502    0  0.00000000000E+00  0.00000000000E+00  0.19046215085E+03  0.19046215085E+03  0.00000000000E+00 0. -1.
          1   -1    0    0  501    0 -0.00000000000E+00 -0.00000000000E+00 -0.45858637667E+03  0.45858637667E+03  0.00000000000E+00 0. -1.
         25    2    1    2    0    0 -0.13135426052E+03  0.58700393840E+02 -0.54263438946E+02  0.19816460027E+03  0.12500004001E+03 0.  0.
          2    1    1    2  501    0  0.39518351982E+02 -0.19551222553E+02 -0.30950486905E+03  0.31262951622E+03  0.00000000000E+00 0. -1.
          1    1    1    2  502    0  0.91835908538E+02 -0.39149171287E+02  0.95644082182E+02  0.13825441102E+03  0.00000000000E+00 0. -1.
         22    1    3    3    0    0 -0.11854634615E+03 -0.88192174395E+01 -0.51032306946E+02  0.12936503057E+03  0.00000000000E+00 0.  1.
         22    1    3    3    0    0 -0.12807914374E+02  0.67519611279E+02 -0.32311319999E+01  0.68799569707E+02  0.00000000000E+00 0.  1.
</event>
<event>
 7    1  0.6255318E-006  0.7795999E+02  0.7818608E-02  0.1343460E+00
          2   -1    0    0  502    0  0.00000000000E+00  0.00000000000E+00  0.49216354209E+03  0.49216354209E+03  0.00000000000E+00 0. -1.
          1   -1    0    0  501    0 -0.00000000000E+00 -0.00000000000E+00 -0.13619074241E+04  0.13619074241E+04  0.00000000000E+00 0. -1.
         25    2    1    2    0    0 -0.11356119813E+03 -0.86423608035E+02 -0.19750359777E+03  0.27385700904E+03  0.12499921807E+03 0.  0.
          2    1    1    2  501    0  0.68340919845E+02  0.23927179693E+02 -0.11217745294E+04  0.11241090188E+04  0.00000000000E+00 0. -1.
          1    1    1    2  502    0  0.45220278287E+02  0.62496428342E+02  0.44953424524E+03  0.45610493832E+03  0.00000000000E+00 0. -1.
         22    1    3    3    0    0 -0.11056780642E+03 -0.15687114629E+02 -0.82641947570E+02  0.13892809968E+03  0.00000000000E+00 0. -1.
         22    1    3    3    0    0 -0.29933917148E+01 -0.70736493406E+02 -0.11486165020E+03  0.13492890936E+03  0.00000000000E+00 0. -1.
</event>
<event>
 7    1  0.6255318E-006  0.5515999E+02  0.7818608E-02  0.1479401E+00
          2   -1    0    0  502    0  0.00000000000E+00  0.00000000000E+00  0.31832933532E+04  0.31832933532E+04  0.00000000000E+00 0. -1.
          1   -1    0    0  501    0 -0.00000000000E+00 -0.00000000000E+00 -0.42766734962E+02  0.42766734962E+02  0.00000000000E+00 0. -1.
         25    2    1    2    0    0  0.11252133716E+02 -0.24392740164E+02  0.14229668287E+03  0.19127350396E+03  0.12496235864E+03 0.  0.
          2    1    1    2  501    0  0.34801290465E+02 -0.65758745831E+01 -0.62061634806E+00  0.35422550857E+02  0.00000000000E+00 0. -1.
          1    1    1    2  502    0 -0.46053424181E+02  0.30968614747E+02  0.29988505517E+04  0.29993640333E+04  0.00000000000E+00 0. -1.
         22    1    3    3    0    0 -0.56759376258E+02 -0.16932119324E+02  0.70907570973E+02  0.92391596367E+02  0.00000000000E+00 0. -1.
         22    1    3    3    0    0  0.68011509974E+02 -0.74606208406E+01  0.71389111899E+02  0.98881907597E+02  0.00000000000E+00 0. -1.
</event>
<event>
 7    1  0.6255318E-006  0.6792540E+02  0.7818608E-02  0.1403220E+00
          2   -1    0    0  502    0  0.00000000000E+00  0.00000000000E+00  0.75481459454E+03  0.75481459454E+03  0.00000000000E+00 0. -1.
          1   -1    0    0  501    0 -0.00000000000E+00 -0.00000000000E+00 -0.11243706145E+04  0.11243706145E+04  0.00000000000E+00 0. -1.
         25    2    1    2    0    0  0.49087527268E+01  0.10939950065E+03  0.22268210682E+03  0.27785709863E+03  0.12499959987E+03 0.  0.
          2    1    1    2  501    0  0.19557756446E+02 -0.64893814418E+02 -0.10944540802E+04  0.10965507041E+04  0.00000000000E+00 0. -1.
          1    1    1    2  502    0 -0.24466509173E+02 -0.44505686231E+02  0.50221595336E+03  0.50477740638E+03  0.00000000000E+00 0. -1.
         22    1    3    3    0    0  0.40419018154E+02  0.79534570764E+02  0.57163658556E+02  0.10595814662E+03  0.00000000000E+00 0. -1.
         22    1    3    3    0    0 -0.35510265427E+02  0.29864929885E+02  0.16551844826E+03  0.17189895201E+03  0.00000000000E+00 0. -1.
</event>
<event>
 7    1  0.6255318E-006  0.3607503E+02  0.7818608E-02  0.1621038E+00
          2   -1    0    0  502    0  0.00000000000E+00  0.00000000000E+00  0.19799608106E+04  0.19799608106E+04  0.00000000000E+00 0. -1.
          1   -1    0    0  501    0 -0.00000000000E+00 -0.00000000000E+00 -0.30634936812E+03  0.30634936812E+03  0.00000000000E+00 0. -1.
         25    2    1    2    0    0 -0.23871756772E+02  0.16396265921E+02  0.14359488654E+04  0.14416702067E+04  0.12500057008E+03 0.  0.
          2    1    1    2  501    0  0.11400431953E+02 -0.34236476782E+02 -0.30219598321E+03  0.30434276476E+03  0.00000000000E+00 0. -1.
          1    1    1    2  502    0  0.12471324819E+02  0.17840210861E+02  0.53985856023E+03  0.54029720721E+03  0.00000000000E+00 0. -1.
         22    1    3    3    0    0  0.41831854204E+02  0.39750845386E+02  0.56752120911E+03  0.57044750549E+03  0.00000000000E+00 0.  1.
         22    1    3    3    0    0 -0.65703610976E+02 -0.23354579465E+02  0.86842765633E+03  0.87122270124E+03  0.00000000000E+00 0.  1.
</event>
<event>
 7    1  0.6255318E-006  0.7622560E+02  0.7818608E-02  0.1403817E+00
          2   -1    0    0  502    0  0.00000000000E+00  0.00000000000E+00  0.10775137128E+03  0.10775137128E+03  0.00000000000E+00 0. -1.
          1   -1    0    0  501    0 -0.00000000000E+00 -0.00000000000E+00 -0.62980090201E+03  0.62980090201E+03  0.00000000000E+00 0. -1.
         25    2    1    2    0    0  0.35542515465E+02  0.36908342440E+02 -0.12451480505E+02  0.13566785216E+03  0.12500092238E+03 0.  0.
          2    1    1    2  501    0  0.11259572471E+02  0.43614959422E+02 -0.50670457054E+03  0.50870282530E+03  0.00000000000E+00 0. -1.
          1    1    1    2  502    0 -0.46802087936E+02 -0.80523301862E+02 -0.28934796815E+01  0.93181595836E+02  0.00000000000E+00 0. -1.
         22    1    3    3    0    0 -0.21662923052E+02 -0.21332302312E+02  0.30803443041E+02  0.43280497459E+02  0.00000000000E+00 0. -1.
         22    1    3    3    0    0  0.57205438517E+02  0.58240644752E+02 -0.43254923546E+02  0.92387354698E+02  0.00000000000E+00 0. -1.
</event>
<event>
 7    1  0.6255318E-006  0.3734583E+02  0.7818608E-02  0.1541288E+00
          2   -1    0    0  502    0  0.00000000000E+00  0.00000000000E+00  0.60895615127E+03  0.60895615127E+03  0.00000000000E+00 0. -1.
          1   -1    0    0  501    0 -0.00000000000E+00 -0.00000000000E+00 -0.61920904564E+02  0.61920904564E+02  0.00000000000E+00 0. -1.
         25    2    1    2    0    0 -0.11566653344E+02  0.23296538557E+02  0.90622898536E+02  0.15659628057E+03  0.12503347221E+03 0.  0.
          2    1    1    2  501    0 -0.26332347287E+02 -0.22119368820E+02 -0.17684267994E+02  0.38670302884E+02  0.00000000000E+00 0. -1.
          1    1    1    2  502    0  0.37899000631E+02 -0.11771697374E+01  0.47409661617E+03  0.47561047238E+03  0.00000000000E+00 0. -1.
         22    1    3    3    0    0  0.18232037244E+02  0.62369132102E+02  0.85211647950E+02  0.10716035073E+03  0.00000000000E+00 0. -1.
         22    1    3    3    0    0 -0.29798690588E+02 -0.39072593544E+02  0.54112505864E+01  0.49435929848E+02  0.00000000000E+00 0. -1.
</event>
<event>
 7    1  0.6255318E-006  0.7121710E+02  0.7818608E-02  0.1388611E+00
          2   -1    0    0  502    0  0.00000000000E+00  0.00000000000E+00  0.77661361917E+03  0.77661361917E+03  0.00000000000E+00 0. -1.
          1   -1    0    0  501    0 -0.00000000000E+00 -0.00000000000E+00 -0.12649703394E+04  0.12649703394E+04  0.00000000000E+00 0. -1.
         25    2    1    2    0    0 -0.12062689573E+03 -0.90651956605E+01 -0.24148238976E+02  0.17561765858E+03  0.12500159525E+03 0.  0.
          2    1    1    2  501    0  0.69791817049E+02 -0.10354988592E+02 -0.11629603210E+04  0.11650986361E+04  0.00000000000E+00 0. -1.
          1    1    1    2  502    0  0.50835078676E+02  0.19420184253E+02  0.69875183976E+03  0.70086766393E+03  0.00000000000E+00 0. -1.
         22    1    3    3    0    0 -0.79206738558E+02 -0.25514207928E+02  0.44045457116E+02  0.94152453668E+02  0.00000000000E+00 0.  1.
         22    1    3    3    0    0 -0.41420157167E+02  0.16449012267E+02 -0.68193696092E+02  0.81465204910E+02  0.00000000000E+00 0.  1.
</event>
<event>
 7    1  0.6255318E-006  0.1291276E+03  0.7818608E-02  0.1320286E+00
          2   -1    0    0  502    0  0.00000000000E+00  0.00000000000E+00  0.11982798409E+04  0.11982798409E+04  0.00000000000E+00 0. -1.
          1   -1    0    0  501    0 -0.00000000000E+00 -0.00000000000E+00 -0.63352225864E+03  0.63352225864E+03  0.00000000000E+00 0. -1.
         25    2    1    2    0    0  0.98758027153E+02 -0.72637386208E+02 -0.27829678421E+03  0.32879221397E+03  0.12500352819E+03 0.  0.
          2    1    1    2  501    0 -0.13283480262E+03  0.31302628707E+02 -0.31522140397E+03  0.34349595758E+03  0.00000000000E+00 0. -1.
          1    1    1    2  502    0  0.34076775462E+02  0.41334757502E+02  0.11582757704E+04  0.11595139280E+04  0.00000000000E+00 0. -1.
         22    1    3    3    0    0  0.80760952644E+02 -0.70119506716E+02 -0.90461240457E+02  0.14007966562E+03  0.00000000000E+00 0.  1.
         22    1    3    3    0    0  0.17997074509E+02 -0.25178794926E+01 -0.18783554375E+03  0.18871254835E+03  0.00000000000E+00 0.  1.
</event>
<event>
 7    1  0.6255318E-006  0.1204121E+03  0.7818608E-02  0.1285934E+00
          2   -1    0    0  502    0  0.00000000000E+00  0.00000000000E+00  0.15905651838E+04  0.15905651838E+04  0.00000000000E+00 0. -1.
          1   -1    0    0  501    0 -0.00000000000E+00 -0.00000000000E+00 -0.69713962650E+03  0.69713962650E+03  0.00000000000E+00 0. -1.
         25    2    1    2    0    0 -0.94347475741E+02 -0.72248722027E+01  0.54153172573E+03  0.56376869400E+03  0.12499954161E+03 0.  0.
          2    1    1    2  501    0  0.97507980644E+02 -0.71442980608E+02 -0.67918383103E+03  0.68985692872E+03  0.00000000000E+00 0. -1.
          1    1    1    2  502    0 -0.31605049022E+01  0.78667852811E+02  0.10310776626E+04  0.10340791876E+04  0.00000000000E+00 0. -1.
         22    1    3    3    0    0 -0.57589716360E+02  0.23587267803E+02  0.88417800780E+02  0.10812327283E+03  0.00000000000E+00 0. -1.
         22    1    3    3    0    0 -0.36757759382E+02 -0.30812140006E+02  0.45311392495E+03  0.45564542117E+03  0.00000000000E+00 0. -1.
</event>
<event>
 7    1  0.6255318E-006  0.1656426E+03  0.7818608E-02  0.1366138E+00
          2   -1    0    0  502    0  0.00000000000E+00  0.00000000000E+00  0.70185736837E+03  0.70185736837E+03  0.00000000000E+00 0. -1.
          1   -1    0    0  501    0 -0.00000000000E+00 -0.00000000000E+00 -0.67309183071E+03  0.67309183071E+03  0.00000000000E+00 0. -1.
         25    2    1    2    0    0 -0.27148160681E+01 -0.17443160160E+03  0.10086738892E+03  0.23713379125E+03  0.12499780375E+03 0.  0.
          2    1    1    2  501    0 -0.25197352803E+02  0.12490467921E+02 -0.59194738781E+03  0.59261507601E+03  0.00000000000E+00 0. -1.
          1    1    1    2  502    0  0.27912168871E+02  0.16194113368E+03  0.51984553654E+03  0.54520033182E+03  0.00000000000E+00 0. -1.
         22    1    3    3    0    0  0.31546205613E+02 -0.16829296889E+03  0.10683368370E+03  0.20181952938E+03  0.00000000000E+00 0. -1.
         22    1    3    3    0    0 -0.34261021681E+02 -0.61386327072E+01 -0.59662947731E+01  0.35314261871E+02  0.00000000000E+00 0. -1.
</event>
<event>
 7    1  0.6255318E-006  0.1010245E+03  0.7818608E-02  0.1332817E+00
          2   -1    0    0  502    0  0.00000000000E+00  0.00000000000E+00  0.46230802748E+03  0.46230802748E+03  0.00000000000E+00 0. -1.
          1   -1    0    0  501    0 -0.00000000000E+00 -0.00000000000E+00 -0.27625677228E+04  0.27625677228E+04  0.00000000000E+00 0. -1.
         25    2    1    2    0    0 -0.24459654531E+02  0.50138905988E+02 -0.52666707394E+02  0.14666482282E+03  0.12499841436E+03 0.  0.
          2    1    1    2  501    0 -0.85647407464E+01 -0.10177065645E+03 -0.26596552842E+04  0.26616154591E+04  0.00000000000E+00 0. -1.
          1    1    1    2  502    0  0.33024395277E+02  0.51631750464E+02  0.41206229622E+03  0.41659546842E+03  0.00000000000E+00 0. -1.
         22    1    3    3    0    0 -0.14156930462E+02  0.19101705261E+02  0.41032233580E+02  0.47422969293E+02  0.00000000000E+00 0. -1.
         22    1    3    3    0    0 -0.10302724069E+02  0.31037200727E+02 -0.93698940974E+02  0.99241853529E+02  0.00000000000E+00 0. -1.
</event>
<event>
 7    1  0.6255318E-006  0.1413003E+03  0.7818608E-02  0.1300513E+00
          2   -1    0    0  502    0  0.00000000000E+00  0.00000000000E+00  0.15711182343E+03  0.15711182343E+03  0.00000000000E+00 0. -1.
          1   -1    0    0  501    0 -0.00000000000E+00 -0.00000000000E+00 -0.14099603701E+04  0.14099603701E+04  0.00000000000E+00 0. -1.
         25    2    1    2    0    0 -0.18681959349E+03 -0.48128889007E+02 -0.32323809599E+03  0.39664199838E+03  0.12499623079E+03 0.  0.
          2    1    1    2  501    0  0.13270494521E+03  0.25720794435E+02 -0.10382475158E+04  0.10470100600E+04  0.00000000000E+00 0. -1.
          1    1    1    2  502    0  0.54114648283E+02  0.22408094572E+02  0.10863706506E+03  0.12342013518E+03  0.00000000000E+00 0. -1.
         22    1    3    3    0    0 -0.54451239317E+01  0.29221336096E+02 -0.23636391834E+02  0.37976504273E+02  0.00000000000E+00 0. -1.
         22    1    3    3    0    0 -0.18137446956E+03 -0.77350225102E+02 -0.29960170415E+03  0.35866549410E+03  0.00000000000E+00 0. -1.
</event>
<event>
 7    1  0.6255318E-006  0.1324266E+03  0.7818608E-02  0.1309472E+00
          2   -1    0    0  502    0  0.00000000000E+00  0.00000000000E+00  0.22075290119E+04  0.22075290119E+04  0.00000000000E+00 0. -1.
          1   -1    0    0  501    0 -0.00000000000E+00 -0.00000000000E+00 -0.12108506748E+03  0.12108506748E+03  0.00000000000E+00 0. -1.
         25    2    1    2    0    0 -0.15888694216E+03 -0.88148395564E+02  0.43227538560E+03  0.48528470937E+03  0.12499616044E+03 0.  0.
          2    1    1    2  501    0  0.11915236921E+03  0.46477140807E+02 -0.50634245481E+02  0.13755449292E+03  0.00000000000E+00 0. -1.
          1    1    1    2  502    0  0.39734572947E+02  0.41671254756E+02  0.17048028043E+04  0.17057748771E+04  0.00000000000E+00 0. -1.
         22    1    3    3    0    0 -0.24145865510E+02 -0.23921882432E+02  0.23735726912E+03  0.23977854884E+03  0.00000000000E+00 0.  1.
         22    1    3    3    0    0 -0.13474107665E+03 -0.64226513132E+02  0.19491811648E+03  0.24550616053E+03  0.00000000000E+00 0.  1.
</event>
<event>
 7    1  0.6255318E-006  0.1057752E+03  0.7818608E-02  0.1362034E+00
          2   -1    0    0  502    0  0.00000000000E+00  0.00000000000E+00  0.25213548568E+04  0.25213548568E+04  0.00000000000E+00 0. -1.
          1   -1    0    0  501    0 -0.00000000000E+00 -0.00000000000E+00 -0.40522655394E+02  0.40522655394E+02  0.00000000000E+00 0. -1.
         25    2    1    2    0    0 -0.31088331073E+02 -0.59603453472E+02  0.38518377597E+03  0.41049962914E+03  0.12499739301E+03 0.  0.
          2    1    1    2  501    0 -0.36040418770E+02 -0.27897987940E+02 -0.67633596273E+01  0.46075509218E+02  0.00000000000E+00 0. -1.
          1    1    1    2  502    0  0.67128749843E+02  0.87501441412E+02  0.21024117851E+04  0.21053023738E+04  0.00000000000E+00 0. -1.
         22    1    3    3    0    0 -0.77526664346E+02 -0.39475135159E+02  0.19190862521E+03  0.21070735728E+03  0.00000000000E+00 0. -1.
         22    1    3    3    0    0  0.46438333274E+02 -0.20128318313E+02  0.19327515076E+03  0.19979227186E+03  0.00000000000E+00 0. -1.
</event>
<event>
 7    1  0.6255318E-006  0.1326760E+03  0.7818608E-02  0.1318718E+00
          2   -1    0    0  502    0  0.00000000000E+00  0.00000000000E+00  0.58882495491E+03  0.58882495491E+03  0.00000000000E+00 0. -1.
          1   -1    0    0  501    0 -0.00000000000E+00 -0.00000000000E+00 -0.71594371848E+03  0.71594371848E+03  0.00000000000E+00 0. -1.
         25    2    1    2    0    0 -0.15271583767E+03  0.46929595998E+02 -0.12057133095E+03  0.23598139677E+03  0.12500103887E+03 0.  0.
          2    1    1    2  501    0  0.44603445198E+02  0.28392619166E+02 -0.52815477764E+03  0.53079476005E+03  0.00000000000E+00 0. -1.
          1    1    1    2  502    0  0.10811239248E+03 -0.75322215163E+02  0.52160734502E+03  0.53799251657E+03  0.00000000000E+00 0. -1.
         22    1    3    3    0    0 -0.11744949892E+03  0.35511291914E+02 -0.14421394996E+02  0.12354518721E+03  0.00000000000E+00 0. -1.
         22    1    3    3    0    0 -0.35266338753E+02  0.11418304084E+02 -0.10614993595E+03  0.11243620956E+03  0.00000000000E+00 0. -1.
</event>
<event>
 7    1  0.6255318E-006  0.1797811E+03  0.7818608E-02  0.1305495E+00
          2   -1    0    0  502    0  0.00000000000E+00  0.00000000000E+00  0.16185595033E+04  0.16185595033E+04  0.00000000000E+00 0. -1.
          1   -1    0    0  501    0 -0.00000000000E+00 -0.00000000000E+00 -0.10288786864E+04  0.10288786864E+04  0.00000000000E+00 0. -1.
         25    2    1    2    0    0 -0.93380285526E+02  0.12200824317E+03  0.21165715522E+03  0.28987906949E+03  0.12500093777E+03 0.  0.
          2    1    1    2  501    0 -0.43967984790E+02  0.89755685585E+00 -0.98306493173E+03  0.98404809298E+03  0.00000000000E+00 0. -1.
          1    1    1    2  502    0  0.13734827032E+03 -0.12290580003E+03  0.13610885934E+04  0.13735110273E+04  0.00000000000E+00 0. -1.
         22    1    3    3    0    0 -0.11666443342E+03  0.93253914221E+02  0.12186954204E+03  0.19276687428E+03  0.00000000000E+00 0.  1.
         22    1    3    3    0    0  0.23284147896E+02  0.28754328952E+02  0.89787613182E+02  0.97112195206E+02  0.00000000000E+00 0.  1.
</event>
<event>
 7    1  0.6255318E-006  0.8847201E+02  0.7818608E-02  0.1348079E+00
          2   -1    0    0  502    0  0.00000000000E+00  0.00000000000E+00  0.26876398148E+03  0.26876398148E+03  0.00000000000E+00 0. -1.
          1   -1    0    0  501    0 -0.00000000000E+00 -0.00000000000E+00 -0.13120438588E+03  0.13120438588E+03  0.00000000000E+00 0. -1.
         25    2    1    2    0    0 -0.65562168960E+02 -0.27605845926E+02  0.92716924309E+02  0.17111905986E+03  0.12499929546E+03 0.  0.
          2    1    1    2  501    0 -0.35370933038E+02  0.50095120095E+02 -0.56990810937E+02  0.83717241310E+02  0.00000000000E+00 0. -1.
          1    1    1    2  502    0  0.10093310200E+03 -0.22489274168E+02  0.10183348223E+03  0.14513206618E+03  0.00000000000E+00 0. -1.
         22    1    3    3    0    0 -0.53317598197E+02 -0.29058198774E+02 -0.15122790149E+02  0.62576704734E+02  0.00000000000E+00 0.  1.
         22    1    3    3    0    0 -0.12244570763E+02  0.14523528471E+01  0.10783971446E+03  0.10854235513E+03  0.00000000000E+00 0.  1.
</event>
<event>
 7    1  0.6255318E-006  0.3619477E+02  0.7818608E-02  0.1562262E+00
          2   -1    0    0  502    0  0.00000000000E+00  0.00000000000E+00  0.12089651832E+04  0.12089651832E+04  0.00000000000E+00 0. -1.
          1   -1    0    0  501    0 -0.00000000000E+00 -0.00000000000E+00 -0.20498010997E+03  0.20498010997E+03  0.00000000000E+00 0. -1.
         25    2    1    2    0    0 -0.93592956932E+01 -0.26874468979E+02  0.39812051842E+03  0.41825243372E+03  0.12500127050E+03 0.  0.
          2    1    1    2  501    0  0.30847795771E+02 -0.32735417828E+01 -0.19324859162E+03  0.19572256064E+03  0.00000000000E+00 0. -1.
          1    1    1    2  502    0 -0.21488500078E+02  0.30148010761E+02  0.79911314640E+03  0.79997029878E+03  0.00000000000E+00 0. -1.
         22    1    3    3    0    0  0.50749181837E+02 -0.42358566409E+02  0.20944260796E+03  0.21962680536E+03  0.00000000000E+00 0. -1.
         22    1    3    3    0    0 -0.60108477531E+02  0.15484097431E+02  0.18867791046E+03  0.19862562835E+03  0.00000000000E+00 0. -1.
</event>
<event>
 7    1  0.6255318E-006  0.1169102E+03  0.7818608E-02  0.1356983E+00
          2   -1    0    0  502    0  0.00000000000E+00  0.00000000000E+00  0.11934397951E+04  0.11934397951E+04  0.00000000000E+00 0. -1.
          1   -1    0    0  501    0 -0.00000000000E+00 -0.00000000000E+00 -0.17428062669E+03  0.17428062669E+03  0.00000000000E+00 0. -1.
         25    2    1    2    0    0  0.85507768008E+02  0.11602005731E+02  0.80469703437E+03  0.81890718728E+03  0.12500191730E+03 0.  0.
          2    1    1    2  501    0 -0.11634479539E+03  0.18401321488E+02 -0.14498345997E+03  0.18680183005E+03  0.00000000000E+00 0. -1.
          1    1    1    2  502    0  0.30837027382E+02 -0.30003327219E+02  0.35944559398E+03  0.36201140443E+03  0.00000000000E+00 0. -1.
         22    1    3    3    0    0  0.74277691805E+02  0.51901494470E+02  0.70484112356E+03  0.71064192818E+03  0.00000000000E+00 0. -1.
         22    1    3    3    0    0  0.11230076202E+02 -0.40299488739E+02  0.99855910809E+02  0.10826525910E+03  0.00000000000E+00 0. -1.
</event>
<event>
 7    1  0.6255318E-006  0.1495804E+03  0.7818608E-02  0.1236084E+00
          2   -1    0    0  502    0  0.00000000000E+00  0.00000000000E+00  0.16498291356E+03  0.16498291356E+03  0.00000000000E+00 0. -1.
          1   -1    0    0  501    0 -0.00000000000E+00 -0.00000000000E+00 -0.77105746740E+03  0.77105746740E+03  0.00000000000E+00 0. -1.
         25    2    1    2    0    0  0.90454562837E+02  0.37881126221E+02 -0.47851837717E+03  0.50420922727E+03  0.12502039799E+03 0.  0.
          2    1    1    2  501    0 -0.20046173213E+02  0.10141780692E+03 -0.22514975724E+03  0.24774953845E+03  0.00000000000E+00 0. -1.
          1    1    1    2  502    0 -0.70408389624E+02 -0.13929893314E+03  0.97593580562E+02  0.18408161524E+03  0.00000000000E+00 0. -1.
         22    1    3    3    0    0  0.10125812638E+03  0.39151237555E+02 -0.48096018249E+03  0.49306056900E+03  0.00000000000E+00 0.  1.
         22    1    3    3    0    0 -0.10803563545E+02 -0.12701113342E+01  0.24418053199E+01  0.11148658273E+02  0.00000000000E+00 0.  1.
</event>
<event>
 7    1  0.6255318E-006  0.1258153E+03  0.7818608E-02  0.1340235E+00
          2   -1    0    0  502    0  0.00000000000E+00  0.00000000000E+00  0.21002735735E+03  0.21002735735E+03  0.00000000000E+00 0. -1.
          1   -1    0    0  501    0 -0.00000000000E+00 -0.00000000000E+00 -0.43432645779E+03  0.43432645779E+03  0.00000000000E+00 0. -1.
         25    2    1    2    0    0  0.69617734258E+02 -0.11418770346E+03 -0.15771338437E+03  0.24162804245E+03  0.12500055498E+03 0.  0.
          2    1    1    2  501    0 -0.97852524435E+02  0.77702540789E+02 -0.21424920482E+03  0.24802323107E+03  0.00000000000E+00 0. -1.
          1    1    1    2  502    0  0.28234790177E+02  0.36485162667E+02  0.14766348875E+03  0.15470254161E+03  0.00000000000E+00 0. -1.
         22    1    3    3    0    0 -0.95585603276E+01 -0.69961812315E+02 -0.14454671409E+02  0.72076062486E+02  0.00000000000E+00 0. -1.
         22    1    3    3    0    0  0.79176294586E+02 -0.44225891141E+02 -0.14325871296E+03  0.16955197997E+03  0.00000000000E+00 0. -1.
</event>
<event>
 7    1  0.6255318E-006  0.8997194E+02  0.7818608E-02  0.1388548E+00
          2   -1    0    0  502    0  0.00000000000E+00  0.00000000000E+00  0.14376875385E+04  0.14376875385E+04  0.00000000000E+00 0. -1.
          1   -1    0    0  501    0 -0.00000000000E+00 -0.00000000000E+00 -0.27484180716E+03  0.27484180716E+03  0.00000000000E+00 0. -1.
         25    2    1    2    0    0 -0.46758053721E+02  0.74323627279E+01  0.75985425575E+03  0.77152132860E+03  0.12500045954E+03 0.  0.
          2    1    1    2  501    0  0.88804597419E+02 -0.16887414675E+02 -0.26069556510E+03  0.27592321207E+03  0.00000000000E+00 0. -1.
          1    1    1    2  502    0 -0.42046543699E+02  0.94550519467E+01  0.66368704074E+03  0.66508480503E+03  0.00000000000E+00 0. -1.
         22    1    3    3    0    0 -0.55857232754E+02 -0.22676367157E+02  0.16221216303E+03  0.17305211328E+03  0.00000000000E+00 0.  1.
         22    1    3    3    0    0  0.90991790336E+01  0.30108729885E+02  0.59764209273E+03  0.59846921531E+03  0.00000000000E+00 0.  1.
</event>
<event>
 7    1  0.6255318E-006  0.7374371E+02  0.7818608E-02  0.1406530E+00
          2   -1    0    0  502    0  0.00000000000E+00  0.00000000000E+00  0.25689817303E+04  0.25689817303E+04  0.00000000000E+00 0. -1.
          1   -1    0    0  501    0 -0.00000000000E+00 -0.00000000000E+00 -0.20546700273E+04  0.20546700273E+04  0.00000000000E+00 0. -1.
         25    2    1    2    0    0 -0.84597031708E+02 -0.29022022877E+02  0.12120713999E+03  0.19574042832E+03  0.12499683559E+03 0.  0.
          2    1    1    2  501    0  0.12414436368E+02  0.43855565866E+02 -0.20165826158E+04  0.20170976365E+04  0.00000000000E+00 0. -1.
          1    1    1    2  502    0  0.72182595340E+02 -0.14833542989E+02  0.24096871788E+04  0.24108136927E+04  0.00000000000E+00 0. -1.
         22    1    3    3    0    0  0.22982594037E+02 -0.28801089158E+02  0.46741210371E+01  0.37142290894E+02  0.00000000000E+00 0. -1.
         22    1    3    3    0    0 -0.10757962574E+03 -0.22093371941E+00  0.11653301895E+03  0.15859813742E+03  0.00000000000E+00 0. -1.
</event>
<event>
 7    1  0.6255318E-006  0.1496319E+03  0.7818608E-02  0.1244645E+00
          2   -1    0    0  502    0  0.00000000000E+00  0.00000000000E+00  0.64901093476E+03  0.64901093476E+03  0.00000000000E+00 0. -1.
          1   -1    0    0  501    0 -0.00000000000E+00 -0.00000000000E+00 -0.62287059095E+03  0.62287059095E+03  0.00000000000E+00 0. -1.
         25    2    1    2    0    0  0.15366576248E+03 -0.15770003406E+03 -0.25171667511E+03  0.35702832514E+03  0.12500189247E+03 0.  0.
          2    1    1    2  501    0 -0.10918625317E+03  0.74044984420E+02 -0.30081716089E+03  0.32847414188E+03  0.00000000000E+00 0. -1.
          1    1    1    2  502    0 -0.44479509308E+02  0.83655049635E+02  0.57867417981E+03  0.58637905868E+03  0.00000000000E+00 0. -1.
         22    1    3    3    0    0  0.43978298904E+02 -0.88216574013E+02 -0.35400990574E+02  0.10473530846E+03  0.00000000000E+00 0. -1.
         22    1    3    3    0    0  0.10968746358E+03 -0.69483460042E+02 -0.21631568454E+03  0.25229301667E+03  0.00000000000E+00 0. -1.
</event>
<event>
 7    1  0.6255318E-006  0.1072044E+03  0.7818608E-02  0.1276003E+00
          2   -1    0    0  502    0  0.00000000000E+00  0.00000000000E+00  0.13933889125E+04  0.13933889125E+04  0.00000000000E+00 0. -1.
          1   -1    0    0  501    0 -0.00000000000E+00 -0.00000000000E+00 -0.17855228003E+03  0.17855228003E+03  0.00000000000E+00 0. -1.
         25    2    1    2    0    0 -0.79085113841E+02  0.15482733508E+03  0.13204531264E+03  0.25156841784E+03  0.12499898136E+03 0.  0.
          2    1    1    2  501    0 -0.21721218602E+01 -0.10152294816E+03 -0.94715832979E+02  0.13886221996E+03  0.00000000000E+00 0. -1.
          1    1    1    2  502    0  0.81257235701E+02 -0.53304386923E+02  0.11775071528E+04  0.11815105547E+04  0.00000000000E+00 0. -1.
         22    1    3    3    0    0 -0.10178089961E+03  0.15849407512E+03  0.12917791953E+03  0.22840021512E+03  0.00000000000E+00 0. -1.
         22    1    3    3    0    0  0.22695785765E+02 -0.36667400354E+01  0.28673931170E+01  0.23168202720E+02  0.00000000000E+00 0. -1.
</event>
<event>
 7    1  0.6255318E-006  0.3610549E+02  0.7818608E-02  0.1611181E+00
          2   -1    0    0  502    0  0.00000000000E+00  0.00000000000E+00  0.10954748403E+04  0.10954748403E+04  0.00000000000E+00 0. -1.
          1   -1    0    0  501    0 -0.00000000000E+00 -0.00000000000E+00 -0.33362651618E+03  0.33362651618E+03  0.00000000000E+00 0. -1.
         25    2    1    2    0    0  0.92864544438E+01  0.12942830325E+02  0.59471617493E+03  0.60791950393E+03  0.12500015778E+03 0.  0.
          2    1    1    2  501    0 -0.56301468757E+01 -0.35700624777E+02 -0.32575612669E+03  0.32775491947E+03  0.00000000000E+00 0. -1.
          1    1    1    2  502    0 -0.36563075681E+01  0.22757794451E+02  0.49288827591E+03  0.49342693312E+03  0.00000000000E+00 0. -1.
         22    1    3    3    0    0  0.12541386317E+02  0.60839214685E+01  0.80774889843E+00  0.13962554547E+02  0.00000000000E+00 0.  1.
         22    1    3    3    0    0 -0.32549318730E+01  0.68589088567E+01  0.59390842603E+03  0.59395694939E+03  0.00000000000E+00 0.  1.
</event>
<event>
 7    1  0.6255318E-006  0.9396622E+02  0.7818608E-02  0.1439729E+00
          2   -1    0    0  502    0  0.00000000000E+00  0.00000000000E+00  0.18906619039E+03  0.18906619039E+03  0.00000000000E+00 0. -1.
          1   -1    0    0  501    0 -0.00000000000E+00 -0.00000000000E+00 -0.18621319840E+04  0.18621319840E+04  0.00000000000E+00 0. -1.
         25    2    1    2    0    0  0.53486529188E+02 -0.72786218456E+02 -0.83131228541E+03  0.84549679527E+03  0.12500429007E+03 0.  0.
          2    1    1    2  501    0 -0.76785805859E+02  0.57730076466E+02 -0.10204008656E+04  0.10249130443E+04  0.00000000000E+00 0. -1.
          1    1    1    2  502    0  0.23299276671E+02  0.15056141990E+02  0.17864735743E+03  0.18078833486E+03  0.00000000000E+00 0. -1.
         22    1    3    3    0    0  0.89147907772E+02 -0.44266693488E+02 -0.68587888735E+03  0.69306329994E+03  0.00000000000E+00 0. -1.
         22    1    3    3    0    0 -0.35661378584E+02 -0.28519524968E+02 -0.14543339806E+03  0.15243349533E+03  0.00000000000E+00 0. -1.
</event>
<event>
 7    1  0.6255318E-006  0.1417579E+03  0.7818608E-02  0.1295354E+00
          2   -1    0    0  502    0  0.00000000000E+00  0.00000000000E+00  0.52522572789E+03  0.52522572789E+03  0.00000000000E+00 0. -1.
          1   -1    0    0  501    0 -0.00000000000E+00 -0.00000000000E+00 -0.59350435165E+03  0.59350435165E+03  0.00000000000E+00 0. -1.
         25    2    1    2    0    0 -0.19118448310E+03  0.22931260558E+02  0.18552772624E+02  0.23032140066E+03  0.12500557164E+03 0.  0.
          2    1    1    2  501    0  0.54877741009E+02 -0.27167233929E+02 -0.47399270516E+03  0.47793169973E+03  0.00000000000E+00 0. -1.
          1    1    1    2  502    0  0.13630674209E+03  0.42359733709E+01  0.38716130878E+03  0.41047697916E+03  0.00000000000E+00 0. -1.
         22    1    3    3    0    0 -0.95881140240E+02  0.54440996965E+02  0.55400453935E+02  0.12339459267E+03  0.00000000000E+00 0. -1.
         22    1    3    3    0    0 -0.95303342856E+02 -0.31509736407E+02 -0.36847681311E+02  0.10692680799E+03  0.00000000000E+00 0. -1.
</event>
<event>
 7    1  0.6255318E-006  0.6813957E+02  0.7818608E-02  0.1506396E+00
          2   -1    0    0  502    0  0.00000000000E+00  0.00000000000E+00  0.16446157355E+04  0.16446157355E+04  0.00000000000E+00 0. -1.
          1   -1    0    0  501    0 -0.00000000000E+00 -0.00000000000E+00 -0.81846896637E+02  0.81846896637E+02  0.00000000000E+00 0. -1.
         25    2    1    2    0    0 -0.78210741437E+02 -0.26602686534E+02  0.75365169514E+02  0.16771976689E+03  0.12500155368E+03 0.  0.
          2    1    1    2  501    0  0.21313201121E+02 -0.10531204487E+02 -0.30862586212E+02  0.38957130768E+02  0.00000000000E+00 0. -1.
          1    1    1    2  502    0  0.56897540316E+02  0.37133891021E+02  0.15182662556E+04  0.15197857345E+04  0.00000000000E+00 0. -1.
         22    1    3    3    0    0 -0.17712947266E+02 -0.70847206815E+02  0.24051278684E+02  0.76886534716E+02  0.00000000000E+00 0.  1.
         22    1    3    3    0    0 -0.60497794171E+02  0.44244520281E+02  0.51313890831E+02  0.90833232171E+02  0.00000000000E+00 0.  1.
</event>
<event>
 7    1  0.6255318E-006  0.1309284E+03  0.7818608E-02  0.1358229E+00
          2   -1    0    0  502    0  0.00000000000E+00  0.00000000000E+00  0.10064428118E+04  0.10064428118E+04  0.00000000000E+00 0. -1.
          1   -1    0    0  501    0 -0.00000000000E+00 -0.00000000000E+00 -0.27965480442E+04  0.27965480442E+04  0.00000000000E+00 0. -1.
         25    2    1    2    0    0  0.72736698802E+02 -0.14648259900E+03 -0.14953156618E+02  0.20639391771E+03  0.12500829258E+03 0.  0.
          2    1    1    2  501    0 -0.29133882337E+02  0.24422932939E+02 -0.26811274091E+04  0.26813969207E+04  0.00000000000E+00 0. -1.
          1    1    1    2  502    0 -0.43602816465E+02  0.12205966606E+03  0.90597533328E+03  0.91520001759E+03  0.00000000000E+00 0. -1.
         22    1    3    3    0    0  0.46154208906E+02 -0.12869555083E+03 -0.61500457825E+02  0.14991685067E+03  0.00000000000E+00 0.  1.
         22    1    3    3    0    0  0.26582489897E+02 -0.17787048173E+02  0.46547301207E+02  0.56477067040E+02  0.00000000000E+00 0.  1.
</event>
<event>
 7    1  0.1295714E-005  0.4096098E+02  0.7818608E-02  0.1524250E+00
          2   -1    0    0  502    0  0.00000000000E+00  0.00000000000E+00  0.11485264857E+04  0.11485264857E+04  0.00000000000E+00 0. -1.
          1   -1    0    0  501    0 -0.00000000000E+00 -0.00000000000E+00 -0.23589547815E+04  0.23589547815E+04  0.00000000000E+00 0. -1.
         25    2    1    2    0    0  0.21141776065E+02 -0.85095067815E+01 -0.39597164874E+03  0.41585754546E+03  0.12499826043E+03 0.  0.
          2    1    1    2  501    0 -0.76639814053E+01  0.40886199360E+02 -0.19525485474E+04  0.19529916149E+04  0.00000000000E+00 0. -1.
          1    1    1    2  502    0 -0.13477794659E+02 -0.32376692579E+02  0.11380919003E+04  0.11386321069E+04  0.00000000000E+00 0. -1.
         22    1    3    3    0    0  0.62248791239E+02  0.30935211652E+02 -0.19775609933E+03  0.20961720863E+03  0.00000000000E+00 0.  1.
         22    1    3    3    0    0 -0.41107015175E+02 -0.39444718434E+02 -0.19821554941E+03  0.20624033683E+03  0.00000000000E+00 0.  1.
</event>
<event>
 7    1  0.6255318E-006  0.4383501E+02  0.7818608E-02  0.1537484E+00
          2   -1    0    0  502    0  0.00000000000E+00  0.00000000000E+00  0.38669648771E+03  0.38669648771E+03  0.00000000000E+00 0. -1.
          1   -1    0    0  501    0 -0.00000000000E+00 -0.00000000000E+00 -0.18365681231E+04  0.18365681231E+04  0.00000000000E+00 0. -1.
         25    2    1    2    0    0  0.25295383689E+02  0.29893891448E+02 -0.10996085302E+04  0.11073822972E+04  0.12499252483E+03 0.  0.
          2    1    1    2  501    0 -0.45573362028E+02 -0.77389817360E+01 -0.73175318682E+03  0.73321180404E+03  0.00000000000E+00 0. -1.
          1    1    1    2  502    0  0.20277978339E+02 -0.22154909712E+02  0.38149008169E+03  0.38267050952E+03  0.00000000000E+00 0. -1.
         22    1    3    3    0    0  0.37189466982E+02 -0.81583628964E+01 -0.10036976975E+03  0.10734852593E+03  0.00000000000E+00 0. -1.
         22    1    3    3    0    0 -0.11894083293E+02  0.38052254344E+02 -0.99923876048E+03  0.10000337713E+04  0.00000000000E+00 0. -1.
</event>
<event>
 7    1  0.6255318E-006  0.7584559E+02  0.7818608E-02  0.1424777E+00
          2   -1    0    0  502    0  0.00000000000E+00  0.00000000000E+00  0.22348171904E+04  0.22348171904E+04  0.00000000000E+00 0. -1.
          1   -1    0    0  501    0 -0.00000000000E+00 -0.00000000000E+00 -0.19491300153E+03  0.19491300153E+03  0.00000000000E+00 0. -1.
         25    2    1    2    0    0 -0.16183961011E+02 -0.51440575296E+02  0.19528357620E+02  0.13752916383E+03  0.12499944309E+03 0.  0.
          2    1    1    2  501    0 -0.38444094551E+02 -0.16396531639E+01 -0.13250201790E+03  0.13797616321E+03  0.00000000000E+00 0. -1.
          1    1    1    2  502    0  0.54628055562E+02  0.53080228460E+02  0.21528778491E+04  0.21542248649E+04  0.00000000000E+00 0. -1.
         22    1    3    3    0    0  0.49795145793E+02 -0.48149387192E+02  0.17469205523E+02  0.71435937546E+02  0.00000000000E+00 0. -1.
         22    1    3    3    0    0 -0.65979106804E+02 -0.32911881043E+01  0.20591520969E+01  0.66093226287E+02  0.00000000000E+00 0. -1.
</event>
<event>
 7    1  0.6394353E-006  0.5825120E+02  0.7818608E-02  0.1407850E+00
          2   -1    0    0  502    0  0.00000000000E+00  0.00000000000E+00  0.67717654064E+03  0.67717654064E+03  0.00000000000E+00 0. -1.
          1   -1    0    0  501    0 -0.00000000000E+00 -0.00000000000E+00 -0.10156465972E+04  0.10156465972E+04  0.00000000000E+00 0. -1.
         25    2    1    2    0    0 -0.19155255620E+02  0.41900391780E+02 -0.46809500912E+03  0.48668346269E+03  0.12500115456E+03 0.  0.
          2    1    1    2  501    0 -0.38392191219E+02 -0.50927807498E+02 -0.53508988741E+03  0.53887734182E+03  0.00000000000E+00 0. -1.
          1    1    1    2  502    0  0.57547446839E+02  0.90274157180E+01  0.66471484002E+03  0.66726233328E+03  0.00000000000E+00 0. -1.
         22    1    3    3    0    0 -0.59783120694E+02  0.63159632207E+02 -0.32399839837E+03  0.33546702194E+03  0.00000000000E+00 0. -1.
         22    1    3    3    0    0  0.40627865074E+02 -0.21259240427E+02 -0.14409661075E+03  0.15121644075E+03  0.00000000000E+00 0. -1.
</event>
<event>
 7    1  0.6255318E-006  0.4175991E+02  0.7818608E-02  0.1533416E+00
          2   -1    0    0  502    0  0.00000000000E+00  0.00000000000E+00  0.41304923994E+03  0.41304923994E+03  0.00000000000E+00 0. -1.
          1   -1    0    0  501    0 -0.00000000000E+00 -0.00000000000E+00 -0.18971556977E+04  0.18971556977E+04  0.00000000000E+00 0. -1.
         25    2    1    2    0    0  0.16557382281E+02  0.21936390303E+01 -0.57025256947E+03  0.58403031928E+03  0.12499784755E+03 0.  0.
          2    1    1    2  501    0 -0.29003687525E+02 -0.32083427004E+02 -0.13190139912E+04  0.13197228759E+04  0.00000000000E+00 0. -1.
          1    1    1    2  502    0  0.12446305244E+02  0.29889787973E+02  0.40516010292E+03  0.40645174245E+03  0.00000000000E+00 0. -1.
         22    1    3    3    0    0  0.33515109544E+02 -0.27967702503E+02 -0.69418105005E+02  0.82002001522E+02  0.00000000000E+00 0. -1.
         22    1    3    3    0    0 -0.16957727263E+02  0.30161341533E+02 -0.50083446446E+03  0.50202831776E+03  0.00000000000E+00 0. -1.
</event>
<event>
 7    1  0.6255318E-006  0.2791848E+03  0.7818608E-02  0.1295037E+00
          2   -1    0    0  502    0  0.00000000000E+00  0.00000000000E+00  0.23346134324E+04  0.23346134324E+04  0.00000000000E+00 0. -1.
          1   -1    0    0  501    0 -0.00000000000E+00 -0.00000000000E+00 -0.14806537903E+03  0.14806537903E+03  0.00000000000E+00 0. -1.
         25    2    1    2    0    0  0.29148839051E+03  0.81760816729E+02  0.67451628881E+03  0.74983156986E+03  0.12499938531E+03 0.  0.
          2    1    1    2  501    0 -0.26038775294E+03 -0.84036667233E+02  0.59533927497E+02  0.28001469933E+03  0.00000000000E+00 0. -1.
          1    1    1    2  502    0 -0.31100637575E+02  0.22758505045E+01  0.14524978371E+04  0.14528325423E+04  0.00000000000E+00 0. -1.
         22    1    3    3    0    0  0.22443654071E+03  0.66944302178E+01  0.50532355924E+03  0.55296335840E+03  0.00000000000E+00 0.  1.
         22    1    3    3    0    0  0.67051849796E+02  0.75066386511E+02  0.16919272957E+03  0.19686821146E+03  0.00000000000E+00 0.  1.
</event>
<event>
 7    1  0.6255318E-006  0.3482680E+02  0.7818608E-02  0.1592278E+00
          2   -1    0    0  502    0  0.00000000000E+00  0.00000000000E+00  0.86723713792E+03  0.86723713792E+03  0.00000000000E+00 0. -1.
          1   -1    0    0  501    0 -0.00000000000E+00 -0.00000000000E+00 -0.58029958315E+03  0.58029958315E+03  0.00000000000E+00 0. -1.
         25    2    1    2    0    0  0.15682887889E+02 -0.16916578299E+02 -0.76052973338E+02  0.14812461503E+03  0.12499889292E+03 0.  0.
          2    1    1    2  501    0 -0.35160078169E+02 -0.14446531342E+01 -0.46733361564E+03  0.46865661888E+03  0.00000000000E+00 0. -1.
          1    1    1    2  502    0  0.19477190280E+02  0.18361231433E+02  0.83032414374E+03  0.83075548716E+03  0.00000000000E+00 0. -1.
         22    1    3    3    0    0  0.37308804290E+02 -0.53588460503E+01 -0.10419248745E+03  0.11080044472E+03  0.00000000000E+00 0. -1.
         22    1    3    3    0    0 -0.21625916401E+02 -0.11557732249E+02  0.28139514115E+02  0.37324170313E+02  0.00000000000E+00 0. -1.
</event>
<event>
 7    1  0.6255318E-006  0.4987142E+02  0.7818608E-02  0.1459981E+00
          2   -1    0    0  502    0  0.00000000000E+00  0.00000000000E+00  0.18039561017E+04  0.18039561017E+04  0.00000000000E+00 0. -1.
          1   -1    0    0  501    0 -0.00000000000E+00 -0.00000000000E+00 -0.22946325027E+03  0.22946325027E+03  0.00000000000E+00 0. -1.
         25    2    1    2    0    0 -0.57510802152E+01  0.16669771617E+02 -0.73853838776E+02  0.14625469605E+03  0.12500036162E+03 0.  0.
          2    1    1    2  501    0 -0.43841128308E+02 -0.10244071031E+02 -0.11479805355E+03  0.12331090228E+03  0.00000000000E+00 0. -1.
          1    1    1    2  502    0  0.49592208523E+02 -0.64257005868E+01  0.17631447438E+04  0.17638537537E+04  0.00000000000E+00 0. -1.
         22    1    3    3    0    0  0.26279495552E+02 -0.37800868656E+02  0.37350684641E+01  0.46189482505E+02  0.00000000000E+00 0. -1.
         22    1    3    3    0    0 -0.32030575767E+02  0.54470640273E+02 -0.77588907240E+02  0.10006521355E+03  0.00000000000E+00 0. -1.
</event>
<event>
 7    1  0.6255318E-006  0.8133743E+02  0.7818608E-02  0.1400934E+00
          2   -1    0    0  502    0  0.00000000000E+00  0.00000000000E+00  0.27236133154E+04  0.27236133154E+04  0.00000000000E+00 0. -1.
          1   -1    0    0  501    0 -0.00000000000E+00 -0.00000000000E+00 -0.51557148468E+02  0.51557148468E+02  0.00000000000E+00 0. -1.
         25    2    1    2    0    0  0.53535937640E+02 -0.20639538211E+02  0.61020208644E+03  0.62551053738E+03  0.12499903571E+03 0.  0.
          2    1    1    2  501    0 -0.82542847106E+02 -0.11353632298E+02 -0.39413125680E+01  0.83413191519E+02  0.00000000000E+00 0. -1.
          1    1    1    2  502    0  0.29006909466E+02  0.31993170508E+02  0.20657953931E+04  0.20662467350E+04  0.00000000000E+00 0. -1.
         22    1    3    3    0    0  0.63780276275E+02 -0.80525386393E+01  0.60509007574E+03  0.60849549446E+03  0.00000000000E+00 0. -1.
         22    1    3    3    0    0 -0.10244338634E+02 -0.12586999571E+02  0.51120106960E+01  0.17015042922E+02  0.00000000000E+00 0. -1.
</event>
<event>
 7    1  0.6255318E-006  0.1052749E+03  0.7818608E-02  0.1297212E+00
          2   -1    0    0  502    0  0.00000000000E+00  0.00000000000E+00  0.72509466694E+03  0.72509466694E+03  0.00000000000E+00 0. -1.
          1   -1    0    0  501    0 -0.00000000000E+00 -0.00000000000E+00 -0.68234806690E+03  0.68234806690E+03  0.00000000000E+00 0. -1.
         25    2    1    2    0    0 -0.51515623078E+02 -0.17101259162E+03  0.19474855786E+03  0.29231989450E+03  0.12499901607E+03 0.  0.
          2    1    1    2  501    0  0.27682083492E+02  0.76172558321E+02 -0.62595840505E+03  0.63118339747E+03  0.00000000000E+00 0. -1.
          1    1    1    2  502    0  0.23833539586E+02  0.94840033296E+02  0.47395644723E+03  0.48393944187E+03  0.00000000000E+00 0. -1.
         22    1    3    3    0    0 -0.24103049608E+02 -0.11465937636E+03  0.19744894068E+03  0.22959489054E+03  0.00000000000E+00 0.  1.
         22    1    3    3    0    0 -0.27412573469E+02 -0.56353215261E+02 -0.27003828189E+01  0.62725003960E+02  0.00000000000E+00 0.  1.
</event>
<event>
 7    1  0.6255318E-006  0.7609932E+02  0.7818608E-02  0.1386439E+00
          2   -1    0    0  502    0  0.00000000000E+00  0.00000000000E+00  0.26229789037E+03  0.26229789037E+03  0.00000000000E+00 0. -1.
          1   -1    0    0  501    0 -0.00000000000E+00 -0.00000000000E+00 -0.26035502144E+03  0.26035502144E+03  0.00000000000E+00 0. -1.
         25    2    1    2    0    0  0.11732873423E+03 -0.13705134835E+02  0.16845571836E+02  0.17280865406E+03  0.12500078012E+03 0.  0.
          2    1    1    2  501    0 -0.72151836965E+02 -0.11692547412E+02 -0.17067969955E+03  0.18567219254E+03  0.00000000000E+00 0. -1.
          1    1    1    2  502    0 -0.45176897268E+02  0.25397682248E+02  0.15577699665E+03  0.16417206521E+03  0.00000000000E+00 0. -1.
         22    1    3    3    0    0  0.15355530507E+02 -0.34594575598E+02 -0.39282036512E+02  0.54549568014E+02  0.00000000000E+00 0. -1.
         22    1    3    3    0    0  0.10197320373E+03  0.20889440763E+02  0.56127608347E+02  0.11825908605E+03  0.00000000000E+00 0. -1.
</event>
<event>
 7    1  0.6255318E-006  0.1616894E+03  0.7818608E-02  0.1301517E+00
          2   -1    0    0  502    0  0.00000000000E+00  0.00000000000E+00  0.13671297510E+04  0.13671297510E+04  0.00000000000E+00 0. -1.
          1   -1    0    0  501    0 -0.00000000000E+00 -0.00000000000E+00 -0.56819111435E+03  0.56819111435E+03  0.00000000000E+00 0. -1.
         25    2    1    2    0    0 -0.11052904825E+03 -0.17093587305E+02  0.69162611136E+03  0.71167453137E+03  0.12500039778E+03 0.  0.
          2    1    1    2  501    0  0.16090806239E+03  0.22914856612E+02 -0.54533049085E+03  0.56903588590E+03  0.00000000000E+00 0. -1.
          1    1    1    2  502    0 -0.50379014140E+02 -0.58212693073E+01  0.65264301611E+03  0.65461044807E+03  0.00000000000E+00 0. -1.
         22    1    3    3    0    0 -0.87899866150E+02 -0.62671194472E+02  0.56473149683E+03  0.57495715370E+03  0.00000000000E+00 0. -1.
         22    1    3    3    0    0 -0.22629182100E+02  0.45577607167E+02  0.12689461454E+03  0.13671737767E+03  0.00000000000E+00 0. -1.
</event>
<event>
 7    1  0.6255318E-006  0.9976550E+02  0.7818608E-02  0.1281067E+00
          2   -1    0    0  502    0  0.00000000000E+00  0.00000000000E+00  0.19002691859E+04  0.19002691859E+04  0.00000000000E+00 0. -1.
          1   -1    0    0  501    0 -0.00000000000E+00 -0.00000000000E+00 -0.22614447283E+03  0.22614447283E+03  0.00000000000E+00 0. -1.
         25    2    1    2    0    0  0.10130514896E+03 -0.83575468995E+02  0.64152553907E+03  0.66665397200E+03  0.12499963554E+03 0.  0.
          2    1    1    2  501    0 -0.21240918746E+01  0.99742885120E+02 -0.19977210028E+03  0.22329811228E+03  0.00000000000E+00 0. -1.
          1    1    1    2  502    0 -0.99181057082E+02 -0.16167416125E+02  0.12323712743E+04  0.12364615745E+04  0.00000000000E+00 0. -1.
         22    1    3    3    0    0  0.63677587397E+02  0.32843276362E+01  0.11326336232E+03  0.12997773344E+03  0.00000000000E+00 0.  1.
         22    1    3    3    0    0  0.37627561559E+02 -0.86859796631E+02  0.52826217674E+03  0.53667623856E+03  0.00000000000E+00 0.  1.
</event>
<event>
 7    1  0.6255318E-006  0.4546109E+02  0.7818608E-02  0.1479770E+00
          2   -1    0    0  502    0  0.00000000000E+00  0.00000000000E+00  0.23323765630E+03  0.23323765630E+03  0.00000000000E+00 0. -1.
          1   -1    0    0  501    0 -0.00000000000E+00 -0.00000000000E+00 -0.21813991392E+03  0.21813991392E+03  0.00000000000E+00 0. -1.
         25    2    1    2    0    0 -0.40137428850E+02  0.70527058958E+02 -0.24304830227E+02  0.15098968416E+03  0.12498832229E+03 0.  0.
          2    1    1    2  501    0  0.56781612733E+01 -0.42483301285E+02 -0.12392378679E+03  0.13112656991E+03  0.00000000000E+00 0. -1.
          1    1    1    2  502    0  0.34459267577E+02 -0.28043757672E+02  0.16332635940E+03  0.16926131614E+03  0.00000000000E+00 0. -1.
         22    1    3    3    0    0 -0.20204158944E+02 -0.34576848284E+02  0.42360053191E+01  0.40270463332E+02  0.00000000000E+00 0.  1.
         22    1    3    3    0    0 -0.19933269906E+02  0.10510390724E+03 -0.28540835546E+02  0.11071922083E+03  0.00000000000E+00 0.  1.
</event>
<event>
 7    1  0.6255318E-006  0.7981850E+02  0.7818608E-02  0.1369803E+00
          2   -1    0    0  502    0  0.00000000000E+00  0.00000000000E+00  0.16878559914E+04  0.16878559914E+04  0.00000000000E+00 0. -1.
          1   -1    0    0  501    0 -0.00000000000E+00 -0.00000000000E+00 -0.27015313495E+03  0.27015313495E+03  0.00000000000E+00 0. -1.
         25    2    1    2    0    0 -0.99012090975E+02  0.86715680280E+02  0.87659946846E+01  0.18172384581E+03  0.12499484033E+03 0.  0.
          2    1    1    2  501    0  0.52567815540E+02 -0.54342688641E+02 -0.17536637363E+03  0.19097085652E+03  0.00000000000E+00 0. -1.
          1    1    1    2  502    0  0.46444275435E+02 -0.32372991639E+02  0.15843032354E+04  0.15853144240E+04  0.00000000000E+00 0. -1.
         22    1    3    3    0    0 -0.10048419545E+03  0.94421333422E+01  0.22038298834E+02  0.10330495647E+03  0.00000000000E+00 0.  1.
         22    1    3    3    0    0  0.14721044718E+01  0.77273546938E+02 -0.13272304149E+02  0.78418889340E+02  0.00000000000E+00 0.  1.
</event>
<event>
 7    1  0.6255318E-006  0.8270806E+02  0.7818608E-02  0.1380012E+00
          2   -1    0    0  502    0  0.00000000000E+00  0.00000000000E+00  0.55829671309E+03  0.55829671309E+03  0.00000000000E+00 0. -1.
          1   -1    0    0  501    0 -0.00000000000E+00 -0.00000000000E+00 -0.14838965500E+03  0.14838965500E+03  0.00000000000E+00 0. -1.
         25    2    1    2    0    0  0.44338937608E+02  0.72051516055E+01 -0.61743795708E+02  0.14647895508E+03  0.12500372944E+03 0.  0.
          2    1    1    2  501    0  0.21316146057E+02  0.45492712894E+02 -0.25248394219E+02  0.56226741145E+02  0.00000000000E+00 0. -1.
          1    1    1    2  502    0 -0.65655083665E+02 -0.52697864499E+02  0.49689924802E+03  0.50398067187E+03  0.00000000000E+00 0. -1.
         22    1    3    3    0    0 -0.17477419859E+02  0.41903509009E+02  0.90485575422E+01  0.46295147324E+02  0.00000000000E+00 0.  1.
         22    1    3    3    0    0  0.61816357468E+02 -0.34698357403E+02 -0.70792353250E+02  0.10018380775E+03  0.00000000000E+00 0.  1.
</event>
<event>
 7    1  0.6255318E-006  0.7096145E+02  0.7818608E-02  0.1464414E+00
          2   -1    0    0  502    0  0.00000000000E+00  0.00000000000E+00  0.69575204776E+03  0.69575204776E+03  0.00000000000E+00 0. -1.
          1   -1    0    0  501    0 -0.00000000000E+00 -0.00000000000E+00 -0.81007470368E+03  0.81007470368E+03  0.00000000000E+00 0. -1.
         25    2    1    2    0    0  0.66198808948E+02  0.67867726697E+02 -0.32394092841E+03  0.35993116737E+03  0.12499763804E+03 0.  0.
          2    1    1    2  501    0 -0.29812527024E+02 -0.70795098893E+01 -0.46578249373E+03  0.46678928618E+03  0.00000000000E+00 0. -1.
          1    1    1    2  502    0 -0.36386281924E+02 -0.60788216807E+02  0.67540076622E+03  0.67910629788E+03  0.00000000000E+00 0. -1.
         22    1    3    3    0    0  0.23403059315E+02 -0.23258656273E+02 -0.17442211806E+02  0.37321562530E+02  0.00000000000E+00 0. -1.
         22    1    3    3    0    0  0.42795749633E+02  0.91126382970E+02 -0.30649871660E+03  0.32260960484E+03  0.00000000000E+00 0. -1.
</event>
<event>
 7    1  0.6255318E-006  0.5271635E+02  0.7818608E-02  0.1496687E+00
          2   -1    0    0  502    0  0.00000000000E+00  0.00000000000E+00  0.76521654569E+03  0.76521654569E+03  0.00000000000E+00 0. -1.
          1   -1    0    0  501    0 -0.00000000000E+00 -0.00000000000E+00 -0.74770420638E+03  0.74770420638E+03  0.00000000000E+00 0. -1.
         25    2    1    2    0    0 -0.30842994085E+02  0.50566332896E+02  0.47380952525E+02  0.14620882355E+03  0.12499528438E+03 0.  0.
          2    1    1    2  501    0 -0.19302337131E+01 -0.52714069552E+02 -0.69688945943E+03  0.69888297847E+03  0.00000000000E+00 0. -1.
          1    1    1    2  502    0  0.32773227798E+02  0.21477366566E+01  0.66702084622E+03  0.66782895005E+03  0.00000000000E+00 0. -1.
         22    1    3    3    0    0 -0.33730167389E+02  0.36404266814E+02 -0.36174024310E+02  0.61412986160E+02  0.00000000000E+00 0.  1.
         22    1    3    3    0    0  0.28871733040E+01  0.14162066081E+02  0.83554976834E+02  0.84795837393E+02  0.00000000000E+00 0.  1.
</event>
<event>
 7    1  0.6255318E-006  0.9508057E+02  0.7818608E-02  0.1395630E+00
          2   -1    0    0  502    0  0.00000000000E+00  0.00000000000E+00  0.13550634938E+04  0.13550634938E+04  0.00000000000E+00 0. -1.
          1   -1    0    0  501    0 -0.00000000000E+00 -0.00000000000E+00 -0.48647057039E+03  0.48647057039E+03  0.00000000000E+00 0. -1.
         25    2    1    2    0    0 -0.57452948691E+02  0.11292086175E+03  0.23168608228E+03  0.29215339958E+03  0.12499282311E+03 0.  0.
          2    1    1    2  501    0  0.14749180833E+01 -0.38503372237E+02 -0.45343516746E+03  0.45506937510E+03  0.00000000000E+00 0. -1.
          1    1    1    2  502    0  0.55978030608E+02 -0.74417489514E+02  0.10903420086E+04  0.10943112895E+04  0.00000000000E+00 0. -1.
         22    1    3    3    0    0 -0.49362313013E+02  0.19806205905E+02  0.13623910387E+02  0.54904778231E+02  0.00000000000E+00 0. -1.
         22    1    3    3    0    0 -0.80906356786E+01  0.93114655846E+02  0.21806217189E+03  0.23724862134E+03  0.00000000000E+00 0. -1.
</event>
<event>
 7    1  0.6255318E-006  0.9613242E+02  0.7818608E-02  0.1379827E+00
          2   -1    0    0  502    0  0.00000000000E+00  0.00000000000E+00  0.14691774425E+04  0.14691774425E+04  0.00000000000E+00 0. -1.
          1   -1    0    0  501    0 -0.00000000000E+00 -0.00000000000E+00 -0.42230792274E+02  0.42230792274E+02  0.00000000000E+00 0. -1.
         25    2    1    2    0    0 -0.39846446612E+02 -0.73408605470E+02  0.55319011396E+03  0.57325482518E+03  0.12500091897E+03 0.  0.
          2    1    1    2  501    0 -0.41440150961E+02  0.12514620952E+02 -0.13312143186E+02  0.45289237193E+02  0.00000000000E+00 0. -1.
          1    1    1    2  502    0  0.81286597573E+02  0.60893984517E+02  0.88706867943E+03  0.89286417238E+03  0.00000000000E+00 0. -1.
         22    1    3    3    0    0  0.28991782787E+02 -0.14104955540E+02  0.33979895877E+03  0.34132507324E+03  0.00000000000E+00 0. -1.
         22    1    3    3    0    0 -0.68838229399E+02 -0.59303649930E+02  0.21339115519E+03  0.23192975194E+03  0.00000000000E+00 0. -1.
</event>
<event>
 7    1  0.6255318E-006  0.4893922E+02  0.7818608E-02  0.1459779E+00
          2   -1    0    0  502    0  0.00000000000E+00  0.00000000000E+00  0.19671438244E+02  0.19671438244E+02  0.00000000000E+00 0. -1.
          1   -1    0    0  501    0 -0.00000000000E+00 -0.00000000000E+00 -0.15161074370E+04  0.15161074370E+04  0.00000000000E+00 0. -1.
         25    2    1    2    0    0  0.41576289765E+01  0.38346828371E+01 -0.79985191556E+03  0.80958111565E+03  0.12500602112E+03 0.  0.
          2    1    1    2  501    0  0.39585908890E+02  0.23325056751E+02 -0.66329513926E+03  0.66488460970E+03  0.00000000000E+00 0. -1.
          1    1    1    2  502    0 -0.43743537866E+02 -0.27159739588E+02 -0.33288943903E+02  0.61313149860E+02  0.00000000000E+00 0. -1.
         22    1    3    3    0    0 -0.57619667444E+02 -0.19443760153E+01 -0.26856764167E+03  0.27468597494E+03  0.00000000000E+00 0. -1.
         22    1    3    3    0    0  0.61777296420E+02  0.57790588525E+01 -0.53128427389E+03  0.53489514071E+03  0.00000000000E+00 0. -1.
</event>
<event>
 7    1  0.6255318E-006  0.4272064E+02  0.7818608E-02  0.1605109E+00
          2   -1    0    0  502    0  0.00000000000E+00  0.00000000000E+00  0.40949886571E+03  0.40949886571E+03  0.00000000000E+00 0. -1.
          1   -1    0    0  501    0 -0.00000000000E+00 -0.00000000000E+00 -0.44329859468E+02  0.44329859468E+02  0.00000000000E+00 0. -1.
         25    2    1    2    0    0 -0.19274990877E+01 -0.56494909115E+02  0.18091016677E+03  0.22704399486E+03  0.12500038861E+03 0.  0.
          2    1    1    2  501    0 -0.10093372762E+02  0.40264060263E+02  0.88290952951E-01  0.41509980943E+02  0.00000000000E+00 0. -1.
          1    1    1    2  502    0  0.12020871849E+02  0.16230848852E+02  0.18417054852E+03  0.18527474937E+03  0.00000000000E+00 0. -1.
         22    1    3    3    0    0 -0.61910511491E+02 -0.27686550589E+02  0.11420248867E+03  0.13282192942E+03  0.00000000000E+00 0. -1.
         22    1    3    3    0    0  0.59983012404E+02 -0.28808358526E+02  0.66707678103E+02  0.94222065440E+02  0.00000000000E+00 0. -1.
</event>
<event>
 7    1  0.6255318E-006  0.3121751E+03  0.7818608E-02  0.1214973E+00
          2   -1    0    0  502    0  0.00000000000E+00  0.00000000000E+00  0.29958526702E+04  0.29958526702E+04  0.00000000000E+00 0. -1.
          1   -1    0    0  501    0 -0.00000000000E+00 -0.00000000000E+00 -0.59175422936E+03  0.59175422936E+03  0.00000000000E+00 0. -1.
         25    2    1    2    0    0 -0.26969306146E+03  0.19755372928E+03  0.36054631691E+03  0.50732703724E+03  0.12500101091E+03 0.  0.
          2    1    1    2  501    0  0.55667640365E+02  0.26609252679E+02 -0.50711370396E+03  0.51085344988E+03  0.00000000000E+00 0. -1.
          1    1    1    2  502    0  0.21402542109E+03 -0.22416298195E+03  0.25506658278E+04  0.25694264124E+04  0.00000000000E+00 0. -1.
         22    1    3    3    0    0 -0.19402943889E+03  0.17243069390E+03  0.19865475801E+03  0.32686920968E+03  0.00000000000E+00 0.  1.
         22    1    3    3    0    0 -0.75663622562E+02  0.25123035380E+02  0.16189155890E+03  0.18045782756E+03  0.00000000000E+00 0.  1.
</event>
<event>
 7    1  0.6255318E-006  0.6922179E+02  0.7818608E-02  0.1363931E+00
          2   -1    0    0  502    0  0.00000000000E+00  0.00000000000E+00  0.21340965935E+04  0.21340965935E+04  0.00000000000E+00 0. -1.
          1   -1    0    0  501    0 -0.00000000000E+00 -0.00000000000E+00 -0.12466686731E+03  0.12466686731E+03  0.00000000000E+00 0. -1.
         25    2    1    2    0    0 -0.10439233377E+03  0.81953586901E+01  0.38572036560E+03  0.41877173526E+03  0.12499857021E+03 0.  0.
          2    1    1    2  501    0  0.55555242712E+02  0.40153389843E+02 -0.96523388957E+02  0.11838684186E+03  0.00000000000E+00 0. -1.
          1    1    1    2  502    0  0.48837091061E+02 -0.48348748533E+02  0.17202327496E+04  0.17216048837E+04  0.00000000000E+00 0. -1.
         22    1    3    3    0    0 -0.54696802238E+02  0.41613240737E+02  0.32963424765E+03  0.33672264433E+03  0.00000000000E+00 0.  1.
         22    1    3    3    0    0 -0.49695531535E+02 -0.33417882047E+02  0.56086117949E+02  0.82049090925E+02  0.00000000000E+00 0.  1.
</event>
<event>
 7    1  0.6255318E-006  0.4563445E+02  0.7818608E-02  0.1486331E+00
          2   -1    0    0  502    0  0.00000000000E+00  0.00000000000E+00  0.12656046529E+04  0.12656046529E+04  0.00000000000E+00 0. -1.
          1   -1    0    0  501    0 -0.00000000000E+00 -0.00000000000E+00 -0.39908159136E+03  0.39908159136E+03  0.00000000000E+00 0. -1.
         25    2    1    2    0    0  0.30372524799E+02 -0.34374224294E+02 -0.10885103150E+03  0.17198155365E+03  0.12500012072E+03 0.  0.
          2    1    1    2  501    0 -0.46651963138E+02 -0.30075613355E+01 -0.25621293992E+03  0.26044293362E+03  0.00000000000E+00 0. -1.
          1    1    1    2  502    0  0.16279438339E+02  0.37381785629E+02  0.12315870329E+04  0.12322617570E+04  0.00000000000E+00 0. -1.
         22    1    3    3    0    0  0.12564225028E+02 -0.46383047963E+01  0.27877709357E+02  0.30927985724E+02  0.00000000000E+00 0. -1.
         22    1    3    3    0    0  0.17808299770E+02 -0.29735919497E+02 -0.13672874085E+03  0.14105356793E+03  0.00000000000E+00 0. -1.
</event>
<event>
 7    1  0.6255318E-006  0.4037666E+02  0.7818608E-02  0.1551452E+00
          2   -1    0    0  502    0  0.00000000000E+00  0.00000000000E+00  0.74298443548E+02  0.74298443548E+02  0.00000000000E+00 0. -1.
          1   -1    0    0  501    0 -0.00000000000E+00 -0.00000000000E+00 -0.70233836981E+03  0.70233836981E+03  0.00000000000E+00 0. -1.
         25    2    1    2    0    0 -0.37481912092E+02 -0.22941744416E+02 -0.70690835001E+02  0.15017862399E+03  0.12500083032E+03 0.  0.
          2    1    1    2  501    0  0.25013035176E+02 -0.16177801283E+02 -0.57918750508E+03  0.57995304916E+03  0.00000000000E+00 0. -1.
          1    1    1    2  502    0  0.12468876916E+02  0.39119545699E+02  0.21838413823E+02  0.46505140206E+02  0.00000000000E+00 0. -1.
         22    1    3    3    0    0 -0.44448234250E+02  0.29830314375E+02  0.90636952992E+01  0.54292207140E+02  0.00000000000E+00 0. -1.
         22    1    3    3    0    0  0.69663221582E+01 -0.52772058791E+02 -0.79754530300E+02  0.95886416852E+02  0.00000000000E+00 0. -1.
</event>
<event>
 7    1  0.6255318E-006  0.7102257E+02  0.7818608E-02  0.1444836E+00
          2   -1    0    0  502    0  0.00000000000E+00  0.00000000000E+00  0.33570207889E+04  0.33570207889E+04  0.00000000000E+00 0. -1.
          1   -1    0    0  501    0 -0.00000000000E+00 -0.00000000000E+00 -0.58335489525E+02  0.58335489525E+02  0.00000000000E+00 0. -1.
         25    2    1    2    0    0 -0.92580588184E+02 -0.15629070624E+02  0.78460592230E+03  0.80002936792E+03  0.12500041232E+03 0.  0.
          2    1    1    2  501    0  0.23526742269E+02  0.26360233893E+02 -0.43922966274E+02  0.56370173842E+02  0.00000000000E+00 0. -1.
          1    1    1    2  502    0  0.69053845915E+02 -0.10731163270E+02  0.25580023434E+04  0.25589567367E+04  0.00000000000E+00 0. -1.
         22    1    3    3    0    0 -0.34315305591E+02  0.29061731639E+02  0.59506077748E+03  0.59675744933E+03  0.00000000000E+00 0.  1.
         22    1    3    3    0    0 -0.58265282593E+02 -0.44690802263E+02  0.18954514482E+03  0.20327191859E+03  0.00000000000E+00 0.  1.
</event>
<event>
 7    1  0.6255318E-006  0.7452081E+02  0.7818608E-02  0.1480183E+00
          2   -1    0    0  502    0  0.00000000000E+00  0.00000000000E+00  0.61269412112E+02  0.61269412112E+02  0.00000000000E+00 0. -1.
          1   -1    0    0  501    0 -0.00000000000E+00 -0.00000000000E+00 -0.13608999203E+04  0.13608999203E+04  0.00000000000E+00 0. -1.
         25    2    1    2    0    0 -0.17930473168E+02 -0.96945746673E+02 -0.21275925271E+03  0.26572726809E+03  0.12499800688E+03 0.  0.
          2    1    1    2  501    0  0.74967309863E+01  0.73053548708E+02 -0.11153885748E+04  0.11178035135E+04  0.00000000000E+00 0. -1.
          1    1    1    2  502    0  0.10433742182E+02  0.23892197965E+02  0.28517319402E+02  0.38638550767E+02  0.00000000000E+00 0. -1.
         22    1    3    3    0    0  0.47274394746E+01 -0.11359736231E+03 -0.20822799242E+03  0.23724587717E+03  0.00000000000E+00 0.  1.
         22    1    3    3    0    0 -0.22657912643E+02  0.16651615640E+02 -0.45312602952E+01  0.28481390918E+02  0.00000000000E+00 0.  1.
</event>
<event>
 7    1  0.6255318E-006  0.8022728E+02  0.7818608E-02  0.1404455E+00
          2   -1    0    0  502    0  0.00000000000E+00  0.00000000000E+00  0.10522189377E+04  0.10522189377E+04  0.00000000000E+00 0. -1.
          1   -1    0    0  501    0 -0.00000000000E+00 -0.00000000000E+00 -0.12075883419E+04  0.12075883419E+04  0.00000000000E+00 0. -1.
         25    2    1    2    0    0  0.15185342759E+02  0.36987119221E+02  0.82599531676E+02  0.15506638894E+03  0.12499704286E+03 0.  0.
          2    1    1    2  501    0  0.90395183310E+01  0.41613064644E+02 -0.11691546321E+04  0.11699298756E+04  0.00000000000E+00 0. -1.
          1    1    1    2  502    0 -0.24224861090E+02 -0.78600183865E+02  0.93118569632E+03  0.93481101503E+03  0.00000000000E+00 0. -1.
         22    1    3    3    0    0 -0.40697523658E+01 -0.22110367950E+02  0.89729965518E+02  0.92503502459E+02  0.00000000000E+00 0. -1.
         22    1    3    3    0    0  0.19255095125E+02  0.59097487171E+02 -0.71304338427E+01  0.62562886482E+02  0.00000000000E+00 0. -1.
</event>
<event>
 7    1  0.6255318E-006  0.5793437E+02  0.7818608E-02  0.1486081E+00
          2   -1    0    0  502    0  0.00000000000E+00  0.00000000000E+00  0.82693748843E+03  0.82693748843E+03  0.00000000000E+00 0. -1.
          1   -1    0    0  501    0 -0.00000000000E+00 -0.00000000000E+00 -0.85670846283E+03  0.85670846283E+03  0.00000000000E+00 0. -1.
         25    2    1    2    0    0  0.97265550739E+01  0.44335245839E+02  0.14068886334E+03  0.19358039297E+03  0.12497916778E+03 0.  0.
          2    1    1    2  501    0  0.20909274623E+02 -0.54160121648E+02 -0.82885452479E+03  0.83088527476E+03  0.00000000000E+00 0. -1.
          1    1    1    2  502    0 -0.30635829697E+02  0.98248758089E+01  0.65839468705E+03  0.65918028352E+03  0.00000000000E+00 0. -1.
         22    1    3    3    0    0 -0.38647954665E+02  0.68388439732E+02  0.76019066678E+02  0.10931395879E+03  0.00000000000E+00 0. -1.
         22    1    3    3    0    0  0.48374509739E+02 -0.24053193893E+02  0.64669796662E+02  0.84266434179E+02  0.00000000000E+00 0. -1.
</event>
<event>
 7    1  0.6255318E-006  0.1692055E+03  0.7818608E-02  0.1364276E+00
          2   -1    0    0  502    0  0.00000000000E+00  0.00000000000E+00  0.41598205485E+03  0.41598205485E+03  0.00000000000E+00 0. -1.
          1   -1    0    0  501    0 -0.00000000000E+00 -0.00000000000E+00 -0.77294042645E+03  0.77294042645E+03  0.00000000000E+00 0. -1.
         25    2    1    2    0    0  0.11846447450E+02 -0.15385861388E+03 -0.28764566168E+03  0.34953719704E+03  0.12499365604E+03 0.  0.
          2    1    1    2  501    0 -0.22966123136E+02 -0.15950546635E+02 -0.43507560724E+03  0.43597321795E+03  0.00000000000E+00 0. -1.
          1    1    1    2  502    0  0.11119675687E+02  0.16980916052E+03  0.36576289733E+03  0.40341206631E+03  0.00000000000E+00 0. -1.
         22    1    3    3    0    0 -0.30578465374E+02 -0.74127086697E+02 -0.22700636990E+03  0.24075248597E+03  0.00000000000E+00 0. -1.
         22    1    3    3    0    0  0.42424912823E+02 -0.79731527184E+02 -0.60639291784E+02  0.10878471107E+03  0.00000000000E+00 0. -1.
</event>
<event>
 7    1  0.6255318E-006  0.6003321E+02  0.7818608E-02  0.1412141E+00
          2   -1    0    0  502    0  0.00000000000E+00  0.00000000000E+00  0.14285211984E+03  0.14285211984E+03  0.00000000000E+00 0. -1.
          1   -1    0    0  501    0 -0.00000000000E+00 -0.00000000000E+00 -0.13197439261E+04  0.13197439261E+04  0.00000000000E+00 0. -1.
         25    2    1    2    0    0 -0.53340471567E+02 -0.39397842950E+01 -0.13123155620E+03  0.18896367387E+03  0.12499928358E+03 0.  0.
          2    1    1    2  501    0  0.14441983055E+02  0.51604740453E+02 -0.11506755444E+04  0.11519226661E+04  0.00000000000E+00 0. -1.
          1    1    1    2  502    0  0.38898488512E+02 -0.47664956158E+02  0.10501529441E+03  0.12170970592E+03  0.00000000000E+00 0. -1.
         22    1    3    3    0    0 -0.80720648466E+02  0.31595684610E+02 -0.10787399066E+03  0.13838680658E+03  0.00000000000E+00 0.  1.
         22    1    3    3    0    0  0.27380176899E+02 -0.35535468905E+02 -0.23357565540E+02  0.50576867294E+02  0.00000000000E+00 0.  1.
</event>
<event>
 7    1  0.6255318E-006  0.1328941E+03  0.7818608E-02  0.1245662E+00
          2   -1    0    0  502    0  0.00000000000E+00  0.00000000000E+00  0.27453256312E+03  0.27453256312E+03  0.00000000000E+00 0. -1.
          1   -1    0    0  501    0 -0.00000000000E+00 -0.00000000000E+00 -0.21234297293E+03  0.21234297293E+03  0.00000000000E+00 0. -1.
         25    2    1    2    0    0  0.93624702738E+02  0.37890269996E+01 -0.13738430231E+02  0.15682476187E+03  0.12500127913E+03 0.  0.
          2    1    1    2  501    0 -0.16925685548E+03  0.69893850216E+02 -0.23982445690E+02  0.18468403051E+03  0.00000000000E+00 0. -1.
          1    1    1    2  502    0  0.75632152744E+02 -0.73682877215E+02  0.99910466108E+02  0.14536674366E+03  0.00000000000E+00 0. -1.
         22    1    3    3    0    0 -0.69734671521E+01  0.43714747486E+02  0.11400901890E+02  0.45712022005E+02  0.00000000000E+00 0. -1.
         22    1    3    3    0    0  0.10059816989E+03 -0.39925720487E+02 -0.25139332122E+02  0.11111273987E+03  0.00000000000E+00 0. -1.
</event>
<event>
 7    1  0.6255318E-006  0.8774869E+02  0.7818608E-02  0.1391920E+00
          2   -1    0    0  502    0  0.00000000000E+00  0.00000000000E+00  0.13699195786E+04  0.13699195786E+04  0.00000000000E+00 0. -1.
          1   -1    0    0  501    0 -0.00000000000E+00 -0.00000000000E+00 -0.17644238526E+03  0.17644238526E+03  0.00000000000E+00 0. -1.
         25    2    1    2    0    0 -0.11621604267E+03  0.44500771503E+02  0.18525820673E+03  0.25579713236E+03  0.12500033009E+03 0.  0.
          2    1    1    2  501    0  0.73208727230E+02 -0.44532371134E+02 -0.12772547498E+03  0.15380652386E+03  0.00000000000E+00 0. -1.
          1    1    1    2  502    0  0.43007315437E+02  0.31599630855E-01  0.11359444616E+04  0.11367583076E+04  0.00000000000E+00 0. -1.
         22    1    3    3    0    0 -0.49384641704E+02 -0.42875110149E+02  0.82364758702E+02  0.10517162822E+03  0.00000000000E+00 0. -1.
         22    1    3    3    0    0 -0.66831400963E+02  0.87375881651E+02  0.10289344803E+03  0.15062550414E+03  0.00000000000E+00 0. -1.
</event>
<event>
 7    1  0.6255318E-006  0.4645560E+03  0.7818608E-02  0.1246060E+00
          2   -1    0    0  502    0  0.00000000000E+00  0.00000000000E+00  0.38142494821E+03  0.38142494821E+03  0.00000000000E+00 0. -1.
          1   -1    0    0  501    0 -0.00000000000E+00 -0.00000000000E+00 -0.25118779951E+04  0.25118779951E+04  0.00000000000E+00 0. -1.
         25    2    1    2    0    0 -0.12437606163E+03  0.45220537531E+03 -0.11888291366E+04  0.12840945219E+04  0.12499967646E+03 0.  0.
          2    1    1    2  501    0 -0.26902373265E+02 -0.13468216715E+02 -0.11138053098E+04  0.11142115592E+04  0.00000000000E+00 0. -1.
          1    1    1    2  502    0  0.15127843490E+03 -0.43873715859E+03  0.17218139951E+03  0.49499686214E+03  0.00000000000E+00 0. -1.
         22    1    3    3    0    0 -0.53048004774E+01  0.23687647127E+03 -0.64673999423E+03  0.68877516193E+03  0.00000000000E+00 0. -1.
         22    1    3    3    0    0 -0.11907126115E+03  0.21532890403E+03 -0.54208914236E+03  0.59531936002E+03  0.00000000000E+00 0. -1.
</event>
<event>
 7    1  0.6255318E-006  0.1591212E+03  0.7818608E-02  0.1277537E+00
          2   -1    0    0  502    0  0.00000000000E+00  0.00000000000E+00  0.46049771790E+04  0.46049771790E+04  0.00000000000E+00 0. -1.
          1   -1    0    0  501    0 -0.00000000000E+00 -0.00000000000E+00 -0.18826746960E+03  0.18826746960E+03  0.00000000000E+00 0. -1.
         25    2    1    2    0    0 -0.20266352485E+03 -0.72043384041E+02  0.24936797205E+03  0.35223874765E+03  0.12499998548E+03 0.  0.
          2    1    1    2  501    0  0.14522160977E+03  0.42662529296E+02 -0.94656298973E+02  0.17851952914E+03  0.00000000000E+00 0. -1.
          1    1    1    2  502    0  0.57441915082E+02  0.29380854745E+02  0.42619980363E+04  0.42624863718E+04  0.00000000000E+00 0. -1.
         22    1    3    3    0    0 -0.12519050986E+03 -0.17396615651E+02  0.58823549945E+02  0.13941131957E+03  0.00000000000E+00 0. -1.
         22    1    3    3    0    0 -0.77473014988E+02 -0.54646768390E+02  0.19054442210E+03  0.21282742808E+03  0.00000000000E+00 0. -1.
</event>
<event>
 7    1  0.6255318E-006  0.4726186E+02  0.7818608E-02  0.1495902E+00
          2   -1    0    0  502    0  0.00000000000E+00  0.00000000000E+00  0.80604800117E+03  0.80604800117E+03  0.00000000000E+00 0. -1.
          1   -1    0    0  501    0 -0.00000000000E+00 -0.00000000000E+00 -0.10513788991E+04  0.10513788991E+04  0.00000000000E+00 0. -1.
         25    2    1    2    0    0 -0.72929570609E+02  0.15266764283E+02 -0.60636830999E+02  0.15764824708E+03  0.12499739266E+03 0.  0.
          2    1    1    2  501    0  0.38166900401E+02 -0.27441846894E+02 -0.94120170216E+03  0.94237487838E+03  0.00000000000E+00 0. -1.
          1    1    1    2  502    0  0.34762670208E+02  0.12175082610E+02  0.75650763526E+03  0.75740377480E+03  0.00000000000E+00 0. -1.
         22    1    3    3    0    0 -0.10021226980E+03  0.40697019978E+02 -0.43053574814E+02  0.11641458997E+03  0.00000000000E+00 0. -1.
         22    1    3    3    0    0  0.27282699194E+02 -0.25430255695E+02 -0.17583256186E+02  0.41233657103E+02  0.00000000000E+00 0. -1.
</event>
<event>
 7    1  0.6255318E-006  0.3589696E+02  0.7818608E-02  0.1550647E+00
          2   -1    0    0  502    0  0.00000000000E+00  0.00000000000E+00  0.25367428066E+04  0.25367428066E+04  0.00000000000E+00 0. -1.
          1   -1    0    0  501    0 -0.00000000000E+00 -0.00000000000E+00 -0.61273035346E+02  0.61273035346E+02  0.00000000000E+00 0. -1.
         25    2    1    2    0    0  0.35187779542E+00 -0.41646412692E+02  0.40528882060E+03  0.42616741623E+03  0.12500036416E+03 0.  0.
          2    1    1    2  501    0  0.27718398964E+02  0.23035235694E+02 -0.44294597672E+02  0.57104668001E+02  0.00000000000E+00 0. -1.
          1    1    1    2  502    0 -0.28070276760E+02  0.18611176998E+02  0.21144755483E+04  0.21147437577E+04  0.00000000000E+00 0. -1.
         22    1    3    3    0    0  0.55150311320E+02 -0.18881633389E+01  0.10816724131E+03  0.12143012020E+03  0.00000000000E+00 0. -1.
         22    1    3    3    0    0 -0.54798433525E+02 -0.39758249353E+02  0.29712157929E+03  0.30473729602E+03  0.00000000000E+00 0. -1.
</event>
<event>
 7    1  0.6255318E-006  0.1562000E+03  0.7818608E-02  0.1198409E+00
          2   -1    0    0  502    0  0.00000000000E+00  0.00000000000E+00  0.87496980404E+03  0.87496980404E+03  0.00000000000E+00 0. -1.
          1   -1    0    0  501    0 -0.00000000000E+00 -0.00000000000E+00 -0.63759801411E+03  0.63759801411E+03  0.00000000000E+00 0. -1.
         25    2    1    2    0    0  0.15539931872E+02  0.20539830912E+01 -0.48090551817E+02  0.13484196955E+03  0.12499578893E+03 0.  0.
          2    1    1    2  501    0  0.44890944439E+02 -0.14961033238E+03 -0.52705329264E+03  0.54971230815E+03  0.00000000000E+00 0. -1.
          1    1    1    2  502    0 -0.60430876311E+02  0.14755634929E+03  0.81251563439E+03  0.82801354044E+03  0.00000000000E+00 0. -1.
         22    1    3    3    0    0  0.33849536840E+02 -0.28885126270E+02  0.26675298331E+02  0.51881723227E+02  0.00000000000E+00 0. -1.
         22    1    3    3    0    0 -0.18309604969E+02  0.30939109361E+02 -0.74765850148E+02  0.82960246326E+02  0.00000000000E+00 0. -1.
</event>
<event>
 7    1  0.6255318E-006  0.5348289E+02  0.7818608E-02  0.1474368E+00
          2   -1    0    0  502    0  0.00000000000E+00  0.00000000000E+00  0.30029471962E+03  0.30029471962E+03  0.00000000000E+00 0. -1.
          1   -1    0    0  501    0 -0.00000000000E+00 -0.00000000000E+00 -0.16498198812E+04  0.16498198812E+04  0.00000000000E+00 0. -1.
         25    2    1    2    0    0 -0.83324830505E+02 -0.30377703352E+02 -0.19528573147E+03  0.24824940995E+03  0.12500168153E+03 0.  0.
          2    1    1    2  501    0  0.45654489956E+02  0.26637660238E+02 -0.14262519938E+04  0.14272311120E+04  0.00000000000E+00 0. -1.
          1    1    1    2  502    0  0.37670340549E+02  0.37400431132E+01  0.27201256366E+03  0.27463407885E+03  0.00000000000E+00 0. -1.
         22    1    3    3    0    0 -0.10714627384E+03 -0.11794390297E+02 -0.95577034999E+02  0.14406387910E+03  0.00000000000E+00 0.  1.
         22    1    3    3    0    0  0.23821443340E+02 -0.18583313055E+02 -0.99708696469E+02  0.10418553085E+03  0.00000000000E+00 0.  1.
</event>
<event>
 7    1  0.8972855E-006  0.8081618E+02  0.7818608E-02  0.1350134E+00
          2   -1    0    0  502    0  0.00000000000E+00  0.00000000000E+00  0.52988191155E+03  0.52988191155E+03  0.00000000000E+00 0. -1.
          1   -1    0    0  501    0 -0.00000000000E+00 -0.00000000000E+00 -0.29748547037E+04  0.29748547037E+04  0.00000000000E+00 0. -1.
         25    2    1    2    0    0  0.30107632834E+01  0.57170663796E+02 -0.72465709078E+03  0.73758413569E+03  0.12499963403E+03 0.  0.
          2    1    1    2  501    0  0.64726125455E+02 -0.12723721939E+02 -0.22401105939E+04  0.22410816222E+04  0.00000000000E+00 0. -1.
          1    1    1    2  502    0 -0.67736888738E+02 -0.44446941857E+02  0.51979489250E+03  0.52607085740E+03  0.00000000000E+00 0. -1.
         22    1    3    3    0    0  0.44183284979E+01 -0.37353206257E+02 -0.31078131805E+03  0.31304921545E+03  0.00000000000E+00 0.  1.
         22    1    3    3    0    0 -0.14075652145E+01  0.94523870052E+02 -0.41387577273E+03  0.42453492024E+03  0.00000000000E+00 0.  1.
</event>
<event>
 7    1  0.6255318E-006  0.3469060E+03  0.7818608E-02  0.1205256E+00
          2   -1    0    0  502    0  0.00000000000E+00  0.00000000000E+00  0.16242932253E+04  0.16242932253E+04  0.00000000000E+00 0. -1.
          1   -1    0    0  501    0 -0.00000000000E+00 -0.00000000000E+00 -0.28366536629E+03  0.28366536629E+03  0.00000000000E+00 0. -1.
         25    2    1    2    0    0  0.22621627573E+03 -0.19970468971E+03  0.16578815518E+03  0.36628723132E+03  0.12499942772E+03 0.  0.
          2    1    1    2  501    0  0.22672601102E+02 -0.57267181218E+02 -0.15381992938E+03  0.16569293153E+03  0.00000000000E+00 0. -1.
          1    1    1    2  502    0 -0.24888887684E+03  0.25697187093E+03  0.13286596332E+04  0.13759784287E+04  0.00000000000E+00 0. -1.
         22    1    3    3    0    0  0.83260181857E+02 -0.49657100806E+01  0.58962097683E+02  0.10214423686E+03  0.00000000000E+00 0. -1.
         22    1    3    3    0    0  0.14295609388E+03 -0.19473897963E+03  0.10682605750E+03  0.26414299447E+03  0.00000000000E+00 0. -1.
</event>
<event>
 7    1  0.6255318E-006  0.7521817E+02  0.7818608E-02  0.1363406E+00
          2   -1    0    0  502    0  0.00000000000E+00  0.00000000000E+00  0.20308264126E+03  0.20308264126E+03  0.00000000000E+00 0. -1.
          1   -1    0    0  501    0 -0.00000000000E+00 -0.00000000000E+00 -0.39089882552E+03  0.39089882552E+03  0.00000000000E+00 0. -1.
         25    2    1    2    0    0 -0.35369714334E+02 -0.13797574040E+02  0.48595146600E+02  0.13938062192E+03  0.12499631895E+03 0.  0.
          2    1    1    2  501    0 -0.58083229764E+02  0.25313767101E+02 -0.32150422040E+03  0.32768797983E+03  0.00000000000E+00 0. -1.
          1    1    1    2  502    0  0.93452944098E+02 -0.11516193061E+02  0.85092889536E+02  0.12691286504E+03  0.00000000000E+00 0. -1.
         22    1    3    3    0    0 -0.15846178087E+02 -0.56832594954E+02  0.66450398592E+02  0.88863382122E+02  0.00000000000E+00 0.  1.
         22    1    3    3    0    0 -0.19523536247E+02  0.43035020914E+02 -0.17855251993E+02  0.50517239794E+02  0.00000000000E+00 0.  1.
</event>
<event>
 7    1  0.6255318E-006  0.3633932E+02  0.7818608E-02  0.1547120E+00
          2   -1    0    0  502    0  0.00000000000E+00  0.00000000000E+00  0.20811324738E+04  0.20811324738E+04  0.00000000000E+00 0. -1.
          1   -1    0    0  501    0 -0.00000000000E+00 -0.00000000000E+00 -0.19187345469E+02  0.19187345469E+02  0.00000000000E+00 0. -1.
         25    2    1    2    0    0  0.44783374109E+02 -0.11673294257E+02  0.51946439869E+03  0.53629216214E+03  0.12499682103E+03 0.  0.
          2    1    1    2  501    0 -0.13916645643E+02  0.31057646866E+02  0.16875837731E+02  0.37987423628E+02  0.00000000000E+00 0. -1.
          1    1    1    2  502    0 -0.30866728466E+02 -0.19384352609E+02  0.15256048919E+04  0.15260402335E+04  0.00000000000E+00 0. -1.
         22    1    3    3    0    0  0.73356789979E+02  0.32846071813E+02  0.31714259606E+03  0.32716893084E+03  0.00000000000E+00 0.  1.
         22    1    3    3    0    0 -0.28573415870E+02 -0.44519366069E+02  0.20232180263E+03  0.20912323130E+03  0.00000000000E+00 0.  1.
</event>
<event>
 7    1  0.6255318E-006  0.5605970E+02  0.7818608E-02  0.1529814E+00
          2   -1    0    0  502    0  0.00000000000E+00  0.00000000000E+00  0.92826750033E+03  0.92826750033E+03  0.00000000000E+00 0. -1.
          1   -1    0    0  501    0 -0.00000000000E+00 -0.00000000000E+00 -0.15247806930E+03  0.15247806930E+03  0.00000000000E+00 0. -1.
         25    2    1    2    0    0 -0.49080755964E+02  0.58772963683E+02  0.37085721501E+03  0.39877790248E+03  0.12500223883E+03 0.  0.
          2    1    1    2  501    0  0.43701081013E+02 -0.34668608802E+02 -0.13260661109E+03  0.14386177471E+03  0.00000000000E+00 0. -1.
          1    1    1    2  502    0  0.53796749511E+01 -0.24104354881E+02  0.53753882711E+03  0.53810589244E+03  0.00000000000E+00 0. -1.
         22    1    3    3    0    0 -0.39701916515E+02  0.42193777450E+02  0.37486256447E+03  0.37931319417E+03  0.00000000000E+00 0. -1.
         22    1    3    3    0    0 -0.93788394487E+01  0.16579186233E+02 -0.40053494510E+01  0.19464708314E+02  0.00000000000E+00 0. -1.
</event>
<event>
 7    1  0.6255318E-006  0.8047982E+02  0.7818608E-02  0.1336641E+00
          2   -1    0    0  502    0  0.00000000000E+00  0.00000000000E+00  0.13345499198E+04  0.13345499198E+04  0.00000000000E+00 0. -1.
          1   -1    0    0  501    0 -0.00000000000E+00 -0.00000000000E+00 -0.63895110283E+03  0.63895110283E+03  0.00000000000E+00 0. -1.
         25    2    1    2    0    0  0.26350993706E+02  0.35671804421E+02  0.87883614138E+02  0.15910705258E+03  0.12499868817E+03 0.  0.
          2    1    1    2  501    0  0.55324791179E+02 -0.49757868586E+02 -0.59961903865E+03  0.60421823004E+03  0.00000000000E+00 0. -1.
          1    1    1    2  502    0 -0.81675784886E+02  0.14086064164E+02  0.12073342415E+04  0.12101757401E+04  0.00000000000E+00 0. -1.
         22    1    3    3    0    0 -0.21188047988E+01 -0.42875691624E+02  0.53915332419E+02  0.68917902869E+02  0.00000000000E+00 0.  1.
         22    1    3    3    0    0  0.28469798505E+02  0.78547496045E+02  0.33968281719E+02  0.90189149707E+02  0.00000000000E+00 0.  1.
</event>
<event>
 7    1  0.6255318E-006  0.1099140E+03  0.7818608E-02  0.1355222E+00
          2   -1    0    0  502    0  0.00000000000E+00  0.00000000000E+00  0.49321508482E+02  0.49321508482E+02  0.00000000000E+00 0. -1.
          1   -1    0    0  501    0 -0.00000000000E+00 -0.00000000000E+00 -0.69553170460E+03  0.69553170460E+03  0.00000000000E+00 0. -1.
         25    2    1    2    0    0  0.32809879666E+02 -0.98610429261E+02 -0.48760902522E+03  0.51399229267E+03  0.12500004193E+03 0.  0.
          2    1    1    2  501    0  0.43712536995E+02  0.15709607238E+02 -0.82808407855E+02  0.94946353598E+02  0.00000000000E+00 0. -1.
          1    1    1    2  502    0 -0.76522416661E+02  0.82900822023E+02 -0.75792763046E+02  0.13591456682E+03  0.00000000000E+00 0. -1.
         22    1    3    3    0    0 -0.44454143503E+02 -0.61326744363E+02 -0.25760801936E+03  0.26851262929E+03  0.00000000000E+00 0.  1.
         22    1    3    3    0    0  0.77264023168E+02 -0.37283684898E+02 -0.23000100586E+03  0.24547966338E+03  0.00000000000E+00 0.  1.
</event>
<event>
 7    1  0.6255318E-006  0.4728271E+02  0.7818608E-02  0.1509298E+00
          2   -1    0    0  502    0  0.00000000000E+00  0.00000000000E+00  0.14582049331E+04  0.14582049331E+04  0.00000000000E+00 0. -1.
          1   -1    0    0  501    0 -0.00000000000E+00 -0.00000000000E+00 -0.28917245322E+03  0.28917245322E+03  0.00000000000E+00 0. -1.
         25    2    1    2    0    0 -0.10864606793E+02  0.32071573145E+02  0.10683413348E+02  0.12994651999E+03  0.12500134900E+03 0.  0.
          2    1    1    2  501    0 -0.31697674129E+02 -0.11115820079E+02 -0.22790407742E+03  0.23036617049E+03  0.00000000000E+00 0. -1.
          1    1    1    2  502    0  0.42562280922E+02 -0.20955753066E+02  0.13862531439E+04  0.13870646958E+04  0.00000000000E+00 0. -1.
         22    1    3    3    0    0  0.49497164765E+02  0.38793889224E+02  0.24784842711E+02  0.67596032348E+02  0.00000000000E+00 0. -1.
         22    1    3    3    0    0 -0.60361771557E+02 -0.67223160791E+01 -0.14101429363E+02  0.62350487641E+02  0.00000000000E+00 0. -1.
</event>
<event>
 7    1  0.6255318E-006  0.1442250E+03  0.7818608E-02  0.1274622E+00
          2   -1    0    0  502    0  0.00000000000E+00  0.00000000000E+00  0.93420567417E+03  0.93420567417E+03  0.00000000000E+00 0. -1.
          1   -1    0    0  501    0 -0.00000000000E+00 -0.00000000000E+00 -0.26512732296E+03  0.26512732296E+03  0.00000000000E+00 0. -1.
         25    2    1    2    0    0 -0.17754300837E+03  0.88679691810E+02 -0.64353759883E+02  0.24321066557E+03  0.12499765547E+03 0.  0.
          2    1    1    2  501    0  0.72789128045E+02  0.77339622229E+01 -0.92528647080E+02  0.11798144712E+03  0.00000000000E+00 0. -1.
          1    1    1    2  502    0  0.10475388033E+03 -0.96413654032E+02  0.82596075818E+03  0.83814088445E+03  0.00000000000E+00 0. -1.
         22    1    3    3    0    0 -0.53364195168E+02  0.22856711671E+02 -0.83153503993E+02  0.10141337102E+03  0.00000000000E+00 0. -1.
         22    1    3    3    0    0 -0.12417881320E+03  0.65822980138E+02  0.18799744110E+02  0.14179729455E+03  0.00000000000E+00 0. -1.
</event>
<event>
 7    1  0.6255318E-006  0.5795733E+02  0.7818608E-02  0.1548804E+00
          2   -1    0    0  502    0  0.00000000000E+00  0.00000000000E+00  0.43520979988E+04  0.43520979988E+04  0.00000000000E+00 0. -1.
          1   -1    0    0  501    0 -0.00000000000E+00 -0.00000000000E+00 -0.22894173452E+03  0.22894173452E+03  0.00000000000E+00 0. -1.
         25    2    1    2    0    0  0.45613958881E+02 -0.28474388503E+02  0.28259711277E+04  0.28292454066E+04  0.12500133002E+03 0.  0.
          2    1    1    2  501    0 -0.56974575316E+02  0.10683758568E+02 -0.22353440617E+03  0.23092829119E+03  0.00000000000E+00 0. -1.
          1    1    1    2  502    0  0.11360616435E+02  0.17790629935E+02  0.15207195428E+04  0.15208660355E+04  0.00000000000E+00 0. -1.
         22    1    3    3    0    0 -0.42676923222E+01  0.14036276514E+02  0.41742663326E+02  0.44245679989E+02  0.00000000000E+00 0.  1.
         22    1    3    3    0    0  0.49881651203E+02 -0.42510665016E+02  0.27842284643E+04  0.27849997266E+04  0.00000000000E+00 0.  1.
</event>
<event>
 7    1  0.6255318E-006  0.5324443E+02  0.7818608E-02  0.1429342E+00
          2   -1    0    0  502    0  0.00000000000E+00  0.00000000000E+00  0.31861001162E+04  0.31861001162E+04  0.00000000000E+00 0. -1.
          1   -1    0    0  501    0 -0.00000000000E+00 -0.00000000000E+00 -0.20977777654E+03  0.20977777654E+03  0.00000000000E+00 0. -1.
         25    2    1    2    0    0  0.10780290120E+02  0.42559698302E+02  0.90052075172E+03  0.91021476990E+03  0.12500304189E+03 0.  0.
          2    1    1    2  501    0  0.43370298702E+02 -0.30360023518E+02 -0.20116777510E+03  0.20801727711E+03  0.00000000000E+00 0. -1.
          1    1    1    2  502    0 -0.54150588822E+02 -0.12199674784E+02  0.22769693631E+04  0.22776458458E+04  0.00000000000E+00 0. -1.
         22    1    3    3    0    0 -0.53178106263E+02  0.42317887472E+02  0.42169292904E+03  0.42713421894E+03  0.00000000000E+00 0. -1.
         22    1    3    3    0    0  0.63958396383E+02  0.24181082956E+00  0.47882782268E+03  0.48308055096E+03  0.00000000000E+00 0. -1.
</event>
<event>
 7    1  0.6255318E-006  0.1257142E+03  0.7818608E-02  0.1259124E+00
          2   -1    0    0  502    0  0.00000000000E+00  0.00000000000E+00  0.25644428917E+04  0.25644428917E+04  0.00000000000E+00 0. -1.
          1   -1    0    0  501    0 -0.00000000000E+00 -0.00000000000E+00 -0.18732363031E+03  0.18732363031E+03  0.00000000000E+00 0. -1.
         25    2    1    2    0    0  0.16591290825E+03 -0.57608122499E+02  0.93271827099E+02  0.23488503797E+03  0.12500223369E+03 0.  0.
          2    1    1    2  501    0 -0.88652166578E+02 -0.40888964452E+02 -0.94127517299E+02  0.13561380301E+03  0.00000000000E+00 0. -1.
          1    1    1    2  502    0 -0.77260741677E+02  0.98497086950E+02  0.23779749516E+04  0.23812676810E+04  0.00000000000E+00 0. -1.
         22    1    3    3    0    0 -0.14841256648E+02 -0.40755086062E+01 -0.11499296150E+02  0.19212144108E+02  0.00000000000E+00 0.  1.
         22    1    3    3    0    0  0.18075416490E+03 -0.53532613892E+02  0.10477112325E+03  0.21567289386E+03  0.00000000000E+00 0.  1.
</event>
<event>
 7    1  0.6255318E-006  0.4410047E+02  0.7818608E-02  0.1542238E+00
          2   -1    0    0  502    0  0.00000000000E+00  0.00000000000E+00  0.17535691644E+04  0.17535691644E+04  0.00000000000E+00 0. -1.
          1   -1    0    0  501    0 -0.00000000000E+00 -0.00000000000E+00 -0.36612770221E+03  0.36612770221E+03  0.00000000000E+00 0. -1.
         25    2    1    2    0    0 -0.12426951761E+02  0.23968757114E+02 -0.52369545580E+01  0.12799150232E+03  0.12500187409E+03 0.  0.
          2    1    1    2  501    0  0.40808978511E+02 -0.18296376807E+02 -0.29771941622E+03  0.30105976304E+03  0.00000000000E+00 0. -1.
          1    1    1    2  502    0 -0.28382026750E+02 -0.56723803074E+01  0.16903978330E+04  0.16906456012E+04  0.00000000000E+00 0. -1.
         22    1    3    3    0    0 -0.66792526376E+02  0.12788203546E+02  0.13651120316E+02  0.69362329946E+02  0.00000000000E+00 0. -1.
         22    1    3    3    0    0  0.54365574615E+02  0.11180553569E+02 -0.18888074875E+02  0.58629172379E+02  0.00000000000E+00 0. -1.
</event>
<event>
 7    1  0.6255318E-006  0.6918219E+02  0.7818608E-02  0.1401274E+00
          2   -1    0    0  502    0  0.00000000000E+00  0.00000000000E+00  0.14429487613E+04  0.14429487613E+04  0.00000000000E+00 0. -1.
          1   -1    0    0  501    0 -0.00000000000E+00 -0.00000000000E+00 -0.35939953884E+03  0.35939953884E+03  0.00000000000E+00 0. -1.
         25    2    1    2    0    0 -0.19934400076E+02 -0.15597100366E+02  0.17109949572E+03  0.21340065773E+03  0.12499661369E+03 0.  0.
          2    1    1    2  501    0 -0.50505179627E+02  0.36425711668E+01 -0.33532621873E+03  0.33912787332E+03  0.00000000000E+00 0. -1.
          1    1    1    2  502    0  0.70439579703E+02  0.11954529200E+02  0.12477759455E+04  0.12498197691E+04  0.00000000000E+00 0. -1.
         22    1    3    3    0    0 -0.67984387810E+02 -0.62817048844E+00  0.13598569167E+03  0.15203414065E+03  0.00000000000E+00 0.  1.
         22    1    3    3    0    0  0.48049987734E+02 -0.14968929878E+02  0.35113804053E+02  0.61366517076E+02  0.00000000000E+00 0.  1.
</event>
<event>
 7    1  0.6255318E-006  0.9158597E+02  0.7818608E-02  0.1343820E+00
          2   -1    0    0  502    0  0.00000000000E+00  0.00000000000E+00  0.40457078803E+03  0.40457078803E+03  0.00000000000E+00 0. -1.
          1   -1    0    0  501    0 -0.00000000000E+00 -0.00000000000E+00 -0.22248940536E+04  0.22248940536E+04  0.00000000000E+00 0. -1.
         25    2    1    2    0    0  0.16835301898E+02  0.12012243941E+03 -0.97344197326E+03  0.98890193886E+03  0.12499976614E+03 0.  0.
          2    1    1    2  501    0 -0.52873310949E+02 -0.70356169571E+02 -0.12397743594E+04  0.12428942191E+04  0.00000000000E+00 0. -1.
          1    1    1    2  502    0  0.36038009051E+02 -0.49766269843E+02  0.39289306716E+03  0.39766868362E+03  0.00000000000E+00 0. -1.
         22    1    3    3    0    0  0.41827486524E+01  0.14476058629E+03 -0.86129015988E+03  0.87338070865E+03  0.00000000000E+00 0. -1.
         22    1    3    3    0    0  0.12652553246E+02 -0.24638146880E+02 -0.11215181338E+03  0.11552123021E+03  0.00000000000E+00 0. -1.
</event>
<event>
 7    1  0.6255318E-006  0.7556111E+02  0.7818608E-02  0.1429423E+00
          2   -1    0    0  502    0  0.00000000000E+00  0.00000000000E+00  0.19551200173E+04  0.19551200173E+04  0.00000000000E+00 0. -1.
          1   -1    0    0  501    0 -0.00000000000E+00 -0.00000000000E+00 -0.24965458951E+03  0.24965458951E+03  0.00000000000E+00 0. -1.
         25    2    1    2    0    0  0.85432000266E+02 -0.15693480956E+00  0.98737652522E+02  0.18075610804E+03  0.12499998108E+03 0.  0.
          2    1    1    2  501    0 -0.67981426594E+02 -0.32788715440E+02 -0.20162126909E+03  0.21528518382E+03  0.00000000000E+00 0. -1.
          1    1    1    2  502    0 -0.17450573673E+02  0.32945650250E+02  0.18083490444E+04  0.18087333149E+04  0.00000000000E+00 0. -1.
         22    1    3    3    0    0 -0.26772920744E+02 -0.52874480652E+01 -0.51322605335E+01  0.27768444148E+02  0.00000000000E+00 0.  1.
         22    1    3    3    0    0  0.11220492101E+03  0.51305132557E+01  0.10386991306E+03  0.15298766389E+03  0.00000000000E+00 0.  1.
</event>
<event>
 7    1  0.6255318E-006  0.9296555E+02  0.7818608E-02  0.1345882E+00
          2   -1    0    0  502    0  0.00000000000E+00  0.00000000000E+00  0.16855696136E+03  0.16855696136E+03  0.00000000000E+00 0. -1.
          1   -1    0    0  501    0 -0.00000000000E+00 -0.00000000000E+00 -0.38182672556E+03  0.38182672556E+03  0.00000000000E+00 0. -1.
         25    2    1    2    0    0 -0.94378954897E+02 -0.17897480871E+02 -0.67725631775E+02  0.17158157542E+03  0.12500307547E+03 0.  0.
          2    1    1    2  501    0  0.85066467658E+01  0.58857457823E+02 -0.23849180291E+03  0.24579443328E+03  0.00000000000E+00 0. -1.
          1    1    1    2  502    0  0.85872308131E+02 -0.40959976952E+02  0.92947670487E+02  0.13300767822E+03  0.00000000000E+00 0. -1.
         22    1    3    3    0    0 -0.49054816946E+02  0.28459703509E+02 -0.87081991725E+02  0.10392113872E+03  0.00000000000E+00 0. -1.
         22    1    3    3    0    0 -0.45324137950E+02 -0.46357184380E+02  0.19356359950E+02  0.67660436705E+02  0.00000000000E+00 0. -1.
</event>
<event>
 7    1  0.6255318E-006  0.1231372E+03  0.7818608E-02  0.1324429E+00
          2   -1    0    0  502    0  0.00000000000E+00  0.00000000000E+00  0.30990581895E+03  0.30990581895E+03  0.00000000000E+00 0. -1.
          1   -1    0    0  501    0 -0.00000000000E+00 -0.00000000000E+00 -0.16270853084E+04  0.16270853084E+04  0.00000000000E+00 0. -1.
         25    2    1    2    0    0  0.73943069986E+02  0.32761594342E+02 -0.38316690415E+02  0.15373881151E+03  0.12500621479E+03 0.  0.
          2    1    1    2  501    0 -0.93482218772E+02 -0.83255826074E+02 -0.15255580999E+04  0.15306854588E+04  0.00000000000E+00 0. -1.
          1    1    1    2  502    0  0.19539148786E+02  0.50494231732E+02  0.24669530087E+03  0.25256685698E+03  0.00000000000E+00 0. -1.
         22    1    3    3    0    0  0.42034907872E+00 -0.42818123212E+02 -0.47467778265E+01  0.43082482154E+02  0.00000000000E+00 0. -1.
         22    1    3    3    0    0  0.73522720908E+02  0.75579717554E+02 -0.33569912589E+02  0.11065632936E+03  0.00000000000E+00 0. -1.
</event>
<event>
 7    1  0.6255318E-006  0.2302971E+03  0.7818608E-02  0.1209003E+00
          2   -1    0    0  502    0  0.00000000000E+00  0.00000000000E+00  0.13309226445E+04  0.13309226445E+04  0.00000000000E+00 0. -1.
          1   -1    0    0  501    0 -0.00000000000E+00 -0.00000000000E+00 -0.26733267232E+04  0.26733267232E+04  0.00000000000E+00 0. -1.
         25    2    1    2    0    0 -0.13361173232E+03  0.10217741770E+03  0.84203101569E+03  0.86771646498E+03  0.12499324984E+03 0.  0.
          2    1    1    2  501    0  0.21833962756E+03 -0.74537594258E+02 -0.26512587752E+04  0.26612781026E+04  0.00000000000E+00 0. -1.
          1    1    1    2  502    0 -0.84727895237E+02 -0.27639823444E+02  0.46682368086E+03  0.47525480017E+03  0.00000000000E+00 0. -1.
         22    1    3    3    0    0 -0.85458610010E+02  0.39712231201E+02  0.20264513154E+03  0.22348441706E+03  0.00000000000E+00 0. -1.
         22    1    3    3    0    0 -0.48153122311E+02  0.62465186500E+02  0.63938588415E+03  0.64423204792E+03  0.00000000000E+00 0. -1.
</event>
<event>
 7    1  0.6255318E-006  0.5086851E+02  0.7818608E-02  0.1536721E+00
          2   -1    0    0  502    0  0.00000000000E+00  0.00000000000E+00  0.12685399834E+03  0.12685399834E+03  0.00000000000E+00 0. -1.
          1   -1    0    0  501    0 -0.00000000000E+00 -0.00000000000E+00 -0.97368113639E+03  0.97368113639E+03  0.00000000000E+00 0. -1.
         25    2    1    2    0    0 -0.10465351804E+02  0.25979804113E+02 -0.11113690202E+03  0.16959322107E+03  0.12500390326E+03 0.  0.
          2    1    1    2  501    0  0.32260444552E+02 -0.40175745243E+02 -0.83077114682E+03  0.83236742198E+03  0.00000000000E+00 0. -1.
          1    1    1    2  502    0 -0.21795092748E+02  0.14195941129E+02  0.95080910793E+02  0.98574491678E+02  0.00000000000E+00 0. -1.
         22    1    3    3    0    0  0.40214342908E+01 -0.15062458875E+02  0.23441194596E+02  0.28152072840E+02  0.00000000000E+00 0.  1.
         22    1    3    3    0    0 -0.14486786095E+02  0.41042262988E+02 -0.13457809662E+03  0.14144114823E+03  0.00000000000E+00 0.  1.
</event>
<event>
 7    1  0.6255318E-006  0.1539288E+03  0.7818608E-02  0.1310549E+00
          2   -1    0    0  502    0  0.00000000000E+00  0.00000000000E+00  0.15466378559E+04  0.15466378559E+04  0.00000000000E+00 0. -1.
          1   -1    0    0  501    0 -0.00000000000E+00 -0.00000000000E+00 -0.37034315124E+03  0.37034315124E+03  0.00000000000E+00 0. -1.
         25    2    1    2    0    0 -0.15375059932E+03  0.44993074682E+02  0.49686365581E+03  0.53680640758E+03  0.12499601272E+03 0.  0.
          2    1    1    2  501    0  0.15391365452E+03  0.40607191631E+01 -0.33283429525E+03  0.36672138005E+03  0.00000000000E+00 0. -1.
          1    1    1    2  502    0 -0.16305520439E+00 -0.49053793845E+02  0.10122653441E+04  0.10134532195E+04  0.00000000000E+00 0. -1.
         22    1    3    3    0    0 -0.23124155149E+02 -0.38871855453E+02  0.15263708400E+03  0.15919744693E+03  0.00000000000E+00 0.  1.
         22    1    3    3    0    0 -0.13062644417E+03  0.83864930135E+02  0.34422657181E+03  0.37760896065E+03  0.00000000000E+00 0.  1.
</event>
<event>
 7    1  0.6255318E-006  0.6990273E+02  0.7818608E-02  0.1426245E+00
          2   -1    0    0  502    0  0.00000000000E+00  0.00000000000E+00  0.55031020480E+03  0.55031020480E+03  0.00000000000E+00 0. -1.
          1   -1    0    0  501    0 -0.00000000000E+00 -0.00000000000E+00 -0.23982509473E+03  0.23982509473E+03  0.00000000000E+00 0. -1.
         25    2    1    2    0    0  0.41204359386E+02  0.37564365799E+01  0.16662844721E+03  0.21238111104E+03  0.12501514652E+03 0.  0.
          2    1    1    2  501    0  0.24538694434E+02  0.33201518424E+02 -0.21098486799E+03  0.21498628531E+03  0.00000000000E+00 0. -1.
          1    1    1    2  502    0 -0.65743053820E+02 -0.36957955004E+02  0.35484153085E+03  0.36276790319E+03  0.00000000000E+00 0. -1.
         22    1    3    3    0    0  0.63168081725E+02 -0.41103353715E+02  0.66596201388E+02  0.10057209491E+03  0.00000000000E+00 0. -1.
         22    1    3    3    0    0 -0.21963722339E+02  0.44859790295E+02  0.10003224582E+03  0.11180901613E+03  0.00000000000E+00 0. -1.
</event>
<event>
 7    1  0.6255318E-006  0.1141284E+03  0.7818608E-02  0.1321758E+00
          2   -1    0    0  502    0  0.00000000000E+00  0.00000000000E+00  0.21110220184E+04  0.21110220184E+04  0.00000000000E+00 0. -1.
          1   -1    0    0  501    0 -0.00000000000E+00 -0.00000000000E+00 -0.18514325720E+03  0.18514325720E+03  0.00000000000E+00 0. -1.
         25    2    1    2    0    0 -0.80314732245E+02 -0.97366989698E+02  0.66522449424E+02  0.18968964210E+03  0.12500454850E+03 0.  0.
          2    1    1    2  501    0 -0.25393540919E+02  0.54162931179E+02 -0.11457105662E+03  0.12924775453E+03  0.00000000000E+00 0. -1.
          1    1    1    2  502    0  0.10570827316E+03  0.43204058519E+02  0.19739273684E+04  0.19772278790E+04  0.00000000000E+00 0. -1.
         22    1    3    3    0    0 -0.10087889006E+03 -0.69788768323E+02  0.86324307453E+02  0.14999636229E+03  0.00000000000E+00 0.  1.
         22    1    3    3    0    0  0.20564157813E+02 -0.27578221375E+02 -0.19801858030E+02  0.39693279811E+02  0.00000000000E+00 0.  1.
</event>
<event>
 7    1  0.6255318E-006  0.1259250E+03  0.7818608E-02  0.1375605E+00
          2   -1    0    0  502    0  0.00000000000E+00  0.00000000000E+00  0.94665010393E+03  0.94665010393E+03  0.00000000000E+00 0. -1.
          1   -1    0    0  501    0 -0.00000000000E+00 -0.00000000000E+00 -0.68720512017E+03  0.68720512017E+03  0.00000000000E+00 0. -1.
         25    2    1    2    0    0  0.62798007943E+02  0.11003320994E+03 -0.60693471843E+03  0.63249113989E+03  0.12499757002E+03 0.  0.
          2    1    1    2  501    0 -0.30880179615E+02 -0.12234100362E+03 -0.78908089072E+01  0.12642456852E+03  0.00000000000E+00 0. -1.
          1    1    1    2  502    0 -0.31917828328E+02  0.12307793679E+02  0.87427051110E+03  0.87493951569E+03  0.00000000000E+00 0. -1.
         22    1    3    3    0    0  0.88526291564E+02  0.49920149236E+02 -0.25450450107E+03  0.27404646807E+03  0.00000000000E+00 0.  1.
         22    1    3    3    0    0 -0.25728283620E+02  0.60113060704E+02 -0.35243021736E+03  0.35844467181E+03  0.00000000000E+00 0.  1.
</event>
<event>
 7    1  0.6255318E-006  0.1011838E+03  0.7818608E-02  0.1356308E+00
          2   -1    0    0  502    0  0.00000000000E+00  0.00000000000E+00  0.72481266791E+03  0.72481266791E+03  0.00000000000E+00 0. -1.
          1   -1    0    0  501    0 -0.00000000000E+00 -0.00000000000E+00 -0.11762770264E+04  0.11762770264E+04  0.00000000000E+00 0. -1.
         25    2    1    2    0    0 -0.45701779663E+02 -0.14041140502E+03 -0.21830187010E+03  0.29169303340E+03  0.12500041567E+03 0.  0.
          2    1    1    2  501    0  0.26578238206E+02  0.94217189355E+02 -0.91776487892E+03  0.92297110166E+03  0.00000000000E+00 0. -1.
          1    1    1    2  502    0  0.19123541457E+02  0.46194215669E+02  0.68460239049E+03  0.68642555930E+03  0.00000000000E+00 0. -1.
         22    1    3    3    0    0 -0.55701281060E+02 -0.15989463863E+03 -0.20571170330E+03  0.26643241742E+03  0.00000000000E+00 0. -1.
         22    1    3    3    0    0  0.99995013970E+01  0.19483233604E+02 -0.12590166799E+02  0.25260615984E+02  0.00000000000E+00 0. -1.
</event>
<event>
 7    1  0.6255318E-006  0.1552628E+03  0.7818608E-02  0.1383777E+00
          2   -1    0    0  502    0  0.00000000000E+00  0.00000000000E+00  0.42113830629E+04  0.42113830629E+04  0.00000000000E+00 0. -1.
          1   -1    0    0  501    0 -0.00000000000E+00 -0.00000000000E+00 -0.83292204345E+03  0.83292204345E+03  0.00000000000E+00 0. -1.
         25    2    1    2    0    0  0.59553757347E+02 -0.16241883511E+03  0.24768723817E+03  0.32695377438E+03  0.12499309827E+03 0.  0.
          2    1    1    2  501    0  0.95899159421E+01  0.24118605597E+02 -0.79155282664E+03  0.79197825158E+03  0.00000000000E+00 0. -1.
          1    1    1    2  502    0 -0.69143673289E+02  0.13830022951E+03  0.39223266079E+04  0.39253730804E+04  0.00000000000E+00 0. -1.
         22    1    3    3    0    0  0.74691761578E+02 -0.16050703039E+03  0.25468238512E+03  0.31016847574E+03  0.00000000000E+00 0.  1.
         22    1    3    3    0    0 -0.15138004231E+02 -0.19118047173E+01 -0.69951469519E+01  0.16785298635E+02  0.00000000000E+00 0.  1.
</event>
<event>
 7    1  0.6255318E-006  0.4243409E+02  0.7818608E-02  0.1518758E+00
          2   -1    0    0  502    0  0.00000000000E+00  0.00000000000E+00  0.29850987861E+03  0.29850987861E+03  0.00000000000E+00 0. -1.
          1   -1    0    0  501    0 -0.00000000000E+00 -0.00000000000E+00 -0.43651141959E+03  0.43651141959E+03  0.00000000000E+00 0. -1.
         25    2    1    2    0    0 -0.31980107220E+02  0.34401618345E+02 -0.16873224566E+03  0.21517967378E+03  0.12500209070E+03 0.  0.
          2    1    1    2  501    0  0.34179094338E+02  0.80582018129E+01 -0.24163706901E+03  0.24417538416E+03  0.00000000000E+00 0. -1.
          1    1    1    2  502    0 -0.21989871178E+01 -0.42459820158E+02  0.27236777369E+03  0.27566624026E+03  0.00000000000E+00 0. -1.
         22    1    3    3    0    0 -0.70838016667E+02 -0.52414258116E+01 -0.12778449569E+03  0.14619977595E+03  0.00000000000E+00 0. -1.
         22    1    3    3    0    0  0.38857909448E+02  0.39643044157E+02 -0.40947749972E+02  0.68979897829E+02  0.00000000000E+00 0. -1.
</event>
<event>
 7    1  0.6255318E-006  0.8199521E+02  0.7818608E-02  0.1418044E+00
          2   -1    0    0  502    0  0.00000000000E+00  0.00000000000E+00  0.64382672910E+03  0.64382672910E+03  0.00000000000E+00 0. -1.
          1   -1    0    0  501    0 -0.00000000000E+00 -0.00000000000E+00 -0.10552237765E+04  0.10552237765E+04  0.00000000000E+00 0. -1.
         25    2    1    2    0    0  0.62814042555E+02 -0.99916220967E+02 -0.11375264254E+03  0.20613872339E+03  0.12499861775E+03 0.  0.
          2    1    1    2  501    0 -0.44108865767E+02  0.67436555802E+02 -0.89287425107E+03  0.89650304479E+03  0.00000000000E+00 0. -1.
          1    1    1    2  502    0 -0.18705176788E+02  0.32479665165E+02  0.59522984620E+03  0.59640873744E+03  0.00000000000E+00 0. -1.
         22    1    3    3    0    0  0.24712358512E+02 -0.11905040898E+03 -0.10890105094E+03  0.16322726316E+03  0.00000000000E+00 0. -1.
         22    1    3    3    0    0  0.38101684043E+02  0.19134188016E+02 -0.48515916071E+01  0.42911460230E+02  0.00000000000E+00 0. -1.
</event>
<event>
 7    1  0.6255318E-006  0.1048762E+03  0.7818608E-02  0.1400966E+00
          2   -1    0    0  502    0  0.00000000000E+00  0.00000000000E+00  0.14065274932E+03  0.14065274932E+03  0.00000000000E+00 0. -1.
          1   -1    0    0  501    0 -0.00000000000E+00 -0.00000000000E+00 -0.22756082027E+03  0.22756082027E+03  0.00000000000E+00 0. -1.
         25    2    1    2    0    0  0.63654155144E+02  0.53312784899E+02 -0.27887117985E+02  0.15262512369E+03  0.12499052977E+03 0.  0.
          2    1    1    2  501    0  0.30298800200E+02  0.14253530496E+02 -0.89800287408E+02  0.95839824936E+02  0.00000000000E+00 0. -1.
          1    1    1    2  502    0 -0.93952955344E+02 -0.67566315395E+02  0.30779334443E+02  0.11974862096E+03  0.00000000000E+00 0. -1.
         22    1    3    3    0    0  0.50683218397E+02 -0.33036580825E+02  0.14306873460E+01  0.60516536302E+02  0.00000000000E+00 0. -1.
         22    1    3    3    0    0  0.12970936747E+02  0.86349365725E+02 -0.29317805331E+02  0.92108587388E+02  0.00000000000E+00 0. -1.
</event>
<event>
 7    1  0.6255318E-006  0.2134086E+03  0.7818608E-02  0.1187425E+00
          2   -1    0    0  502    0  0.00000000000E+00  0.00000000000E+00  0.17559533721E+03  0.17559533721E+03  0.00000000000E+00 0. -1.
          1   -1    0    0  501    0 -0.00000000000E+00 -0.00000000000E+00 -0.15783862452E+04  0.15783862452E+04  0.00000000000E+00 0. -1.
         25    2    1    2    0    0 -0.42673530311E+02  0.11933330324E+03 -0.28943657713E+03  0.33979548427E+03  0.12500388592E+03 0.  0.
          2    1    1    2  501    0  0.15171671036E+02  0.12071084524E+03 -0.11614724206E+04  0.11678268157E+04  0.00000000000E+00 0. -1.
          1    1    1    2  502    0  0.27501859275E+02 -0.24004414848E+03  0.48118089700E+02  0.24635928243E+03  0.00000000000E+00 0. -1.
         22    1    3    3    0    0 -0.63307979628E+02  0.11288968182E+03 -0.14755469900E+03  0.19627625873E+03  0.00000000000E+00 0.  1.
         22    1    3    3    0    0  0.20634449317E+02  0.64436214263E+01 -0.14188187813E+03  0.14351922554E+03  0.00000000000E+00 0.  1.
</event>
<event>
 7    1  0.6255318E-006  0.1962001E+03  0.7818608E-02  0.1367099E+00
          2   -1    0    0  502    0  0.00000000000E+00  0.00000000000E+00  0.35953425252E+02  0.35953425252E+02  0.00000000000E+00 0. -1.
          1   -1    0    0  501    0 -0.00000000000E+00 -0.00000000000E+00 -0.14901458833E+04  0.14901458833E+04  0.00000000000E+00 0. -1.
         25    2    1    2    0    0 -0.76558663567E+02  0.17045812807E+03 -0.59226645477E+03  0.63349927516E+03  0.12499830314E+03 0.  0.
          2    1    1    2  501    0 -0.17899635415E+02  0.15309987794E+02 -0.83274968855E+02  0.86541973123E+02  0.00000000000E+00 0. -1.
          1    1    1    2  502    0  0.94458298982E+02 -0.18576811587E+03 -0.77865103441E+03  0.80605806025E+03  0.00000000000E+00 0. -1.
         22    1    3    3    0    0 -0.34915423179E+02  0.10702707147E+01 -0.34511592707E+02  0.49104809198E+02  0.00000000000E+00 0. -1.
         22    1    3    3    0    0 -0.41643240388E+02  0.16938785736E+03 -0.55775486206E+03  0.58439446596E+03  0.00000000000E+00 0. -1.
</event>
<event>
 7    1  0.6255318E-006  0.5167585E+02  0.7818608E-02  0.1499024E+00
          2   -1    0    0  502    0  0.00000000000E+00  0.00000000000E+00  0.49590338067E+03  0.49590338067E+03  0.00000000000E+00 0. -1.
          1   -1    0    0  501    0 -0.00000000000E+00 -0.00000000000E+00 -0.97348364231E+02  0.97348364231E+02  0.00000000000E+00 0. -1.
         25    2    1    2    0    0  0.66231864771E+02 -0.46154715774E+02  0.15622760678E+03  0.21575220050E+03  0.12500011681E+03 0.  0.
          2    1    1    2  501    0 -0.31129429538E+02  0.10860845315E+02 -0.61415111023E+02  0.69705202146E+02  0.00000000000E+00 0. -1.
          1    1    1    2  502    0 -0.35102435233E+02  0.35293870460E+02  0.30374252069E+03  0.30779434226E+03  0.00000000000E+00 0. -1.
         22    1    3    3    0    0  0.56732900816E+01 -0.62484017054E+02  0.20120247514E+02  0.65888261228E+02  0.00000000000E+00 0.  1.
         22    1    3    3    0    0  0.60558574690E+02  0.16329301280E+02  0.13610735926E+03  0.14986393927E+03  0.00000000000E+00 0.  1.
</event>
<event>
 7    1  0.6255318E-006  0.6253967E+02  0.7818608E-02  0.1515467E+00
          2   -1    0    0  502    0  0.00000000000E+00  0.00000000000E+00  0.12519214737E+04  0.12519214737E+04  0.00000000000E+00 0. -1.
          1   -1    0    0  501    0 -0.00000000000E+00 -0.00000000000E+00 -0.84545353912E+03  0.84545353912E+03  0.00000000000E+00 0. -1.
         25    2    1    2    0    0 -0.62419232895E+02 -0.49607360625E+02  0.16555204026E+01  0.14827153206E+03  0.12499862242E+03 0.  0.
          2    1    1    2  501    0  0.38062072589E+02  0.49307967103E+02 -0.77076291743E+03  0.77327580582E+03  0.00000000000E+00 0. -1.
          1    1    1    2  502    0  0.24357160306E+02  0.29939352145E+00  0.11755753316E+04  0.11758276749E+04  0.00000000000E+00 0. -1.
         22    1    3    3    0    0 -0.28723790592E+02  0.25949978614E+02 -0.39984828747E+02  0.55652889107E+02  0.00000000000E+00 0.  1.
         22    1    3    3    0    0 -0.33695442303E+02 -0.75557339239E+02  0.41640349149E+02  0.92618642951E+02  0.00000000000E+00 0.  1.
</event>
<event>
 7    1  0.6255318E-006  0.3445608E+02  0.7818608E-02  0.1575628E+00
          2   -1    0    0  502    0  0.00000000000E+00  0.00000000000E+00  0.18304152302E+03  0.18304152302E+03  0.00000000000E+00 0. -1.
          1   -1    0    0  501    0 -0.00000000000E+00 -0.00000000000E+00 -0.51535155223E+03  0.51535155223E+03  0.00000000000E+00 0. -1.
         25    2    1    2    0    0 -0.58647006530E+01  0.62135239719E+02 -0.16660534561E+03  0.21743257230E+03  0.12499759830E+03 0.  0.
          2    1    1    2  501    0  0.10133836343E+02 -0.28203673450E+02 -0.32077090655E+03  0.32216783875E+03  0.00000000000E+00 0. -1.
          1    1    1    2  502    0 -0.42691356900E+01 -0.33931566269E+02  0.15506622294E+03  0.15879266421E+03  0.00000000000E+00 0. -1.
         22    1    3    3    0    0 -0.29912338710E+02  0.36610566467E+02 -0.17508325099E+03  0.18135387054E+03  0.00000000000E+00 0.  1.
         22    1    3    3    0    0  0.24047638057E+02  0.25524673252E+02  0.84779053794E+01  0.36078701756E+02  0.00000000000E+00 0.  1.
</event>
<event>
 7    1  0.6255318E-006  0.9871197E+02  0.7818608E-02  0.1290455E+00
          2   -1    0    0  502    0  0.00000000000E+00  0.00000000000E+00  0.64910890010E+03  0.64910890010E+03  0.00000000000E+00 0. -1.
          1   -1    0    0  501    0 -0.00000000000E+00 -0.00000000000E+00 -0.29466995934E+03  0.29466995934E+03  0.00000000000E+00 0. -1.
         25    2    1    2    0    0 -0.45933973722E+02 -0.48879564194E+01 -0.70477534682E+02  0.15076517770E+03  0.12501693426E+03 0.  0.
          2    1    1    2  501    0  0.12629678376E+03 -0.39992668575E+02 -0.15610782145E+03  0.20474360319E+03  0.00000000000E+00 0. -1.
          1    1    1    2  502    0 -0.80362810042E+02  0.44880624994E+02  0.58102429690E+03  0.58827007855E+03  0.00000000000E+00 0. -1.
         22    1    3    3    0    0 -0.39779085278E+02  0.42780544987E+02  0.77731877876E+01  0.58931936192E+02  0.00000000000E+00 0. -1.
         22    1    3    3    0    0 -0.61548884441E+01 -0.47668501406E+02 -0.78250722470E+02  0.91833241504E+02  0.00000000000E+00 0. -1.
</event>
<event>
 7    1  0.6255318E-006  0.2661117E+03  0.7818608E-02  0.1218360E+00
          2   -1    0    0  502    0  0.00000000000E+00  0.00000000000E+00  0.30659955114E+04  0.30659955114E+04  0.00000000000E+00 0. -1.
          1   -1    0    0  501    0 -0.00000000000E+00 -0.00000000000E+00 -0.22601262580E+03  0.22601262580E+03  0.00000000000E+00 0. -1.
         25    2    1    2    0    0 -0.73015064940E+02  0.25619179194E+03  0.10746910513E+04  0.11142488797E+04  0.12499710496E+03 0.  0.
          2    1    1    2  501    0  0.13723619222E+03 -0.22875130589E+03 -0.11905294073E+03  0.29212075431E+03  0.00000000000E+00 0. -1.
          1    1    1    2  502    0 -0.64221127279E+02 -0.27440486050E+02  0.18843447750E+04  0.18856385032E+04  0.00000000000E+00 0. -1.
         22    1    3    3    0    0 -0.41381952614E+02  0.16273445911E+03  0.88118210551E+03  0.89703783268E+03  0.00000000000E+00 0.  1.
         22    1    3    3    0    0 -0.31633112325E+02  0.93457332836E+02  0.19350894576E+03  0.21721104702E+03  0.00000000000E+00 0.  1.
</event>
<event>
 7    1  0.6255318E-006  0.1601803E+03  0.7818608E-02  0.1223255E+00
          2   -1    0    0  502    0  0.00000000000E+00  0.00000000000E+00  0.82858706391E+03  0.82858706391E+03  0.00000000000E+00 0. -1.
          1   -1    0    0  501    0 -0.00000000000E+00 -0.00000000000E+00 -0.70318123848E+03  0.70318123848E+03  0.00000000000E+00 0. -1.
         25    2    1    2    0    0 -0.10860076818E+03 -0.24362850885E+03  0.21985095397E+03  0.36757171192E+03  0.12500217705E+03 0.  0.
          2    1    1    2  501    0  0.60520530101E+02  0.14444866276E+03 -0.61370209694E+03  0.63337067703E+03  0.00000000000E+00 0. -1.
          1    1    1    2  502    0  0.48080238076E+02  0.99179846086E+02  0.51925696839E+03  0.53082591345E+03  0.00000000000E+00 0. -1.
         22    1    3    3    0    0 -0.43117965398E+02 -0.21958953535E+03  0.15406975764E+03  0.27169139330E+03  0.00000000000E+00 0. -1.
         22    1    3    3    0    0 -0.65482802778E+02 -0.24038973497E+02  0.65781196333E+02  0.95880318614E+02  0.00000000000E+00 0. -1.
</event>
<event>
 7    1  0.6255318E-006  0.5768843E+02  0.7818608E-02  0.1442780E+00
          2   -1    0    0  502    0  0.00000000000E+00  0.00000000000E+00  0.20871253557E+03  0.20871253557E+03  0.00000000000E+00 0. -1.
          1   -1    0    0  501    0 -0.00000000000E+00 -0.00000000000E+00 -0.68517747937E+03  0.68517747937E+03  0.00000000000E+00 0. -1.
         25    2    1    2    0    0 -0.54007057286E+01 -0.38562793324E+02 -0.18075778062E+03  0.22319258323E+03  0.12500118920E+03 0.  0.
          2    1    1    2  501    0 -0.43638519575E+02  0.68240119844E+01 -0.47760872247E+03  0.47964672344E+03  0.00000000000E+00 0. -1.
          1    1    1    2  502    0  0.49039225303E+02  0.31738781339E+02  0.18190155929E+03  0.19105070827E+03  0.00000000000E+00 0. -1.
         22    1    3    3    0    0 -0.16704601721E+02  0.21330685114E+02  0.51235215749E+01  0.27573398764E+02  0.00000000000E+00 0. -1.
         22    1    3    3    0    0  0.11303895992E+02 -0.59893478438E+02 -0.18588130220E+03  0.19561918446E+03  0.00000000000E+00 0. -1.
</event>
<event>
 7    1  0.6255318E-006  0.3584220E+03  0.7818608E-02  0.1280401E+00
          2   -1    0    0  502    0  0.00000000000E+00  0.00000000000E+00  0.22290475581E+04  0.22290475581E+04  0.00000000000E+00 0. -1.
          1   -1    0    0  501    0 -0.00000000000E+00 -0.00000000000E+00 -0.72951109440E+03  0.72951109440E+03  0.00000000000E+00 0. -1.
         25    2    1    2    0    0 -0.32914530255E+03  0.10920496756E+03 -0.57946651311E+03  0.68678135975E+03  0.12499936461E+03 0.  0.
          2    1    1    2  501    0 -0.18513636155E+02 -0.20835280227E+02 -0.79202687450E+02  0.83963857255E+02  0.00000000000E+00 0. -1.
          1    1    1    2  502    0  0.34765893871E+03 -0.88369687336E+02  0.21582056643E+04  0.21878134355E+04  0.00000000000E+00 0. -1.
         22    1    3    3    0    0 -0.31672425202E+03  0.66011790806E+02 -0.50208472566E+03  0.59729463423E+03  0.00000000000E+00 0. -1.
         22    1    3    3    0    0 -0.12421050530E+02  0.43193176757E+02 -0.77381787449E+02  0.89486725516E+02  0.00000000000E+00 0. -1.
</event>
<event>
 7    1  0.6255318E-006  0.1660879E+03  0.7818608E-02  0.1262659E+00
          2   -1    0    0  502    0  0.00000000000E+00  0.00000000000E+00  0.26763254433E+04  0.26763254433E+04  0.00000000000E+00 0. -1.
          1   -1    0    0  501    0 -0.00000000000E+00 -0.00000000000E+00 -0.12782725708E+03  0.12782725708E+03  0.00000000000E+00 0. -1.
         25    2    1    2    0    0  0.81128918638E+02  0.16405000195E+03  0.15748550713E+04  0.15903729383E+04  0.12499313129E+03 0.  0.
          2    1    1    2  501    0 -0.97715698649E+01 -0.16569029003E+03 -0.60884537906E+02  0.17679276779E+03  0.00000000000E+00 0. -1.
          1    1    1    2  502    0 -0.71357348773E+02  0.16402880756E+01  0.10345276528E+04  0.10369869942E+04  0.00000000000E+00 0. -1.
         22    1    3    3    0    0  0.85811570069E+02  0.17796696265E+03  0.15389591606E+04  0.15515898825E+04  0.00000000000E+00 0. -1.
         22    1    3    3    0    0 -0.46826514305E+01 -0.13916960699E+02  0.35895910677E+02  0.38783055873E+02  0.00000000000E+00 0. -1.
</event>
<event>
 7    1  0.6255318E-006  0.1323806E+03  0.7818608E-02  0.1296881E+00
          2   -1    0    0  502    0  0.00000000000E+00  0.00000000000E+00  0.19207522853E+03  0.19207522853E+03  0.00000000000E+00 0. -1.
          1   -1    0    0  501    0 -0.00000000000E+00 -0.00000000000E+00 -0.21256016645E+04  0.21256016645E+04  0.00000000000E+00 0. -1.
         25    2    1    2    0    0 -0.54232485466E+02  0.12320782844E+03 -0.81644011900E+03  0.83685124427E+03  0.12499682262E+03 0.  0.
          2    1    1    2  501    0  0.10605418411E+03 -0.84553837791E+02 -0.12895392895E+04  0.12966527756E+04  0.00000000000E+00 0. -1.
          1    1    1    2  502    0 -0.51821698642E+02 -0.38653990649E+02  0.17245297254E+03  0.18417287309E+03  0.00000000000E+00 0. -1.
         22    1    3    3    0    0  0.16971521932E+02  0.10814347702E+03 -0.43764772719E+03  0.45113033294E+03  0.00000000000E+00 0. -1.
         22    1    3    3    0    0 -0.71204007398E+02  0.15064351416E+02 -0.37879239181E+03  0.38572091134E+03  0.00000000000E+00 0. -1.
</event>
<event>
 7    1  0.6255318E-006  0.7773622E+02  0.7818608E-02  0.1414112E+00
          2   -1    0    0  502    0  0.00000000000E+00  0.00000000000E+00  0.75772425503E+03  0.75772425503E+03  0.00000000000E+00 0. -1.
          1   -1    0    0  501    0 -0.00000000000E+00 -0.00000000000E+00 -0.10828922333E+03  0.10828922333E+03  0.00000000000E+00 0. -1.
         25    2    1    2    0    0  0.10390752846E+02 -0.10973168483E+03  0.14230995477E+03  0.21914874830E+03  0.12500016102E+03 0.  0.
          2    1    1    2  501    0 -0.21328871840E+02  0.34728507497E+02 -0.61188522850E+02  0.73518877409E+02  0.00000000000E+00 0. -1.
          1    1    1    2  502    0  0.10938118995E+02  0.75003177337E+02  0.56831359978E+03  0.57334585265E+03  0.00000000000E+00 0. -1.
         22    1    3    3    0    0 -0.83708854068E+01 -0.13280501937E+03  0.95885378667E+02  0.16401600755E+03  0.00000000000E+00 0. -1.
         22    1    3    3    0    0  0.18761638253E+02  0.23073334531E+02  0.46424576103E+02  0.55132740750E+02  0.00000000000E+00 0. -1.
</event>
<event>
 7    1  0.6255318E-006  0.2034558E+03  0.7818608E-02  0.1325171E+00
          2   -1    0    0  502    0  0.00000000000E+00  0.00000000000E+00  0.77839813855E+03  0.77839813855E+03  0.00000000000E+00 0. -1.
          1   -1    0    0  501    0 -0.00000000000E+00 -0.00000000000E+00 -0.16725279056E+03  0.16725279056E+03  0.00000000000E+00 0. -1.
         25    2    1    2    0    0 -0.12113650716E+03  0.19300115628E+03  0.27379085424E+03  0.37750710080E+03  0.12500671819E+03 0.  0.
          2    1    1    2  501    0  0.11319468690E+03 -0.16143097429E+03 -0.29928525119E+02  0.19942094478E+03  0.00000000000E+00 0. -1.
          1    1    1    2  502    0  0.79418202568E+01 -0.31570181993E+02  0.36728301886E+03  0.36872288354E+03  0.00000000000E+00 0. -1.
         22    1    3    3    0    0 -0.83101138471E+02  0.18882347240E+03  0.17144254007E+03  0.26823990660E+03  0.00000000000E+00 0.  1.
         22    1    3    3    0    0 -0.38035368687E+02  0.41776838728E+01  0.10234831418E+03  0.10926719420E+03  0.00000000000E+00 0.  1.
</event>
<event>
 7    1  0.6255318E-006  0.5518518E+02  0.7818608E-02  0.1462433E+00
          2   -1    0    0  502    0  0.00000000000E+00  0.00000000000E+00  0.10286129212E+04  0.10286129212E+04  0.00000000000E+00 0. -1.
          1   -1    0    0  501    0 -0.00000000000E+00 -0.00000000000E+00 -0.30938291975E+02  0.30938291975E+02  0.00000000000E+00 0. -1.
         25    2    1    2    0    0 -0.79085150271E+02  0.99886663372E+01  0.22530280163E+03  0.26970397971E+03  0.12499859921E+03 0.  0.
          2    1    1    2  501    0  0.47167632715E+02  0.14070495701E+02  0.65937900231E+02  0.82283480189E+02  0.00000000000E+00 0. -1.
          1    1    1    2  502    0  0.31917517556E+02 -0.24059162038E+02  0.70643392738E+03  0.70756375328E+03  0.00000000000E+00 0. -1.
         22    1    3    3    0    0 -0.11319832830E+03  0.24433469284E+01  0.16810363294E+03  0.20267871837E+03  0.00000000000E+00 0. -1.
         22    1    3    3    0    0  0.34113178024E+02  0.75453194088E+01  0.57199168684E+02  0.67025261343E+02  0.00000000000E+00 0. -1.
</event>
<event>
 7    1  0.6255318E-006  0.1568965E+03  0.7818608E-02  0.1359103E+00
          2   -1    0    0  502    0  0.00000000000E+00  0.00000000000E+00  0.13247589135E+04  0.13247589135E+04  0.00000000000E+00 0. -1.
          1   -1    0    0  501    0 -0.00000000000E+00 -0.00000000000E+00 -0.47996873135E+03  0.47996873135E+03  0.00000000000E+00 0. -1.
         25    2    1    2    0    0 -0.10436984302E+03  0.11279912739E+03  0.47163920577E+03  0.51154530261E+03  0.12497339290E+03 0.  0.
          2    1    1    2  501    0 -0.24522679032E+02 -0.19758082099E+02 -0.45188018864E+03  0.45297621182E+03  0.00000000000E+00 0. -1.
          1    1    1    2  502    0  0.12889252205E+03 -0.93041045295E+02  0.82503116505E+03  0.84020613046E+03  0.00000000000E+00 0. -1.
         22    1    3    3    0    0 -0.12967920144E+03  0.10094615975E+03  0.34891664312E+03  0.38568075698E+03  0.00000000000E+00 0.  1.
         22    1    3    3    0    0  0.25309358419E+02  0.11852967645E+02  0.12272256265E+03  0.12586454564E+03  0.00000000000E+00 0.  1.
</event>
<event>
 7    1  0.6255318E-006  0.8557129E+02  0.7818608E-02  0.1351697E+00
          2   -1    0    0  502    0  0.00000000000E+00  0.00000000000E+00  0.18578162906E+04  0.18578162906E+04  0.00000000000E+00 0. -1.
          1   -1    0    0  501    0 -0.00000000000E+00 -0.00000000000E+00 -0.17214643411E+04  0.17214643411E+04  0.00000000000E+00 0. -1.
         25    2    1    2    0    0  0.91053015845E+02  0.10678247104E+03  0.13060596802E+03  0.22885823632E+03  0.12500010253E+03 0.  0.
          2    1    1    2  501    0 -0.52810384458E+02 -0.31468079197E+02 -0.16707096034E+04  0.16718402303E+04  0.00000000000E+00 0. -1.
          1    1    1    2  502    0 -0.38242631387E+02 -0.75314391842E+02  0.16764555850E+04  0.16785821651E+04  0.00000000000E+00 0. -1.
         22    1    3    3    0    0 -0.22585695204E+02 -0.56507393876E+01  0.14205695199E+01  0.23325147400E+02  0.00000000000E+00 0.  1.
         22    1    3    3    0    0  0.11363871105E+03  0.11243321043E+03  0.12918539850E+03  0.20553308892E+03  0.00000000000E+00 0.  1.
</event>
<event>
 7    1  0.6255318E-006  0.1215002E+03  0.7818608E-02  0.1307182E+00
          2   -1    0    0  502    0  0.00000000000E+00  0.00000000000E+00  0.46010027242E+03  0.46010027242E+03  0.00000000000E+00 0. -1.
          1   -1    0    0  501    0 -0.00000000000E+00 -0.00000000000E+00 -0.63678478712E+03  0.63678478712E+03  0.00000000000E+00 0. -1.
         25    2    1    2    0    0 -0.21147046646E+02 -0.79469181517E+02 -0.21926156460E+03  0.26544912163E+03  0.12500021627E+03 0.  0.
          2    1    1    2  501    0  0.17369235900E+02  0.14343568001E+03 -0.37869349082E+03  0.40531992875E+03  0.00000000000E+00 0. -1.
          1    1    1    2  502    0  0.37778107467E+01 -0.63966498494E+02  0.42127054072E+03  0.42611600916E+03  0.00000000000E+00 0. -1.
         22    1    3    3    0    0 -0.27652266982E+02 -0.11241153201E+03 -0.17655967903E+03  0.21112631446E+03  0.00000000000E+00 0. -1.
         22    1    3    3    0    0  0.65052203357E+01  0.32942350490E+02 -0.42701885574E+02  0.54322807171E+02  0.00000000000E+00 0. -1.
</event>
<event>
 7    1  0.6255318E-006  0.9611267E+02  0.7818608E-02  0.1365421E+00
          2   -1    0    0  502    0  0.00000000000E+00  0.00000000000E+00  0.13775416052E+04  0.13775416052E+04  0.00000000000E+00 0. -1.
          1   -1    0    0  501    0 -0.00000000000E+00 -0.00000000000E+00 -0.75053344709E+02  0.75053344709E+02  0.00000000000E+00 0. -1.
         25    2    1    2    0    0  0.27876541633E+02  0.11718616778E+03  0.18340713674E+03  0.25253247976E+03  0.12499910413E+03 0.  0.
          2    1    1    2  501    0  0.13153283205E+02 -0.90843321020E+02  0.12766807404E+02  0.92674210028E+02  0.00000000000E+00 0. -1.
          1    1    1    2  502    0 -0.41029824837E+02 -0.26342846765E+02  0.11063143163E+04  0.11073882601E+04  0.00000000000E+00 0. -1.
         22    1    3    3    0    0  0.47804796993E+02  0.15144509753E+02  0.12170839973E+03  0.13163430159E+03  0.00000000000E+00 0. -1.
         22    1    3    3    0    0 -0.19928255360E+02  0.10204165803E+03  0.61698737014E+02  0.12089817817E+03  0.00000000000E+00 0. -1.
</event>
<event>
 7    1  0.6255318E-006  0.3631736E+02  0.7818608E-02  0.1580516E+00
          2   -1    0    0  502    0  0.00000000000E+00  0.00000000000E+00  0.49814913535E+03  0.49814913535E+03  0.00000000000E+00 0. -1.
          1   -1    0    0  501    0 -0.00000000000E+00 -0.00000000000E+00 -0.11936643006E+03  0.11936643006E+03  0.00000000000E+00 0. -1.
         25    2    1    2    0    0 -0.28941524196E+02  0.47588467483E+02  0.74466968648E+02  0.15579532168E+03  0.12499831511E+03 0.  0.
          2    1    1    2  501    0  0.24936736142E+02 -0.11795158300E+02 -0.75406429752E+02  0.80293811820E+02  0.00000000000E+00 0. -1.
          1    1    1    2  502    0  0.40047880540E+01 -0.35793309183E+02  0.37972216639E+03  0.38142643191E+03  0.00000000000E+00 0. -1.
         22    1    3    3    0    0 -0.65947149134E+02  0.56761269654E+02  0.78844324641E+02  0.11741931587E+03  0.00000000000E+00 0. -1.
         22    1    3    3    0    0  0.37005624938E+02 -0.91728021713E+01 -0.43773559936E+01  0.38376005814E+02  0.00000000000E+00 0. -1.
</event>
<event>
 7    1  0.6255318E-006  0.8855586E+02  0.7818608E-02  0.1346628E+00
          2   -1    0    0  502    0  0.00000000000E+00  0.00000000000E+00  0.66103364792E+03  0.66103364792E+03  0.00000000000E+00 0. -1.
          1   -1    0    0  501    0 -0.00000000000E+00 -0.00000000000E+00 -0.30785489013E+03  0.30785489013E+03  0.00000000000E+00 0. -1.
         25    2    1    2    0    0 -0.67100123819E+00  0.32123916500E+02  0.48590502490E+02  0.13790606354E+03  0.12499859670E+03 0.  0.
          2    1    1    2  501    0 -0.11487982857E+02 -0.92952697852E+02 -0.25309028507E+03  0.26986454044E+03  0.00000000000E+00 0. -1.
          1    1    1    2  502    0  0.12158984095E+02  0.60828781352E+02  0.55767854038E+03  0.56111793407E+03  0.00000000000E+00 0. -1.
         22    1    3    3    0    0  0.18183363717E+02  0.52071961419E+02  0.79378205062E+02  0.96659315749E+02  0.00000000000E+00 0. -1.
         22    1    3    3    0    0 -0.18854364956E+02 -0.19948044919E+02 -0.30787702572E+02  0.41246747795E+02  0.00000000000E+00 0. -1.
</event>
<event>
 7    1  0.6255318E-006  0.9987276E+02  0.7818608E-02  0.1415773E+00
          2   -1    0    0  502    0  0.00000000000E+00  0.00000000000E+00  0.22882552446E+03  0.22882552446E+03  0.00000000000E+00 0. -1.
          1   -1    0    0  501    0 -0.00000000000E+00 -0.00000000000E+00 -0.23301257231E+03  0.23301257231E+03  0.00000000000E+00 0. -1.
         25    2    1    2    0    0 -0.38890673928E+02  0.64675293770E+02 -0.63079408620E+02  0.15905845798E+03  0.12500081247E+03 0.  0.
          2    1    1    2  501    0 -0.28010725406E+02  0.14003898673E+02 -0.10471752333E+03  0.10929990671E+03  0.00000000000E+00 0. -1.
          1    1    1    2  502    0  0.66901399334E+02 -0.78679192443E+02  0.16360988409E+03  0.19347973209E+03  0.00000000000E+00 0. -1.
         22    1    3    3    0    0 -0.75803157624E+01  0.97658627090E+02 -0.56577863285E+02  0.11311818265E+03  0.00000000000E+00 0.  1.
         22    1    3    3    0    0 -0.31310358165E+02 -0.32983333319E+02 -0.65015453348E+01  0.45940275326E+02  0.00000000000E+00 0.  1.
</event>
<event>
 7    1  0.6255318E-006  0.7044284E+02  0.7818608E-02  0.1446216E+00
          2   -1    0    0  502    0  0.00000000000E+00  0.00000000000E+00  0.26020900341E+02  0.26020900341E+02  0.00000000000E+00 0. -1.
          1   -1    0    0  501    0 -0.00000000000E+00 -0.00000000000E+00 -0.10719206826E+04  0.10719206826E+04  0.00000000000E+00 0. -1.
         25    2    1    2    0    0  0.42323977536E+02 -0.14224119740E+02 -0.26617761601E+03  0.29743843763E+03  0.12500182501E+03 0.  0.
          2    1    1    2  501    0 -0.57581957441E+02  0.46012494118E+02 -0.75212208682E+03  0.75572512524E+03  0.00000000000E+00 0. -1.
          1    1    1    2  502    0  0.15257979905E+02 -0.31788374378E+02 -0.27600079407E+02  0.44778020051E+02  0.00000000000E+00 0. -1.
         22    1    3    3    0    0  0.33132812964E+01  0.22748470029E+02 -0.23330563262E+03  0.23443546860E+03  0.00000000000E+00 0. -1.
         22    1    3    3    0    0  0.39010696239E+02 -0.36972589769E+02 -0.32871983390E+02  0.63002969036E+02  0.00000000000E+00 0. -1.
</event>
<event>
 7    1  0.6255318E-006  0.2407630E+03  0.7818608E-02  0.1306227E+00
          2   -1    0    0  502    0  0.00000000000E+00  0.00000000000E+00  0.28122853777E+03  0.28122853777E+03  0.00000000000E+00 0. -1.
          1   -1    0    0  501    0 -0.00000000000E+00 -0.00000000000E+00 -0.14459620282E+04  0.14459620282E+04  0.00000000000E+00 0. -1.
         25    2    1    2    0    0  0.25983224194E+03  0.47763061186E+02 -0.50227507254E+03  0.58111990542E+03  0.12500396802E+03 0.  0.
          2    1    1    2  501    0 -0.22724116723E+03 -0.46395624650E+02 -0.88820143222E+03  0.91798305336E+03  0.00000000000E+00 0. -1.
          1    1    1    2  502    0 -0.32591074707E+02 -0.13674365358E+01  0.22574301433E+03  0.22808760718E+03  0.00000000000E+00 0. -1.
         22    1    3    3    0    0  0.12494336285E+03  0.38581881135E+01 -0.35621751666E+03  0.37751377288E+03  0.00000000000E+00 0. -1.
         22    1    3    3    0    0  0.13488887909E+03  0.43904873072E+02 -0.14605755588E+03  0.20360613255E+03  0.00000000000E+00 0. -1.
</event>
<event>
 7    1  0.6255318E-006  0.7382457E+02  0.7818608E-02  0.1377686E+00
          2   -1    0    0  502    0  0.00000000000E+00  0.00000000000E+00  0.32602511226E+03  0.32602511226E+03  0.00000000000E+00 0. -1.
          1   -1    0    0  501    0 -0.00000000000E+00 -0.00000000000E+00 -0.35710597433E+04  0.35710597433E+04  0.00000000000E+00 0. -1.
         25    2    1    2    0    0  0.95943919616E+02  0.77366257924E+01 -0.55490575560E+02  0.16723112029E+03  0.12498780952E+03 0.  0.
          2    1    1    2  501    0 -0.33427652250E+02 -0.46617795438E+02 -0.34544406731E+04  0.34549169297E+04  0.00000000000E+00 0. -1.
          1    1    1    2  502    0 -0.62516267366E+02  0.38881169646E+02  0.26489661764E+03  0.27493680560E+03  0.00000000000E+00 0. -1.
         22    1    3    3    0    0  0.77392267628E+02 -0.20989530501E+02  0.21472433597E+02  0.83013185000E+02  0.00000000000E+00 0. -1.
         22    1    3    3    0    0  0.18551651988E+02  0.28726156294E+02 -0.76963009157E+02  0.84217935295E+02  0.00000000000E+00 0. -1.
</event>
<event>
 7    1  0.6255318E-006  0.8336862E+02  0.7818608E-02  0.1333148E+00
          2   -1    0    0  502    0  0.00000000000E+00  0.00000000000E+00  0.96976478001E+03  0.96976478001E+03  0.00000000000E+00 0. -1.
          1   -1    0    0  501    0 -0.00000000000E+00 -0.00000000000E+00 -0.13810876698E+03  0.13810876698E+03  0.00000000000E+00 0. -1.
         25    2    1    2    0    0  0.75947758741E+01 -0.59955015550E+01  0.20876981732E+03  0.24352417081E+03  0.12500223393E+03 0.  0.
          2    1    1    2  501    0  0.53584420678E+02  0.63867335201E+02 -0.10361122210E+03  0.13298726251E+03  0.00000000000E+00 0. -1.
          1    1    1    2  502    0 -0.61179196552E+02 -0.57871833646E+02  0.72649741781E+03  0.73136211367E+03  0.00000000000E+00 0. -1.
         22    1    3    3    0    0  0.25432818049E+02 -0.49119464766E+02  0.18090091470E+03  0.18916841964E+03  0.00000000000E+00 0. -1.
         22    1    3    3    0    0 -0.17838042175E+02  0.43123963211E+02  0.27868902625E+02  0.54355751169E+02  0.00000000000E+00 0. -1.
</event>
<event>
 7    1  0.6255318E-006  0.1535908E+03  0.7818608E-02  0.1216774E+00
          2   -1    0    0  502    0  0.00000000000E+00  0.00000000000E+00  0.21385194543E+04  0.21385194543E+04  0.00000000000E+00 0. -1.
          1   -1    0    0  501    0 -0.00000000000E+00 -0.00000000000E+00 -0.89689522960E+03  0.89689522960E+03  0.00000000000E+00 0. -1.
         25    2    1    2    0    0  0.13684486038E+03 -0.21758768588E+03 -0.43733428760E+02  0.28915390808E+03  0.12500581149E+03 0.  0.
          2    1    1    2  501    0 -0.39340305444E+02  0.14253924098E+03 -0.72106418780E+03  0.73606973704E+03  0.00000000000E+00 0. -1.
          1    1    1    2  502    0 -0.97504554936E+02  0.75048444904E+02  0.20064218412E+04  0.20101910388E+04  0.00000000000E+00 0. -1.
         22    1    3    3    0    0  0.20014380592E+02 -0.14812047143E+03 -0.14909511589E+02  0.15020833207E+03  0.00000000000E+00 0.  1.
         22    1    3    3    0    0  0.11683047979E+03 -0.69467214451E+02 -0.28823917171E+02  0.13894557601E+03  0.00000000000E+00 0.  1.
</event>
<event>
 7    1  0.6255318E-006  0.2814450E+02  0.7818608E-02  0.1656005E+00
          2   -1    0    0  502    0  0.00000000000E+00  0.00000000000E+00  0.11757560056E+04  0.11757560056E+04  0.00000000000E+00 0. -1.
          1   -1    0    0  501    0 -0.00000000000E+00 -0.00000000000E+00 -0.35079380221E+02  0.35079380221E+02  0.00000000000E+00 0. -1.
         25    2    1    2    0    0  0.67155495363E+01  0.57664946902E+01  0.48541543720E+03  0.50132490906E+03  0.12498066530E+03 0.  0.
          2    1    1    2  501    0 -0.28447986699E+02  0.12449472005E+01 -0.19404609099E+02  0.34458332737E+02  0.00000000000E+00 0. -1.
          1    1    1    2  502    0  0.21732437162E+02 -0.70114418907E+01  0.67466579728E+03  0.67505214403E+03  0.00000000000E+00 0. -1.
         22    1    3    3    0    0 -0.27415955948E+02 -0.37505767409E+02  0.37553206350E+03  0.37839483076E+03  0.00000000000E+00 0.  1.
         22    1    3    3    0    0  0.34131505485E+02  0.43272262099E+02  0.10988337371E+03  0.12293007830E+03  0.00000000000E+00 0.  1.
</event>
<event>
 7    1  0.6255318E-006  0.8462318E+02  0.7818608E-02  0.1411021E+00
          2   -1    0    0  502    0  0.00000000000E+00  0.00000000000E+00  0.13905123715E+04  0.13905123715E+04  0.00000000000E+00 0. -1.
          1   -1    0    0  501    0 -0.00000000000E+00 -0.00000000000E+00 -0.10257490619E+04  0.10257490619E+04  0.00000000000E+00 0. -1.
         25    2    1    2    0    0 -0.69388757575E+02 -0.61426528547E+02  0.62565470489E+03  0.64471592082E+03  0.12500716269E+03 0.  0.
          2    1    1    2  501    0 -0.11160160257E+02  0.36689012155E+02 -0.10135046962E+04  0.10142299552E+04  0.00000000000E+00 0. -1.
          1    1    1    2  502    0  0.80548917832E+02  0.24737516392E+02  0.75261330091E+03  0.75731555747E+03  0.00000000000E+00 0. -1.
         22    1    3    3    0    0 -0.94289407993E+02 -0.91437407153E+01  0.44633509293E+03  0.45627745467E+03  0.00000000000E+00 0.  1.
         22    1    3    3    0    0  0.24900650419E+02 -0.52282787832E+02  0.17931961195E+03  0.18843846615E+03  0.00000000000E+00 0.  1.
</event>
<event>
 7    1  0.6255318E-006  0.1326322E+03  0.7818608E-02  0.1294233E+00
          2   -1    0    0  502    0  0.00000000000E+00  0.00000000000E+00  0.44744795557E+03  0.44744795557E+03  0.00000000000E+00 0. -1.
          1   -1    0    0  501    0 -0.00000000000E+00 -0.00000000000E+00 -0.18825165288E+04  0.18825165288E+04  0.00000000000E+00 0. -1.
         25    2    1    2    0    0 -0.94867285087E+02 -0.81694774107E+02 -0.24909644094E+03  0.30552993478E+03  0.12500266502E+03 0.  0.
          2    1    1    2  501    0 -0.36043911081E+02  0.55447554474E+02 -0.15938696526E+04  0.15952410677E+04  0.00000000000E+00 0. -1.
          1    1    1    2  502    0  0.13091119617E+03  0.26247219633E+02  0.40789752027E+03  0.42919348185E+03  0.00000000000E+00 0. -1.
         22    1    3    3    0    0 -0.87508440867E+02 -0.87511165200E+01 -0.19655510121E+03  0.21533280538E+03  0.00000000000E+00 0.  1.
         22    1    3    3    0    0 -0.73588442200E+01 -0.72943657587E+02 -0.52541339732E+02  0.90197129396E+02  0.00000000000E+00 0.  1.
</event>
<event>
 7    1  0.6255318E-006  0.8113740E+02  0.7818608E-02  0.1497240E+00
          2   -1    0    0  502    0  0.00000000000E+00  0.00000000000E+00  0.58535005033E+03  0.58535005033E+03  0.00000000000E+00 0. -1.
          1   -1    0    0  501    0 -0.00000000000E+00 -0.00000000000E+00 -0.15270259174E+03  0.15270259174E+03  0.00000000000E+00 0. -1.
         25    2    1    2    0    0  0.76632559180E+02  0.94425234499E+01  0.17928159976E+03  0.23179501548E+03  0.12500130726E+03 0.  0.
          2    1    1    2  501    0 -0.80747184299E+02  0.11413286967E+02 -0.11295697260E+03  0.13931851475E+03  0.00000000000E+00 0. -1.
          1    1    1    2  502    0  0.41146251197E+01 -0.20855810417E+02  0.36632283143E+03  0.36693911184E+03  0.00000000000E+00 0. -1.
         22    1    3    3    0    0 -0.90120422768E+01 -0.29697626773E+02  0.11158862843E+03  0.11582395235E+03  0.00000000000E+00 0. -1.
         22    1    3    3    0    0  0.85644601456E+02  0.39140150223E+02  0.67692971328E+02  0.11597106314E+03  0.00000000000E+00 0. -1.
</event>
<event>
 7    1  0.6255318E-006  0.1688372E+03  0.7818608E-02  0.1333297E+00
          2   -1    0    0  502    0  0.00000000000E+00  0.00000000000E+00  0.12135766291E+04  0.12135766291E+04  0.00000000000E+00 0. -1.
          1   -1    0    0  501    0 -0.00000000000E+00 -0.00000000000E+00 -0.12024870768E+03  0.12024870768E+03  0.00000000000E+00 0. -1.
         25    2    1    2    0    0  0.63088584893E+02  0.16785905343E+03  0.18378592018E+03  0.28558544112E+03  0.12499979345E+03 0.  0.
          2    1    1    2  501    0 -0.87282272080E+02 -0.14050347292E+03  0.30201588706E+02  0.16814147877E+03  0.00000000000E+00 0. -1.
          1    1    1    2  502    0  0.24193687187E+02 -0.27355580507E+02  0.87934041251E+03  0.88009841685E+03  0.00000000000E+00 0. -1.
         22    1    3    3    0    0  0.43158332040E+02  0.60440071436E+01  0.83458953820E+02  0.94151838110E+02  0.00000000000E+00 0.  1.
         22    1    3    3    0    0  0.19930252853E+02  0.16181504629E+03  0.10032696636E+03  0.19143360301E+03  0.00000000000E+00 0.  1.
</event>
<event>
 7    1  0.6255318E-006  0.5970271E+02  0.7818608E-02  0.1454570E+00
          2   -1    0    0  502    0  0.00000000000E+00  0.00000000000E+00  0.11084604359E+04  0.11084604359E+04  0.00000000000E+00 0. -1.
          1   -1    0    0  501    0 -0.00000000000E+00 -0.00000000000E+00 -0.31511668593E+02  0.31511668593E+02  0.00000000000E+00 0. -1.
         25    2    1    2    0    0 -0.35724372614E+02 -0.11494027913E+02  0.13243568875E+03  0.18593511063E+03  0.12499724091E+03 0.  0.
          2    1    1    2  501    0 -0.21381290824E+02  0.32761790197E+02  0.10079058422E+03  0.10811677188E+03  0.00000000000E+00 0. -1.
          1    1    1    2  502    0  0.57105663438E+02 -0.21267762284E+02  0.84372249429E+03  0.84592022193E+03  0.00000000000E+00 0. -1.
         22    1    3    3    0    0 -0.52268069745E+02 -0.20113675742E+02  0.15012247165E+03  0.16022879754E+03  0.00000000000E+00 0.  1.
         22    1    3    3    0    0  0.16543697131E+02  0.86196478299E+01 -0.17686782899E+02  0.25706313092E+02  0.00000000000E+00 0.  1.
</event>
<event>
 7    1  0.6255318E-006  0.4012755E+02  0.7818608E-02  0.1570001E+00
          2   -1    0    0  502    0  0.00000000000E+00  0.00000000000E+00  0.12432301747E+04  0.12432301747E+04  0.00000000000E+00 0. -1.
          1   -1    0    0  501    0 -0.00000000000E+00 -0.00000000000E+00 -0.96533622107E+03  0.96533622107E+03  0.00000000000E+00 0. -1.
         25    2    1    2    0    0  0.89021258352E+01  0.12500243638E+02 -0.37999017876E+03  0.40031754272E+03  0.12500438041E+03 0.  0.
          2    1    1    2  501    0 -0.24106022359E+02 -0.34389923698E+02 -0.57427145219E+03  0.57580506074E+03  0.00000000000E+00 0. -1.
          1    1    1    2  502    0  0.15203896524E+02  0.21889680059E+02  0.12321555846E+04  0.12324437923E+04  0.00000000000E+00 0. -1.
         22    1    3    3    0    0 -0.17058811391E+02 -0.50855390009E+02 -0.11963408268E+03  0.13110906710E+03  0.00000000000E+00 0. -1.
         22    1    3    3    0    0  0.25960937226E+02  0.63355633647E+02 -0.26035609608E+03  0.26920847562E+03  0.00000000000E+00 0. -1.
</event>
<event>
 7    1  0.6255318E-006  0.4430872E+02  0.7818608E-02  0.1534048E+00
          2   -1    0    0  502    0  0.00000000000E+00  0.00000000000E+00  0.14228752249E+04  0.14228752249E+04  0.00000000000E+00 0. -1.
          1   -1    0    0  501    0 -0.00000000000E+00 -0.00000000000E+00 -0.61119050369E+02  0.61119050369E+02  0.00000000000E+00 0. -1.
         25    2    1    2    0    0  0.44691863152E+02 -0.72159957513E+01  0.16666042354E+03  0.21319008311E+03  0.12499952614E+03 0.  0.
          2    1    1    2  501    0 -0.15369173841E+02 -0.26215627636E+02 -0.31286751089E+02  0.43615724579E+02  0.00000000000E+00 0. -1.
          1    1    1    2  502    0 -0.29322689310E+02  0.33431623387E+02  0.12263825020E+04  0.12271884675E+04  0.00000000000E+00 0. -1.
         22    1    3    3    0    0  0.21649173648E+02 -0.49229719677E+02  0.15472951821E+03  0.16380926660E+03  0.00000000000E+00 0.  1.
         22    1    3    3    0    0  0.23042689503E+02  0.42013723925E+02  0.11930905338E+02  0.49380816516E+02  0.00000000000E+00 0.  1.
</event>
<event>
 7    1  0.6255318E-006  0.1145331E+03  0.7818608E-02  0.1317408E+00
          2   -1    0    0  502    0  0.00000000000E+00  0.00000000000E+00  0.23602761751E+03  0.23602761751E+03  0.00000000000E+00 0. -1.
          1   -1    0    0  501    0 -0.00000000000E+00 -0.00000000000E+00 -0.13540402578E+04  0.13540402578E+04  0.00000000000E+00 0. -1.
         25    2    1    2    0    0  0.17512829499E+03  0.44626311590E+01 -0.77294880288E+03  0.80234936013E+03  0.12499923618E+03 0.  0.
          2    1    1    2  501    0 -0.61927219985E+02  0.23769635437E+01 -0.55000841632E+03  0.55348883326E+03  0.00000000000E+00 0. -1.
          1    1    1    2  502    0 -0.11320107500E+03 -0.68395947027E+01  0.20494457894E+03  0.23422968188E+03  0.00000000000E+00 0. -1.
         22    1    3    3    0    0  0.14403532348E+02  0.31039535097E+02 -0.45776127712E+02  0.57152150891E+02  0.00000000000E+00 0. -1.
         22    1    3    3    0    0  0.16072476264E+03 -0.26576903938E+02 -0.72717267517E+03  0.74519720924E+03  0.00000000000E+00 0. -1.
</event>
<event>
 7    1  0.6255318E-006  0.7816706E+02  0.7818608E-02  0.1338259E+00
          2   -1    0    0  502    0  0.00000000000E+00  0.00000000000E+00  0.91832308175E+03  0.91832308175E+03  0.00000000000E+00 0. -1.
          1   -1    0    0  501    0 -0.00000000000E+00 -0.00000000000E+00 -0.88365634253E+02  0.88365634253E+02  0.00000000000E+00 0. -1.
         25    2    1    2    0    0 -0.16776428968E+02 -0.76404566244E+02  0.36676009651E+03  0.39529337227E+03  0.12499910184E+03 0.  0.
          2    1    1    2  501    0  0.75770320730E+02  0.19208005649E+02 -0.49258868862E+02  0.92393317649E+02  0.00000000000E+00 0. -1.
          1    1    1    2  502    0 -0.58993891762E+02  0.57196560595E+02  0.51245621986E+03  0.51900202609E+03  0.00000000000E+00 0. -1.
         22    1    3    3    0    0 -0.19870881493E+02  0.16766022394E+02  0.21931236107E+03  0.22084805445E+03  0.00000000000E+00 0.  1.
         22    1    3    3    0    0  0.30944525246E+01 -0.93170588638E+02  0.14744773544E+03  0.17444531782E+03  0.00000000000E+00 0.  1.
</event>
<event>
 7    1  0.6255318E-006  0.1079831E+03  0.7818608E-02  0.1348842E+00
          2   -1    0    0  502    0  0.00000000000E+00  0.00000000000E+00  0.46284257174E+03  0.46284257174E+03  0.00000000000E+00 0. -1.
          1   -1    0    0  501    0 -0.00000000000E+00 -0.00000000000E+00 -0.14369936593E+04  0.14369936593E+04  0.00000000000E+00 0. -1.
         25    2    1    2    0    0 -0.13393122443E+03  0.23473396744E+02  0.72490512079E+02  0.19841467853E+03  0.12499974833E+03 0.  0.
          2    1    1    2  501    0  0.30137504154E+02 -0.39792111565E+02 -0.13651337765E+04  0.13660460860E+04  0.00000000000E+00 0. -1.
          1    1    1    2  502    0  0.10379372027E+03  0.16318714821E+02  0.31849217686E+03  0.33537546652E+03  0.00000000000E+00 0. -1.
         22    1    3    3    0    0 -0.10451067465E+03  0.96545364276E+00 -0.12926311808E+02  0.10531145595E+03  0.00000000000E+00 0. -1.
         22    1    3    3    0    0 -0.29420549778E+02  0.22507943102E+02  0.85416823887E+02  0.93103222581E+02  0.00000000000E+00 0. -1.
</event>
<event>
 7    1  0.6255318E-006  0.6164470E+02  0.7818608E-02  0.1458024E+00
          2   -1    0    0  502    0  0.00000000000E+00  0.00000000000E+00  0.32209317791E+03  0.32209317791E+03  0.00000000000E+00 0. -1.
          1   -1    0    0  501    0 -0.00000000000E+00 -0.00000000000E+00 -0.11299520209E+03  0.11299520209E+03  0.00000000000E+00 0. -1.
         25    2    1    2    0    0  0.71630306225E+02  0.17349826559E+02  0.17848792386E+03  0.23002741011E+03  0.12499101242E+03 0.  0.
          2    1    1    2  501    0 -0.44505807499E+02 -0.42434372222E+02 -0.72772733133E+02  0.95274936550E+02  0.00000000000E+00 0. -1.
          1    1    1    2  502    0 -0.27124498726E+02  0.25084545662E+02  0.10338278510E+03  0.10978603334E+03  0.00000000000E+00 0. -1.
         22    1    3    3    0    0 -0.15406640359E+02  0.33567368017E+02  0.78066693907E+01  0.37750190062E+02  0.00000000000E+00 0.  1.
         22    1    3    3    0    0  0.87036946584E+02 -0.16217541457E+02  0.17068125447E+03  0.19227722005E+03  0.00000000000E+00 0.  1.
</event>
<event>
 7    1  0.6255318E-006  0.2048449E+03  0.7818608E-02  0.1256676E+00
          2   -1    0    0  502    0  0.00000000000E+00  0.00000000000E+00  0.19149382207E+04  0.19149382207E+04  0.00000000000E+00 0. -1.
          1   -1    0    0  501    0 -0.00000000000E+00 -0.00000000000E+00 -0.20104841003E+03  0.20104841003E+03  0.00000000000E+00 0. -1.
         25    2    1    2    0    0 -0.16706582833E+03 -0.43493200128E+02  0.16292865724E+03  0.26827858307E+03  0.12500000532E+03 0.  0.
          2    1    1    2  501    0 -0.42383044334E+02  0.44395669350E+02 -0.13525668263E+03  0.14853170739E+03  0.00000000000E+00 0. -1.
          1    1    1    2  502    0  0.20944887267E+03 -0.90246922220E+00  0.16862178361E+04  0.16991763403E+04  0.00000000000E+00 0. -1.
         22    1    3    3    0    0 -0.80170547170E+02  0.41709040170E+02  0.56277830934E+02  0.10646198815E+03  0.00000000000E+00 0.  1.
         22    1    3    3    0    0 -0.86895281162E+02 -0.85202240298E+02  0.10665082630E+03  0.16181659492E+03  0.00000000000E+00 0.  1.
</event>
<event>
 7    1  0.6255318E-006  0.9531212E+02  0.7818608E-02  0.1413302E+00
          2   -1    0    0  502    0  0.00000000000E+00  0.00000000000E+00  0.89809579550E+03  0.89809579550E+03  0.00000000000E+00 0. -1.
          1   -1    0    0  501    0 -0.00000000000E+00 -0.00000000000E+00 -0.29316894970E+03  0.29316894970E+03  0.00000000000E+00 0. -1.
         25    2    1    2    0    0  0.61256623421E+02 -0.11248326452E+03 -0.71122995491E+02  0.19258223114E+03  0.12499830619E+03 0.  0.
          2    1    1    2  501    0 -0.16721938576E+02  0.28969472461E+02 -0.15687303080E+03  0.16039950548E+03  0.00000000000E+00 0. -1.
          1    1    1    2  502    0 -0.44534684845E+02  0.83513792062E+02  0.83292287209E+03  0.83828300858E+03  0.00000000000E+00 0. -1.
         22    1    3    3    0    0  0.69832438933E+02 -0.12475900500E+03 -0.89653417329E+02  0.16875756011E+03  0.00000000000E+00 0. -1.
         22    1    3    3    0    0 -0.85758155123E+01  0.12275740477E+02  0.18530421838E+02  0.23824671025E+02  0.00000000000E+00 0. -1.
</event>
<event>
 7    1  0.6255318E-006  0.3275320E+02  0.7818608E-02  0.1578018E+00
          2   -1    0    0  502    0  0.00000000000E+00  0.00000000000E+00  0.38042924212E+03  0.38042924212E+03  0.00000000000E+00 0. -1.
          1   -1    0    0  501    0 -0.00000000000E+00 -0.00000000000E+00 -0.10711764537E+04  0.10711764537E+04  0.00000000000E+00 0. -1.
         25    2    1    2    0    0 -0.22518033960E+02 -0.56402788614E+02 -0.27296254599E+03  0.30630584977E+03  0.12500554257E+03 0.  0.
          2    1    1    2  501    0  0.19779180731E+02  0.25460383642E+02 -0.78054569637E+03  0.78121125904E+03  0.00000000000E+00 0. -1.
          1    1    1    2  502    0  0.27388532294E+01  0.30942404972E+02  0.36276103078E+03  0.36408858702E+03  0.00000000000E+00 0. -1.
         22    1    3    3    0    0  0.15859877386E+02  0.30898558928E+02 -0.12921702878E+03  0.13380320318E+03  0.00000000000E+00 0. -1.
         22    1    3    3    0    0 -0.38377911346E+02 -0.87301347542E+02 -0.14374551721E+03  0.17250264658E+03  0.00000000000E+00 0. -1.
</event>
<event>
 7    1  0.6255318E-006  0.1052750E+03  0.7818608E-02  0.1374618E+00
          2   -1    0    0  502    0  0.00000000000E+00  0.00000000000E+00  0.13918661194E+03  0.13918661194E+03  0.00000000000E+00 0. -1.
          1   -1    0    0  501    0 -0.00000000000E+00 -0.00000000000E+00 -0.78582312302E+03  0.78582312302E+03  0.00000000000E+00 0. -1.
         25    2    1    2    0    0  0.10818382355E+03  0.54129922400E+01 -0.49106673558E+02  0.17253624569E+03  0.12499700206E+03 0.  0.
          2    1    1    2  501    0 -0.95641646535E+02 -0.44712223607E+02 -0.66503413523E+03  0.67336239018E+03  0.00000000000E+00 0. -1.
          1    1    1    2  502    0 -0.12542177020E+02  0.39299231367E+02  0.67504297711E+02  0.79111099094E+02  0.00000000000E+00 0. -1.
         22    1    3    3    0    0  0.10279463220E+02 -0.25898527171E+02  0.31393845966E+02  0.41975881625E+02  0.00000000000E+00 0. -1.
         22    1    3    3    0    0  0.97904360335E+02  0.31311519411E+02 -0.80500519523E+02  0.13056036406E+03  0.00000000000E+00 0. -1.
</event>
<event>
 7    1  0.6255318E-006  0.1641302E+03  0.7818608E-02  0.1290214E+00
          2   -1    0    0  502    0  0.00000000000E+00  0.00000000000E+00  0.17775633265E+04  0.17775633265E+04  0.00000000000E+00 0. -1.
          1   -1    0    0  501    0 -0.00000000000E+00 -0.00000000000E+00 -0.16451529519E+03  0.16451529519E+03  0.00000000000E+00 0. -1.
         25    2    1    2    0    0 -0.67215090245E+02 -0.19708136918E+03  0.48549810388E+03  0.54285571783E+03  0.12499994832E+03 0.  0.
          2    1    1    2  501    0  0.28046464528E+02  0.15778424798E+03 -0.87714991243E+02  0.18269207091E+03  0.00000000000E+00 0. -1.
          1    1    1    2  502    0  0.39168625716E+02  0.39297121194E+02  0.12152649187E+04  0.12165308329E+04  0.00000000000E+00 0. -1.
         22    1    3    3    0    0 -0.82797496939E+02 -0.20619864811E+03  0.46610705095E+03  0.51636139567E+03  0.00000000000E+00 0. -1.
         22    1    3    3    0    0  0.15582406694E+02  0.91172789372E+01  0.19391052921E+02  0.26494322165E+02  0.00000000000E+00 0. -1.
</event>
<event>
 7    1  0.6255318E-006  0.8135620E+02  0.7818608E-02  0.1357231E+00
          2   -1    0    0  502    0  0.00000000000E+00  0.00000000000E+00  0.41950118819E+04  0.41950118819E+04  0.00000000000E+00 0. -1.
          1   -1    0    0  501    0 -0.00000000000E+00 -0.00000000000E+00 -0.15025871070E+03  0.15025871070E+03  0.00000000000E+00 0. -1.
         25    2    1    2    0    0 -0.14546079762E+02  0.20320508231E+02  0.18397697529E+03  0.22382255064E+03  0.12499798098E+03 0.  0.
          2    1    1    2  501    0 -0.59479243294E+02  0.16396636689E+02 -0.12258178448E+03  0.13723310083E+03  0.00000000000E+00 0. -1.
          1    1    1    2  502    0  0.74025323056E+02 -0.36717144920E+02  0.39833579804E+04  0.39842149411E+04  0.00000000000E+00 0. -1.
         22    1    3    3    0    0  0.19694651054E+02 -0.42332075441E+02  0.34126171594E+02  0.57831474812E+02  0.00000000000E+00 0.  1.
         22    1    3    3    0    0 -0.34240730817E+02  0.62652583673E+02  0.14985080369E+03  0.16599107583E+03  0.00000000000E+00 0.  1.
</event>
<event>
 7    1  0.6255318E-006  0.1712385E+03  0.7818608E-02  0.1329861E+00
          2   -1    0    0  502    0  0.00000000000E+00  0.00000000000E+00  0.71897151469E+03  0.71897151469E+03  0.00000000000E+00 0. -1.
          1   -1    0    0  501    0 -0.00000000000E+00 -0.00000000000E+00 -0.67037456043E+03  0.67037456043E+03  0.00000000000E+00 0. -1.
         25    2    1    2    0    0  0.24212947185E+02  0.15016081602E+03  0.36693801895E+03  0.41641636430E+03  0.12499816491E+03 0.  0.
          2    1    1    2  501    0 -0.59642200375E+02 -0.16120050387E+03 -0.63308656447E+03  0.65600411022E+03  0.00000000000E+00 0. -1.
          1    1    1    2  502    0  0.35429253190E+02  0.11039687849E+02  0.31474549977E+03  0.31692560060E+03  0.00000000000E+00 0. -1.
         22    1    3    3    0    0  0.52233765765E+01  0.48296672008E+02  0.17011961997E+02  0.51470953371E+02  0.00000000000E+00 0.  1.
         22    1    3    3    0    0  0.18989570608E+02  0.10186414401E+03  0.34992605695E+03  0.36494541093E+03  0.00000000000E+00 0.  1.
</event>
<event>
 7    1  0.6255318E-006  0.6879817E+02  0.7818608E-02  0.1477889E+00
          2   -1    0    0  502    0  0.00000000000E+00  0.00000000000E+00  0.10328726323E+04  0.10328726323E+04  0.00000000000E+00 0. -1.
          1   -1    0    0  501    0 -0.00000000000E+00 -0.00000000000E+00 -0.20458200621E+03  0.20458200621E+03  0.00000000000E+00 0. -1.
         25    2    1    2    0    0 -0.67234529305E+02  0.98774937914E+01  0.65035165439E+03  0.66573293647E+03  0.12500008608E+03 0.  0.
          2    1    1    2  501    0  0.71144533782E+01  0.27805895429E+02 -0.19245979039E+03  0.19458816558E+03  0.00000000000E+00 0. -1.
          1    1    1    2  502    0  0.60120075927E+02 -0.37683389220E+02  0.37039876205E+03  0.37713353641E+03  0.00000000000E+00 0. -1.
         22    1    3    3    0    0  0.18144782736E+02  0.22998706987E+02  0.39661638291E+03  0.39769678004E+03  0.00000000000E+00 0.  1.
         22    1    3    3    0    0 -0.85379312041E+02 -0.13121213195E+02  0.25373527149E+03  0.26803615644E+03  0.00000000000E+00 0.  1.
</event>
<event>
 7    1  0.6255318E-006  0.9136405E+02  0.7818608E-02  0.1342400E+00
          2   -1    0    0  502    0  0.00000000000E+00  0.00000000000E+00  0.28330892590E+04  0.28330892590E+04  0.00000000000E+00 0. -1.
          1   -1    0    0  501    0 -0.00000000000E+00 -0.00000000000E+00 -0.87593090914E+02  0.87593090914E+02  0.00000000000E+00 0. -1.
         25    2    1    2    0    0  0.14580663840E+03  0.17324975294E+02  0.35761951505E+03  0.40629671562E+03  0.12500229202E+03 0.  0.
          2    1    1    2  501    0 -0.83792264560E+02 -0.23810461394E+02 -0.32671157226E+02  0.93034865434E+02  0.00000000000E+00 0. -1.
          1    1    1    2  502    0 -0.62014373838E+02  0.64854860999E+01  0.24205478102E+04  0.24213507688E+04  0.00000000000E+00 0. -1.
         22    1    3    3    0    0  0.16246161229E+03  0.35476388923E+02  0.32821512123E+03  0.36793683621E+03  0.00000000000E+00 0. -1.
         22    1    3    3    0    0 -0.16654973895E+02 -0.18151413629E+02  0.29404393822E+02  0.38359879408E+02  0.00000000000E+00 0. -1.
</event>
<event>
 7    1  0.6255318E-006  0.1259715E+03  0.7818608E-02  0.1382899E+00
          2   -1    0    0  502    0  0.00000000000E+00  0.00000000000E+00  0.11144052377E+04  0.11144052377E+04  0.00000000000E+00 0. -1.
          1   -1    0    0  501    0 -0.00000000000E+00 -0.00000000000E+00 -0.78164723183E+03  0.78164723183E+03  0.00000000000E+00 0. -1.
         25    2    1    2    0    0  0.33052295030E+02 -0.96693754401E+02  0.32972857741E+03  0.36713529629E+03  0.12500101868E+03 0.  0.
          2    1    1    2  501    0 -0.17831549330E+02  0.12509093891E+03 -0.75736878058E+03  0.76783668638E+03  0.00000000000E+00 0. -1.
          1    1    1    2  502    0 -0.15220745700E+02 -0.28397184512E+02  0.76039820899E+03  0.76108048682E+03  0.00000000000E+00 0. -1.
         22    1    3    3    0    0  0.36829039840E+02 -0.32364214548E+02  0.28379666544E+03  0.28800063867E+03  0.00000000000E+00 0. -1.
         22    1    3    3    0    0 -0.37767448092E+01 -0.64329539853E+02  0.45931911971E+02  0.79134657618E+02  0.00000000000E+00 0. -1.
</event>
<event>
 7    1  0.6255318E-006  0.1441477E+03  0.7818608E-02  0.1311891E+00
          2   -1    0    0  502    0  0.00000000000E+00  0.00000000000E+00  0.68321860690E+03  0.68321860690E+03  0.00000000000E+00 0. -1.
          1   -1    0    0  501    0 -0.00000000000E+00 -0.00000000000E+00 -0.90761460664E+03  0.90761460664E+03  0.00000000000E+00 0. -1.
         25    2    1    2    0    0  0.94761466200E+02 -0.10569295958E+03 -0.63143904870E+02  0.19940627374E+03  0.12499988842E+03 0.  0.
          2    1    1    2  501    0 -0.52401440860E+02  0.13541902426E+03 -0.76843961675E+03  0.78203814979E+03  0.00000000000E+00 0. -1.
          1    1    1    2  502    0 -0.42360025340E+02 -0.29726064676E+02  0.60718752188E+03  0.60938879001E+03  0.00000000000E+00 0. -1.
         22    1    3    3    0    0  0.94230345845E+02 -0.12821988563E+02 -0.43029485127E+02  0.10438054445E+03  0.00000000000E+00 0. -1.
         22    1    3    3    0    0  0.53112035537E+00 -0.92870971017E+02 -0.20114419743E+02  0.95025729295E+02  0.00000000000E+00 0. -1.
</event>
<event>
 7    1  0.6255318E-006  0.1023270E+03  0.7818608E-02  0.1367975E+00
          2   -1    0    0  502    0  0.00000000000E+00  0.00000000000E+00  0.23070014127E+04  0.23070014127E+04  0.00000000000E+00 0. -1.
          1   -1    0    0  501    0 -0.00000000000E+00 -0.00000000000E+00 -0.45131814054E+03  0.45131814054E+03  0.00000000000E+00 0. -1.
         25    2    1    2    0    0 -0.89276076122E+02  0.24813124470E+02 -0.31550794699E+03  0.35178943680E+03  0.12499853728E+03 0.  0.
          2    1    1    2  501    0  0.12586798938E+02  0.43031791004E+02 -0.11220932291E+03  0.12083498952E+03  0.00000000000E+00 0. -1.
          1    1    1    2  502    0  0.76689277184E+02 -0.67844915474E+02  0.22834005420E+04  0.22856951269E+04  0.00000000000E+00 0. -1.
         22    1    3    3    0    0 -0.10198867928E+03  0.23818507646E+01 -0.13376820041E+03  0.16822988841E+03  0.00000000000E+00 0. -1.
         22    1    3    3    0    0  0.12712603161E+02  0.22431273706E+02 -0.18173974658E+03  0.18355954839E+03  0.00000000000E+00 0. -1.
</event>
<event>
 7    1  0.6255318E-006  0.3892471E+02  0.7818608E-02  0.1540728E+00
          2   -1    0    0  502    0  0.00000000000E+00  0.00000000000E+00  0.11440919455E+03  0.11440919455E+03  0.00000000000E+00 0. -1.
          1   -1    0    0  501    0 -0.00000000000E+00 -0.00000000000E+00 -0.32816601753E+03  0.32816601753E+03  0.00000000000E+00 0. -1.
         25    2    1    2    0    0  0.45334682947E+00  0.47084232700E+02 -0.12001264572E+03  0.17954261721E+03  0.12496153716E+03 0.  0.
          2    1    1    2  501    0 -0.27498106343E+02 -0.27974154519E+02 -0.17286582271E+03  0.17726051967E+03  0.00000000000E+00 0. -1.
          1    1    1    2  502    0  0.27044759514E+02 -0.19110078181E+02  0.79121645450E+02  0.85772075199E+02  0.00000000000E+00 0. -1.
         22    1    3    3    0    0 -0.44441109484E+02  0.12749726705E+02 -0.11361627758E+03  0.12266305994E+03  0.00000000000E+00 0. -1.
         22    1    3    3    0    0  0.44894456314E+02  0.34334505995E+02 -0.63963681407E+01  0.56879557268E+02  0.00000000000E+00 0. -1.
</event>
<event>
 7    1  0.6255318E-006  0.1545187E+03  0.7818608E-02  0.1246128E+00
          2   -1    0    0  502    0  0.00000000000E+00  0.00000000000E+00  0.34308523098E+03  0.34308523098E+03  0.00000000000E+00 0. -1.
          1   -1    0    0  501    0 -0.00000000000E+00 -0.00000000000E+00 -0.20745159772E+04  0.20745159772E+04  0.00000000000E+00 0. -1.
         25    2    1    2    0    0 -0.12633648428E+03  0.65436247123E+01  0.86736008703E+02  0.19786712774E+03  0.12499815500E+03 0.  0.
          2    1    1    2  501    0 -0.31640775492E+02  0.84670147555E+02 -0.19762695436E+04  0.19783355331E+04  0.00000000000E+00 0. -1.
          1    1    1    2  502    0  0.15797725977E+03 -0.91213772268E+02  0.15810278869E+03  0.24139854732E+03  0.00000000000E+00 0. -1.
         22    1    3    3    0    0 -0.35220835850E+02  0.51829054391E+02 -0.22375673555E+01  0.62703786686E+02  0.00000000000E+00 0.  1.
         22    1    3    3    0    0 -0.91115648428E+02 -0.45285429679E+02  0.88973576059E+02  0.13516334106E+03  0.00000000000E+00 0.  1.
</event>
<event>
 7    1  0.6255318E-006  0.1053683E+03  0.7818608E-02  0.1284131E+00
          2   -1    0    0  502    0  0.00000000000E+00  0.00000000000E+00  0.16952262898E+04  0.16952262898E+04  0.00000000000E+00 0. -1.
          1   -1    0    0  501    0 -0.00000000000E+00 -0.00000000000E+00 -0.23305618932E+02  0.23305618932E+02  0.00000000000E+00 0. -1.
         25    2    1    2    0    0  0.58706064636E+02 -0.18351090252E+02  0.36456765614E+03  0.39027981495E+03  0.12500237404E+03 0.  0.
          2    1    1    2  501    0  0.49526839595E+02  0.76956553721E+02  0.30683743392E+03  0.32019436263E+03  0.00000000000E+00 0. -1.
          1    1    1    2  502    0 -0.10823290423E+03 -0.58605463469E+02  0.10005155808E+04  0.10080577311E+04  0.00000000000E+00 0. -1.
         22    1    3    3    0    0  0.50291283997E+02 -0.43737403285E+01  0.37699426320E+02  0.63004679155E+02  0.00000000000E+00 0.  1.
         22    1    3    3    0    0  0.84147806386E+01 -0.13977349923E+02  0.32686822982E+03  0.32727513580E+03  0.00000000000E+00 0.  1.
</event>
<event>
 7    1  0.6255318E-006  0.5495796E+02  0.7818608E-02  0.1503885E+00
          2   -1    0    0  502    0  0.00000000000E+00  0.00000000000E+00  0.25217307019E+03  0.25217307019E+03  0.00000000000E+00 0. -1.
          1   -1    0    0  501    0 -0.00000000000E+00 -0.00000000000E+00 -0.94480102030E+02  0.94480102030E+02  0.00000000000E+00 0. -1.
         25    2    1    2    0    0  0.38352939148E+02 -0.22925347884E+02  0.17851192143E+03  0.22245961530E+03  0.12500101931E+03 0.  0.
          2    1    1    2  501    0 -0.55926819069E+02 -0.13690140310E+01 -0.55187773914E+02  0.78583545861E+02  0.00000000000E+00 0. -1.
          1    1    1    2  502    0  0.17573879921E+02  0.24294361915E+02  0.34368820639E+02  0.45610011055E+02  0.00000000000E+00 0. -1.
         22    1    3    3    0    0  0.28781011317E+02 -0.71526592014E+02  0.74300814896E+02  0.10707479195E+03  0.00000000000E+00 0. -1.
         22    1    3    3    0    0  0.95719278304E+01  0.48601244129E+02  0.10421110654E+03  0.11538482335E+03  0.00000000000E+00 0. -1.
</event>
<event>
 7    1  0.6255318E-006  0.5551881E+02  0.7818608E-02  0.1436420E+00
          2   -1    0    0  502    0  0.00000000000E+00  0.00000000000E+00  0.49425659529E+03  0.49425659529E+03  0.00000000000E+00 0. -1.
          1   -1    0    0  501    0 -0.00000000000E+00 -0.00000000000E+00 -0.23177726088E+03  0.23177726088E+03  0.00000000000E+00 0. -1.
         25    2    1    2    0    0  0.88639109813E+02  0.27137061343E+02  0.24912463991E+03  0.29373743775E+03  0.12500113696E+03 0.  0.
          2    1    1    2  501    0 -0.41406553142E+02 -0.36389417096E+02 -0.20315530809E+03  0.21050123877E+03  0.00000000000E+00 0. -1.
          1    1    1    2  502    0 -0.47232556671E+02  0.92523557535E+01  0.21651000258E+03  0.22179517965E+03  0.00000000000E+00 0. -1.
         22    1    3    3    0    0  0.21017758542E+01  0.60333439992E+02  0.73135631366E+02  0.94833338116E+02  0.00000000000E+00 0. -1.
         22    1    3    3    0    0  0.86537333958E+02 -0.33196378649E+02  0.17598900855E+03  0.19890409964E+03  0.00000000000E+00 0. -1.
</event>
<event>
 7    1  0.6255318E-006  0.4985456E+02  0.7818608E-02  0.1496351E+00
          2   -1    0    0  502    0  0.00000000000E+00  0.00000000000E+00  0.11728801254E+03  0.11728801254E+03  0.00000000000E+00 0. -1.
          1   -1    0    0  501    0 -0.00000000000E+00 -0.00000000000E+00 -0.58262120236E+03  0.58262120236E+03  0.00000000000E+00 0. -1.
         25    2    1    2    0    0  0.34862763470E+02  0.72909446324E+02 -0.10225947500E+03  0.18059437615E+03  0.12500451524E+03 0.  0.
          2    1    1    2  501    0 -0.30154501253E+02 -0.38419786508E+02 -0.43588384444E+03  0.43861155911E+03  0.00000000000E+00 0. -1.
          1    1    1    2  502    0 -0.47082622169E+01 -0.34489659816E+02  0.72810129622E+02  0.80703279629E+02  0.00000000000E+00 0. -1.
         22    1    3    3    0    0  0.56170116355E+02  0.42951232348E+02  0.12806206976E+01  0.70721498293E+02  0.00000000000E+00 0. -1.
         22    1    3    3    0    0 -0.21307352884E+02  0.29958213976E+02 -0.10354009570E+03  0.10987287786E+03  0.00000000000E+00 0. -1.
</event>
<event>
 7    1  0.6255318E-006  0.1262135E+03  0.7818608E-02  0.1322483E+00
          2   -1    0    0  502    0  0.00000000000E+00  0.00000000000E+00  0.96175004054E+03  0.96175004054E+03  0.00000000000E+00 0. -1.
          1   -1    0    0  501    0 -0.00000000000E+00 -0.00000000000E+00 -0.51006818650E+03  0.51006818650E+03  0.00000000000E+00 0. -1.
         25    2    1    2    0    0 -0.34931937050E+02  0.15928914286E+03 -0.83117762505E+02  0.22167292483E+03  0.12504819831E+03 0.  0.
          2    1    1    2  501    0 -0.23398912936E+02 -0.48383413167E+02 -0.35122000592E+03  0.35530825540E+03  0.00000000000E+00 0. -1.
          1    1    1    2  502    0  0.58330849986E+02 -0.11090572969E+03  0.88601962246E+03  0.89483704680E+03  0.00000000000E+00 0. -1.
         22    1    3    3    0    0 -0.70130255991E+02  0.64137068446E+02 -0.78731313737E+01  0.95361431154E+02  0.00000000000E+00 0. -1.
         22    1    3    3    0    0  0.35198318941E+02  0.95152074414E+02 -0.75244631131E+02  0.12631149368E+03  0.00000000000E+00 0. -1.
</event>
<event>
 7    1  0.6255318E-006  0.1189783E+03  0.7818608E-02  0.1347130E+00
          2   -1    0    0  502    0  0.00000000000E+00  0.00000000000E+00  0.40229158290E+03  0.40229158290E+03  0.00000000000E+00 0. -1.
          1   -1    0    0  501    0 -0.00000000000E+00 -0.00000000000E+00 -0.11735102787E+04  0.11735102787E+04  0.00000000000E+00 0. -1.
         25    2    1    2    0    0 -0.36016878880E+02 -0.74213911152E+02  0.15316665051E+02  0.15054684294E+03  0.12499932607E+03 0.  0.
          2    1    1    2  501    0 -0.35294460000E+02 -0.29458034218E+02 -0.10929987430E+04  0.10939651397E+04  0.00000000000E+00 0. -1.
          1    1    1    2  502    0  0.71311338880E+02  0.10367194537E+03  0.30646338214E+03  0.33128987896E+03  0.00000000000E+00 0. -1.
         22    1    3    3    0    0 -0.29150447157E+02  0.13923804320E+02  0.46658546180E+02  0.56750690109E+02  0.00000000000E+00 0. -1.
         22    1    3    3    0    0 -0.68664317227E+01 -0.88137715471E+02 -0.31341881129E+02  0.93796152831E+02  0.00000000000E+00 0. -1.
</event>
<event>
 7    1  0.6255318E-006  0.1640713E+03  0.7818608E-02  0.1219165E+00
          2   -1    0    0  502    0  0.00000000000E+00  0.00000000000E+00  0.21622175251E+03  0.21622175251E+03  0.00000000000E+00 0. -1.
          1   -1    0    0  501    0 -0.00000000000E+00 -0.00000000000E+00 -0.56977782077E+03  0.56977782077E+03  0.00000000000E+00 0. -1.
         25    2    1    2    0    0 -0.13928626690E+03 -0.17832196469E+03 -0.14746449707E+03  0.29760817162E+03  0.12500183471E+03 0.  0.
          2    1    1    2  501    0 -0.10784449879E+01  0.11231213329E+03 -0.29074346173E+03  0.31168403691E+03  0.00000000000E+00 0. -1.
          1    1    1    2  502    0  0.14036471189E+03  0.66009831393E+02  0.84651890537E+02  0.17670736475E+03  0.00000000000E+00 0. -1.
         22    1    3    3    0    0 -0.11521904544E+03 -0.10838299600E+03 -0.33416166957E+02  0.16167542321E+03  0.00000000000E+00 0. -1.
         22    1    3    3    0    0 -0.24067221455E+02 -0.69938968685E+02 -0.11404833011E+03  0.13593274841E+03  0.00000000000E+00 0. -1.
</event>
<event>
 7    1  0.6255318E-006  0.6703461E+02  0.7818608E-02  0.1439671E+00
          2   -1    0    0  502    0  0.00000000000E+00  0.00000000000E+00  0.25634725048E+03  0.25634725048E+03  0.00000000000E+00 0. -1.
          1   -1    0    0  501    0 -0.00000000000E+00 -0.00000000000E+00 -0.33542047821E+04  0.33542047821E+04  0.00000000000E+00 0. -1.
         25    2    1    2    0    0  0.58216628346E+02 -0.73331921601E+02 -0.12700565621E+04  0.12796231274E+04  0.12499972240E+03 0.  0.
          2    1    1    2  501    0 -0.78809786939E+00  0.38894578950E+02 -0.20747232683E+04  0.20750879618E+04  0.00000000000E+00 0. -1.
          1    1    1    2  502    0 -0.57428530477E+02  0.34437342651E+02  0.24692229877E+03  0.25584094338E+03  0.00000000000E+00 0. -1.
         22    1    3    3    0    0  0.22484428267E+01  0.13538282064E+02 -0.70877846576E+03  0.70891131611E+03  0.00000000000E+00 0. -1.
         22    1    3    3    0    0  0.55968185520E+02 -0.86870203664E+02 -0.56127809636E+03  0.57071181127E+03  0.00000000000E+00 0. -1.
</event>
<event>
 7    1  0.6255318E-006  0.1120233E+03  0.7818608E-02  0.1332271E+00
          2   -1    0    0  502    0  0.00000000000E+00  0.00000000000E+00  0.98558698750E+03  0.98558698750E+03  0.00000000000E+00 0. -1.
          1   -1    0    0  501    0 -0.00000000000E+00 -0.00000000000E+00 -0.13948144310E+03  0.13948144310E+03  0.00000000000E+00 0. -1.
         25    2    1    2    0    0  0.50207535495E+02  0.14136304686E+03  0.10695380558E+03  0.22263985546E+03  0.12500032431E+03 0.  0.
          2    1    1    2  501    0 -0.85741232712E+01 -0.10460637699E+03 -0.46514065546E+02  0.11480229959E+03  0.00000000000E+00 0. -1.
          1    1    1    2  502    0 -0.41633412224E+02 -0.36756669867E+02  0.78566580436E+03  0.78762627555E+03  0.00000000000E+00 0. -1.
         22    1    3    3    0    0 -0.54032755696E+01  0.93778088785E+02  0.11558602684E+03  0.14894178367E+03  0.00000000000E+00 0. -1.
         22    1    3    3    0    0  0.55610811065E+02  0.47584958071E+02 -0.86322212628E+01  0.73698071792E+02  0.00000000000E+00 0. -1.
</event>
<event>
 7    1  0.6255318E-006  0.8930524E+02  0.7818608E-02  0.1339272E+00
          2   -1    0    0  502    0  0.00000000000E+00  0.00000000000E+00  0.27424835863E+02  0.27424835863E+02  0.00000000000E+00 0. -1.
          1   -1    0    0  501    0 -0.00000000000E+00 -0.00000000000E+00 -0.19399237849E+04  0.19399237849E+04  0.00000000000E+00 0. -1.
         25    2    1    2    0    0 -0.27353356991E+02  0.49215440123E+02 -0.74576006550E+03  0.75825629501E+03  0.12499667171E+03 0.  0.
          2    1    1    2  501    0  0.47703680862E+02  0.44942471109E+02 -0.10719276360E+04  0.10739293848E+04  0.00000000000E+00 0. -1.
          1    1    1    2  502    0 -0.20350323871E+02 -0.94157911232E+02 -0.94811247554E+02  0.13516294090E+03  0.00000000000E+00 0. -1.
         22    1    3    3    0    0  0.48649437799E+02  0.34377918537E+02 -0.31104805078E+03  0.31670096144E+03  0.00000000000E+00 0. -1.
         22    1    3    3    0    0 -0.76002794790E+02  0.14837521585E+02 -0.43471201472E+03  0.44155533357E+03  0.00000000000E+00 0. -1.
</event>
<event>
 7    1  0.6651190E-006  0.1036239E+03  0.7818608E-02  0.1370738E+00
          2   -1    0    0  502    0  0.00000000000E+00  0.00000000000E+00  0.13578774904E+04  0.13578774904E+04  0.00000000000E+00 0. -1.
          1   -1    0    0  501    0 -0.00000000000E+00 -0.00000000000E+00 -0.77441663610E+03  0.77441663610E+03  0.00000000000E+00 0. -1.
         25    2    1    2    0    0 -0.11300046037E+03 -0.26313496433E+02 -0.97639130694E+02  0.19651985745E+03  0.12500060156E+03 0.  0.
          2    1    1    2  501    0  0.10622374384E+02  0.41947435908E+02 -0.62453801046E+03  0.62603526157E+03  0.00000000000E+00 0. -1.
          1    1    1    2  502    0  0.10237808598E+03 -0.15633939476E+02  0.13056379954E+04  0.13097390075E+04  0.00000000000E+00 0. -1.
         22    1    3    3    0    0 -0.98141578579E+02 -0.60316490978E+02 -0.10809243826E+03  0.15796779336E+03  0.00000000000E+00 0. -1.
         22    1    3    3    0    0 -0.14858881790E+02  0.34002994545E+02  0.10453307569E+02  0.38552064085E+02  0.00000000000E+00 0. -1.
</event>
<event>
 7    1  0.6255318E-006  0.2074814E+02  0.7818608E-02  0.1732225E+00
          2   -1    0    0  502    0  0.00000000000E+00  0.00000000000E+00  0.17695109478E+03  0.17695109478E+03  0.00000000000E+00 0. -1.
          1   -1    0    0  501    0 -0.00000000000E+00 -0.00000000000E+00 -0.15384477889E+03  0.15384477889E+03  0.00000000000E+00 0. -1.
         25    2    1    2    0    0  0.17085519440E+02 -0.71453245798E+01  0.82653468451E+02  0.15099644015E+03  0.12500143380E+03 0.  0.
          2    1    1    2  501    0 -0.74243386035E+00  0.20734856811E+02 -0.11685200973E+03  0.11867972731E+03  0.00000000000E+00 0. -1.
          1    1    1    2  502    0 -0.16343085579E+02 -0.13589532231E+02  0.57304857172E+02  0.61119706217E+02  0.00000000000E+00 0. -1.
         22    1    3    3    0    0 -0.73976770591E+01 -0.30760060436E+01 -0.32359246325E+02  0.33336290462E+02  0.00000000000E+00 0. -1.
         22    1    3    3    0    0  0.24483196499E+02 -0.40693185362E+01  0.11501271478E+03  0.11766014969E+03  0.00000000000E+00 0. -1.
</event>
<event>
 7    1  0.6255318E-006  0.5496408E+02  0.7818608E-02  0.1427287E+00
          2   -1    0    0  502    0  0.00000000000E+00  0.00000000000E+00  0.26613230803E+03  0.26613230803E+03  0.00000000000E+00 0. -1.
          1   -1    0    0  501    0 -0.00000000000E+00 -0.00000000000E+00 -0.21936966002E+03  0.21936966002E+03  0.00000000000E+00 0. -1.
         25    2    1    2    0    0 -0.28323982267E+02 -0.34899256933E+02 -0.79783212444E+02  0.15495370119E+03  0.12500032968E+03 0.  0.
          2    1    1    2  501    0  0.57517373529E+02 -0.11671079713E+02 -0.89828728345E+02  0.10730173715E+03  0.00000000000E+00 0. -1.
          1    1    1    2  502    0 -0.29193391262E+02  0.46570336646E+02  0.21637458880E+03  0.22324652971E+03  0.00000000000E+00 0. -1.
         22    1    3    3    0    0  0.73526017268E+01  0.21625878991E+02 -0.84896856826E+02  0.87915958126E+02  0.00000000000E+00 0. -1.
         22    1    3    3    0    0 -0.35676583994E+02 -0.56525135924E+02  0.51136443820E+01  0.67037743067E+02  0.00000000000E+00 0. -1.
</event>
<event>
 7    1  0.6255318E-006  0.3209431E+02  0.7818608E-02  0.1579165E+00
          2   -1    0    0  502    0  0.00000000000E+00  0.00000000000E+00  0.67636765619E+03  0.67636765619E+03  0.00000000000E+00 0. -1.
          1   -1    0    0  501    0 -0.00000000000E+00 -0.00000000000E+00 -0.30156724833E+03  0.30156724833E+03  0.00000000000E+00 0. -1.
         25    2    1    2    0    0  0.16150924480E+02  0.54745741061E+02  0.12672271889E+03  0.18692657731E+03  0.12499979719E+03 0.  0.
          2    1    1    2  501    0 -0.21101551014E+02 -0.23356625337E+02 -0.27006446070E+03  0.27189266326E+03  0.00000000000E+00 0. -1.
          1    1    1    2  502    0  0.49506265342E+01 -0.31389115724E+02  0.51814214967E+03  0.51911566394E+03  0.00000000000E+00 0. -1.
         22    1    3    3    0    0 -0.40649303859E+02  0.32263354441E+01  0.23897078609E+01  0.40847103303E+02  0.00000000000E+00 0.  1.
         22    1    3    3    0    0  0.56800228339E+02  0.51519405617E+02  0.12433301103E+03  0.14607947401E+03  0.00000000000E+00 0.  1.
</event>
<event>
 7    1  0.6255318E-006  0.1412585E+03  0.7818608E-02  0.1305317E+00
          2   -1    0    0  502    0  0.00000000000E+00  0.00000000000E+00  0.40527540405E+03  0.40527540405E+03  0.00000000000E+00 0. -1.
          1   -1    0    0  501    0 -0.00000000000E+00 -0.00000000000E+00 -0.41609575545E+03  0.41609575545E+03  0.00000000000E+00 0. -1.
         25    2    1    2    0    0 -0.31161560249E+02  0.87472771793E+02 -0.11381783842E+03  0.19287907518E+03  0.12500123463E+03 0.  0.
          2    1    1    2  501    0 -0.38296292888E+02  0.40942307214E+02 -0.24488297018E+03  0.25121812764E+03  0.00000000000E+00 0. -1.
          1    1    1    2  502    0  0.69457853138E+02 -0.12841507901E+03  0.34788045721E+03  0.37727395668E+03  0.00000000000E+00 0. -1.
         22    1    3    3    0    0 -0.11958025448E+02  0.83808629476E+02 -0.13792945685E+03  0.16183762175E+03  0.00000000000E+00 0.  1.
         22    1    3    3    0    0 -0.19203534801E+02  0.36641423169E+01  0.24111618431E+02  0.31041453431E+02  0.00000000000E+00 0.  1.
</event>
<event>
 7    1  0.6255318E-006  0.4956731E+02  0.7818608E-02  0.1519964E+00
          2   -1    0    0  502    0  0.00000000000E+00  0.00000000000E+00  0.15379767672E+04  0.15379767672E+04  0.00000000000E+00 0. -1.
          1   -1    0    0  501    0 -0.00000000000E+00 -0.00000000000E+00 -0.67469153486E+03  0.67469153486E+03  0.00000000000E+00 0. -1.
         25    2    1    2    0    0  0.76605605118E+02 -0.10899813124E+02 -0.20294018619E+03  0.25060278621E+03  0.12501924900E+03 0.  0.
          2    1    1    2  501    0 -0.48016489976E+02  0.24175650962E+01 -0.44648258075E+03  0.44906360668E+03  0.00000000000E+00 0. -1.
          1    1    1    2  502    0 -0.28589115142E+02  0.84822480278E+01  0.15127079993E+04  0.15130019092E+04  0.00000000000E+00 0. -1.
         22    1    3    3    0    0  0.29901058582E+02 -0.65933407447E+02 -0.12439694044E+03  0.14393014386E+03  0.00000000000E+00 0. -1.
         22    1    3    3    0    0  0.46704546535E+02  0.55033594323E+02 -0.78543245753E+02  0.10667264234E+03  0.00000000000E+00 0. -1.
</event>
<event>
 7    1  0.6255318E-006  0.1066772E+03  0.7818608E-02  0.1308703E+00
          2   -1    0    0  502    0  0.00000000000E+00  0.00000000000E+00  0.13217191310E+04  0.13217191310E+04  0.00000000000E+00 0. -1.
          1   -1    0    0  501    0 -0.00000000000E+00 -0.00000000000E+00 -0.21228278833E+03  0.21228278833E+03  0.00000000000E+00 0. -1.
         25    2    1    2    0    0  0.41277674619E+02 -0.11194493231E+03  0.13337877996E+03  0.21829080677E+03  0.12500185233E+03 0.  0.
          2    1    1    2  501    0  0.48459175329E+02  0.53222084360E+02 -0.15955861208E+03  0.17504237380E+03  0.00000000000E+00 0. -1.
          1    1    1    2  502    0 -0.89736849948E+02  0.58722847954E+02  0.11356161748E+04  0.11406687388E+04  0.00000000000E+00 0. -1.
         22    1    3    3    0    0  0.49568714084E+02  0.97862475710E+01  0.33646103583E+02  0.60703281161E+02  0.00000000000E+00 0. -1.
         22    1    3    3    0    0 -0.82910394643E+01 -0.12173117988E+03  0.99732676375E+02  0.15758752561E+03  0.00000000000E+00 0. -1.
</event>
<event>
 7    1  0.6255318E-006  0.6092273E+02  0.7818608E-02  0.1451173E+00
          2   -1    0    0  502    0  0.00000000000E+00  0.00000000000E+00  0.99801918914E+02  0.99801918914E+02  0.00000000000E+00 0. -1.
          1   -1    0    0  501    0 -0.00000000000E+00 -0.00000000000E+00 -0.13077576854E+04  0.13077576854E+04  0.00000000000E+00 0. -1.
         25    2    1    2    0    0  0.20516321335E+02 -0.14389957576E+02 -0.15537017653E+03  0.20098048854E+03  0.12500109878E+03 0.  0.
          2    1    1    2  501    0  0.37578989847E+02 -0.11522794496E+02 -0.11160384210E+04  0.11167303669E+04  0.00000000000E+00 0. -1.
          1    1    1    2  502    0 -0.58095311183E+02  0.25912752072E+02  0.63452831048E+02  0.89848748847E+02  0.00000000000E+00 0. -1.
         22    1    3    3    0    0  0.31987150762E+01 -0.66852432260E+02 -0.55920996404E+02  0.87216038181E+02  0.00000000000E+00 0.  1.
         22    1    3    3    0    0  0.17317606259E+02  0.52462474684E+02 -0.99449180129E+02  0.11376445036E+03  0.00000000000E+00 0.  1.
</event>
<event>
 7    1  0.6255318E-006  0.1515597E+03  0.7818608E-02  0.1292673E+00
          2   -1    0    0  502    0  0.00000000000E+00  0.00000000000E+00  0.43491128711E+03  0.43491128711E+03  0.00000000000E+00 0. -1.
          1   -1    0    0  501    0 -0.00000000000E+00 -0.00000000000E+00 -0.30435932284E+03  0.30435932284E+03  0.00000000000E+00 0. -1.
         25    2    1    2    0    0 -0.66233603482E+02  0.17332845007E+03 -0.11331891582E+03  0.25079040251E+03  0.12500002990E+03 0.  0.
          2    1    1    2  501    0  0.69192116162E+02 -0.11468217392E+03 -0.82208795899E+02  0.15715545195E+03  0.00000000000E+00 0. -1.
          1    1    1    2  502    0 -0.29585126804E+01 -0.58646276152E+02  0.32607967599E+03  0.33132475548E+03  0.00000000000E+00 0. -1.
         22    1    3    3    0    0  0.93808055172E+01  0.54874712648E+02  0.17944532454E+02  0.58491365562E+02  0.00000000000E+00 0.  1.
         22    1    3    3    0    0 -0.75614408999E+02  0.11845373743E+03 -0.13126344828E+03  0.19229903695E+03  0.00000000000E+00 0.  1.
</event>
<event>
 7    1  0.6255318E-006  0.4851020E+02  0.7818608E-02  0.1558840E+00
          2   -1    0    0  502    0  0.00000000000E+00  0.00000000000E+00  0.35858841826E+03  0.35858841826E+03  0.00000000000E+00 0. -1.
          1   -1    0    0  501    0 -0.00000000000E+00 -0.00000000000E+00 -0.29848454804E+04  0.29848454804E+04  0.00000000000E+00 0. -1.
         25    2    1    2    0    0 -0.31683760311E+02 -0.11836471000E+02 -0.76217312416E+03  0.77309581069E+03  0.12500119442E+03 0.  0.
          2    1    1    2  501    0  0.49243936325E+02 -0.40095022169E+01 -0.22165393452E+04  0.22170899192E+04  0.00000000000E+00 0. -1.
          1    1    1    2  502    0 -0.17560176014E+02  0.15845973217E+02  0.35245540719E+03  0.35324816872E+03  0.00000000000E+00 0. -1.
         22    1    3    3    0    0 -0.38273373831E+02 -0.62842812423E+02 -0.54338334445E+03  0.54834252912E+03  0.00000000000E+00 0. -1.
         22    1    3    3    0    0  0.65896135192E+01  0.51006341424E+02 -0.21878977971E+03  0.22475328157E+03  0.00000000000E+00 0. -1.
</event>
<event>
 7    1  0.6255318E-006  0.1836429E+03  0.7818608E-02  0.1347101E+00
          2   -1    0    0  502    0  0.00000000000E+00  0.00000000000E+00  0.17746705117E+04  0.17746705117E+04  0.00000000000E+00 0. -1.
          1   -1    0    0  501    0 -0.00000000000E+00 -0.00000000000E+00 -0.11292155621E+04  0.11292155621E+04  0.00000000000E+00 0. -1.
         25    2    1    2    0    0  0.11523573285E+03  0.10726900674E+03 -0.13782759177E+03  0.24373463590E+03  0.12499685497E+03 0.  0.
          2    1    1    2  501    0  0.98671068913E+01  0.28110390233E+02 -0.93326229039E+03  0.93373768077E+03  0.00000000000E+00 0. -1.
          1    1    1    2  502    0 -0.12510283975E+03 -0.13537939698E+03  0.17165448317E+04  0.17264137572E+04  0.00000000000E+00 0. -1.
         22    1    3    3    0    0  0.39367711747E+02  0.11539819855E+03 -0.10404999651E+03  0.16029024527E+03  0.00000000000E+00 0.  1.
         22    1    3    3    0    0  0.75868021108E+02 -0.81291918052E+01 -0.33777595258E+02  0.83444390630E+02  0.00000000000E+00 0.  1.
</event>
<event>
 7    1  0.6255318E-006  0.5473567E+02  0.7818608E-02  0.1492891E+00
          2   -1    0    0  502    0  0.00000000000E+00  0.00000000000E+00  0.68367438106E+03  0.68367438106E+03  0.00000000000E+00 0. -1.
          1   -1    0    0  501    0 -0.00000000000E+00 -0.00000000000E+00 -0.42656370787E+02  0.42656370787E+02  0.00000000000E+00 0. -1.
         25    2    1    2    0    0  0.62809094646E+02  0.10488690023E+02  0.62476551913E+03  0.64032174431E+03  0.12499994942E+03 0.  0.
          2    1    1    2  501    0 -0.27889306800E+02  0.16635295794E+02 -0.10741058664E+02  0.34204047145E+02  0.00000000000E+00 0. -1.
          1    1    1    2  502    0 -0.34919787846E+02 -0.27123985816E+02  0.26993549805E+02  0.51804960388E+02  0.00000000000E+00 0. -1.
         22    1    3    3    0    0  0.48278374830E+02 -0.29342696870E+02  0.10858673773E+03  0.12240455443E+03  0.00000000000E+00 0.  1.
         22    1    3    3    0    0  0.14530719816E+02  0.39831386893E+02  0.51617878140E+03  0.51791718988E+03  0.00000000000E+00 0.  1.
</event>
<event>
 7    1  0.6255318E-006  0.1669749E+03  0.7818608E-02  0.1213518E+00
          2   -1    0    0  502    0  0.00000000000E+00  0.00000000000E+00  0.21093940486E+03  0.21093940486E+03  0.00000000000E+00 0. -1.
          1   -1    0    0  501    0 -0.00000000000E+00 -0.00000000000E+00 -0.81869201325E+03  0.81869201325E+03  0.00000000000E+00 0. -1.
         25    2    1    2    0    0 -0.12370888196E+03 -0.37307449205E+02 -0.18952474854E+03  0.26122872181E+03  0.12500032618E+03 0.  0.
          2    1    1    2  501    0  0.18196526479E+03 -0.64328427711E+02 -0.55542121742E+03  0.58799849742E+03  0.00000000000E+00 0. -1.
          1    1    1    2  502    0 -0.58256382821E+02  0.10163587692E+03  0.13719335757E+03  0.18040419889E+03  0.00000000000E+00 0. -1.
         22    1    3    3    0    0  0.24034195899E+02  0.75508048696E+01 -0.22611486406E+02  0.33851684510E+02  0.00000000000E+00 0. -1.
         22    1    3    3    0    0 -0.14774307786E+03 -0.44858254075E+02 -0.16691326213E+03  0.22737703730E+03  0.00000000000E+00 0. -1.
</event>
<event>
 7    1  0.6255318E-006  0.6983044E+02  0.7818608E-02  0.1390884E+00
          2   -1    0    0  502    0  0.00000000000E+00  0.00000000000E+00  0.10910792093E+04  0.10910792093E+04  0.00000000000E+00 0. -1.
          1   -1    0    0  501    0 -0.00000000000E+00 -0.00000000000E+00 -0.44024787262E+02  0.44024787262E+02  0.00000000000E+00 0. -1.
         25    2    1    2    0    0  0.29017441845E+02  0.30384735856E+02  0.43131187924E+03  0.45101982774E+03  0.12499481485E+03 0.  0.
          2    1    1    2  501    0  0.43228279063E+01 -0.73489636158E+02  0.81654161080E+01  0.74068127315E+02  0.00000000000E+00 0. -1.
          1    1    1    2  502    0 -0.33340269751E+02  0.43104900302E+02  0.60757712668E+03  0.61001604150E+03  0.00000000000E+00 0. -1.
         22    1    3    3    0    0 -0.48357528518E+02  0.23351207416E+02  0.15779662522E+03  0.16668384559E+03  0.00000000000E+00 0. -1.
         22    1    3    3    0    0  0.77374970364E+02  0.70335284400E+01  0.27351525402E+03  0.28433598215E+03  0.00000000000E+00 0. -1.
</event>
<event>
 7    1  0.6255318E-006  0.1649284E+03  0.7818608E-02  0.1314945E+00
          2   -1    0    0  502    0  0.00000000000E+00  0.00000000000E+00  0.30581206892E+02  0.30581206892E+02  0.00000000000E+00 0. -1.
          1   -1    0    0  501    0 -0.00000000000E+00 -0.00000000000E+00 -0.19021648130E+04  0.19021648130E+04  0.00000000000E+00 0. -1.
         25    2    1    2    0    0  0.12850740359E+03  0.88574576739E+02 -0.61856355703E+03  0.65008125349E+03  0.12500061449E+03 0.  0.
          2    1    1    2  501    0  0.34868185501E+02 -0.26835736487E+02 -0.72858202643E+03  0.72990938914E+03  0.00000000000E+00 0. -1.
          1    1    1    2  502    0 -0.16337558909E+03 -0.61738840253E+02 -0.52443802267E+03  0.55275537729E+03  0.00000000000E+00 0. -1.
         22    1    3    3    0    0  0.13552047786E+03  0.70285770214E+02 -0.60980671555E+03  0.62862557993E+03  0.00000000000E+00 0. -1.
         22    1    3    3    0    0 -0.70130742742E+01  0.18288806526E+02 -0.87568414829E+01  0.21455673554E+02  0.00000000000E+00 0. -1.
</event>
<event>
 7    1  0.6255318E-006  0.6297066E+02  0.7818608E-02  0.1473220E+00
          2   -1    0    0  502    0  0.00000000000E+00  0.00000000000E+00  0.62450071056E+03  0.62450071056E+03  0.00000000000E+00 0. -1.
          1   -1    0    0  501    0 -0.00000000000E+00 -0.00000000000E+00 -0.98499247352E+03  0.98499247352E+03  0.00000000000E+00 0. -1.
         25    2    1    2    0    0 -0.24491827672E+02 -0.40516758770E+02 -0.30608656592E+03  0.33399923674E+03  0.12500018777E+03 0.  0.
          2    1    1    2  501    0  0.35576025130E+01  0.65266349730E+02 -0.66291085896E+03  0.66612548357E+03  0.00000000000E+00 0. -1.
          1    1    1    2  502    0  0.20934225159E+02 -0.24749590960E+02  0.60850566192E+03  0.60936846376E+03  0.00000000000E+00 0. -1.
         22    1    3    3    0    0  0.20706514134E+02 -0.74058007608E+02 -0.16254332374E+03  0.17981568427E+03  0.00000000000E+00 0.  1.
         22    1    3    3    0    0 -0.45198341807E+02  0.33541248838E+02 -0.14354324218E+03  0.15418355247E+03  0.00000000000E+00 0.  1.
</event>
<event>
 7    1  0.6255318E-006  0.4239477E+02  0.7818608E-02  0.1565542E+00
          2   -1    0    0  502    0  0.00000000000E+00  0.00000000000E+00  0.30224227723E+03  0.30224227723E+03  0.00000000000E+00 0. -1.
          1   -1    0    0  501    0 -0.00000000000E+00 -0.00000000000E+00 -0.20325206957E+04  0.20325206957E+04  0.00000000000E+00 0. -1.
         25    2    1    2    0    0  0.22452399174E+02  0.69724048913E+01 -0.12532322812E+04  0.12596701112E+04  0.12499965500E+03 0.  0.
          2    1    1    2  501    0  0.18445099212E+02 -0.18242182746E+02 -0.77434661122E+03  0.77478104857E+03  0.00000000000E+00 0. -1.
          1    1    1    2  502    0 -0.40897498386E+02  0.11269777854E+02  0.29730047398E+03  0.30031181312E+03  0.00000000000E+00 0. -1.
         22    1    3    3    0    0 -0.50140572968E+02  0.13367408025E+02 -0.40448236540E+03  0.40779743572E+03  0.00000000000E+00 0. -1.
         22    1    3    3    0    0  0.72592972142E+02 -0.63950031341E+01 -0.84874991579E+03  0.85187267547E+03  0.00000000000E+00 0. -1.
</event>
<event>
 7    1  0.6255318E-006  0.1474013E+03  0.7818608E-02  0.1312912E+00
          2   -1    0    0  502    0  0.00000000000E+00  0.00000000000E+00  0.23248612561E+04  0.23248612561E+04  0.00000000000E+00 0. -1.
          1   -1    0    0  501    0 -0.00000000000E+00 -0.00000000000E+00 -0.40563496289E+03  0.40563496289E+03  0.00000000000E+00 0. -1.
         25    2    1    2    0    0  0.14859634363E+03  0.36299593903E+02  0.29365030373E+03  0.35390372554E+03  0.12497524639E+03 0.  0.
          2    1    1    2  501    0 -0.16486133688E+01 -0.50115062184E+02 -0.37109824900E+03  0.37447048988E+03  0.00000000000E+00 0. -1.
          1    1    1    2  502    0 -0.14694773026E+03  0.13815468281E+02  0.19966742384E+04  0.20021220035E+04  0.00000000000E+00 0. -1.
         22    1    3    3    0    0  0.20488303480E+02 -0.26587797855E+02  0.78771079826E+01  0.34477969842E+02  0.00000000000E+00 0.  1.
         22    1    3    3    0    0  0.12810804014E+03  0.62887391758E+02  0.28577319575E+03  0.31942575570E+03  0.00000000000E+00 0.  1.
</event>
<event>
 7    1  0.6255318E-006  0.4310514E+02  0.7818608E-02  0.1497207E+00
          2   -1    0    0  502    0  0.00000000000E+00  0.00000000000E+00  0.23103589671E+04  0.23103589671E+04  0.00000000000E+00 0. -1.
          1   -1    0    0  501    0 -0.00000000000E+00 -0.00000000000E+00 -0.11439654470E+04  0.11439654470E+04  0.00000000000E+00 0. -1.
         25    2    1    2    0    0 -0.13347008767E+02  0.83770176510E+01  0.38248942681E+01  0.12604365868E+03  0.12499622798E+03 0.  0.
          2    1    1    2  501    0 -0.21779695929E+02 -0.33577948482E+02 -0.10822780558E+04  0.10830178317E+04  0.00000000000E+00 0. -1.
          1    1    1    2  502    0  0.35126704696E+02  0.25200930831E+02  0.22448466816E+04  0.22452629236E+04  0.00000000000E+00 0. -1.
         22    1    3    3    0    0 -0.21391864738E+02  0.36880085499E+02  0.53377591560E+02  0.68314858298E+02  0.00000000000E+00 0. -1.
         22    1    3    3    0    0  0.80448559710E+01 -0.28503067849E+02 -0.49552697292E+02  0.57728800380E+02  0.00000000000E+00 0. -1.
</event>
<event>
 7    1  0.7093001E-006  0.7788671E+02  0.7818608E-02  0.1438437E+00
          2   -1    0    0  502    0  0.00000000000E+00  0.00000000000E+00  0.14089239801E+04  0.14089239801E+04  0.00000000000E+00 0. -1.
          1   -1    0    0  501    0 -0.00000000000E+00 -0.00000000000E+00 -0.71771118970E+03  0.71771118970E+03  0.00000000000E+00 0. -1.
         25    2    1    2    0    0  0.52442125440E+02 -0.37843274881E+02 -0.34323606889E+03  0.37096900270E+03  0.12499884800E+03 0.  0.
          2    1    1    2  501    0  0.24190567937E+02  0.23595789371E+02 -0.35872519093E+03  0.36031334622E+03  0.00000000000E+00 0. -1.
          1    1    1    2  502    0 -0.76632693376E+02  0.14247485509E+02  0.13931740502E+04  0.13953528209E+04  0.00000000000E+00 0. -1.
         22    1    3    3    0    0  0.79999905595E+02 -0.35182044515E+01 -0.29496322366E+03  0.30563976503E+03  0.00000000000E+00 0.  1.
         22    1    3    3    0    0 -0.27557780156E+02 -0.34325070429E+02 -0.48272845227E+02  0.65329237661E+02  0.00000000000E+00 0.  1.
</event>
<event>
 7    1  0.6255318E-006  0.5661685E+02  0.7818608E-02  0.1447145E+00
          2   -1    0    0  502    0  0.00000000000E+00  0.00000000000E+00  0.10812227846E+03  0.10812227846E+03  0.00000000000E+00 0. -1.
          1   -1    0    0  501    0 -0.00000000000E+00 -0.00000000000E+00 -0.11397593574E+04  0.11397593574E+04  0.00000000000E+00 0. -1.
         25    2    1    2    0    0  0.51943397041E+02  0.14859139152E+02 -0.20676558626E+03  0.24757943027E+03  0.12499862446E+03 0.  0.
          2    1    1    2  501    0 -0.22237173086E+01 -0.43513808288E+02 -0.90261892270E+03  0.90366991542E+03  0.00000000000E+00 0. -1.
          1    1    1    2  502    0 -0.49719679733E+02  0.28654669135E+02  0.77747430057E+02  0.96632290134E+02  0.00000000000E+00 0. -1.
         22    1    3    3    0    0 -0.12071471451E+01  0.63442293451E+02 -0.84304969065E+02  0.10551639499E+03  0.00000000000E+00 0.  1.
         22    1    3    3    0    0  0.53150544186E+02 -0.48583154298E+02 -0.12246061720E+03  0.14206303528E+03  0.00000000000E+00 0.  1.
</event>
<event>
 7    1  0.6255318E-006  0.1588304E+03  0.7818608E-02  0.1323456E+00
          2   -1    0    0  502    0  0.00000000000E+00  0.00000000000E+00  0.20153928874E+04  0.20153928874E+04  0.00000000000E+00 0. -1.
          1   -1    0    0  501    0 -0.00000000000E+00 -0.00000000000E+00 -0.73381751492E+03  0.73381751492E+03  0.00000000000E+00 0. -1.
         25    2    1    2    0    0  0.17292378546E+03  0.53508638158E+02 -0.82338794904E+02  0.23488220198E+03  0.12499664687E+03 0.  0.
          2    1    1    2  501    0 -0.13674034729E+03 -0.75495280754E+02 -0.56436656905E+03  0.58558268780E+03  0.00000000000E+00 0. -1.
          1    1    1    2  502    0 -0.36183438167E+02  0.21986642596E+02  0.19282807364E+04  0.19287455125E+04  0.00000000000E+00 0. -1.
         22    1    3    3    0    0  0.13935393169E+03  0.37832079447E+02  0.21222984771E+00  0.14439816327E+03  0.00000000000E+00 0.  1.
         22    1    3    3    0    0  0.33569853765E+02  0.15676558712E+02 -0.82551024752E+02  0.90484038716E+02  0.00000000000E+00 0.  1.
</event>
<event>
 7    1  0.6255318E-006  0.1186247E+03  0.7818608E-02  0.1312712E+00
          2   -1    0    0  502    0  0.00000000000E+00  0.00000000000E+00  0.40855594983E+03  0.40855594983E+03  0.00000000000E+00 0. -1.
          1   -1    0    0  501    0 -0.00000000000E+00 -0.00000000000E+00 -0.88299432737E+03  0.88299432737E+03  0.00000000000E+00 0. -1.
         25    2    1    2    0    0  0.43022154985E+02 -0.52176733346E+02  0.14399658855E+03  0.20232137692E+03  0.12500241886E+03 0.  0.
          2    1    1    2  501    0 -0.36613897741E+02  0.11426581507E+03 -0.84538189343E+03  0.85385467132E+03  0.00000000000E+00 0. -1.
          1    1    1    2  502    0 -0.64082572438E+01 -0.62089081720E+02  0.22694692734E+03  0.23537422896E+03  0.00000000000E+00 0. -1.
         22    1    3    3    0    0  0.36603021846E+01 -0.78310563167E+02  0.39815832116E+02  0.87927484911E+02  0.00000000000E+00 0.  1.
         22    1    3    3    0    0  0.39361852800E+02  0.26133829822E+02  0.10418075643E+03  0.11439389200E+03  0.00000000000E+00 0.  1.
</event>
<event>
 7    1  0.6255318E-006  0.1166250E+03  0.7818608E-02  0.1287166E+00
          2   -1    0    0  502    0  0.00000000000E+00  0.00000000000E+00  0.12674501499E+04  0.12674501499E+04  0.00000000000E+00 0. -1.
          1   -1    0    0  501    0 -0.00000000000E+00 -0.00000000000E+00 -0.81671293746E+03  0.81671293746E+03  0.00000000000E+00 0. -1.
         25    2    1    2    0    0 -0.85544724704E+01  0.57081645565E+01  0.43588563876E+03  0.45358212548E+03  0.12503876334E+03 0.  0.
          2    1    1    2  501    0 -0.73224555248E+02 -0.90772031131E+02 -0.79938048162E+03  0.80784314785E+03  0.00000000000E+00 0. -1.
          1    1    1    2  502    0  0.81779027719E+02  0.85063866575E+02  0.81423205533E+03  0.82273781407E+03  0.00000000000E+00 0. -1.
         22    1    3    3    0    0 -0.57560734602E+02 -0.57809951147E+01  0.34383946889E+03  0.34867210734E+03  0.00000000000E+00 0.  1.
         22    1    3    3    0    0  0.49006262131E+02  0.11489159671E+02  0.92046169870E+02  0.10491001814E+03  0.00000000000E+00 0.  1.
</event>
<event>
 7    1  0.6255318E-006  0.8429751E+02  0.7818608E-02  0.1457075E+00
          2   -1    0    0  502    0  0.00000000000E+00  0.00000000000E+00  0.35637169183E+02  0.35637169183E+02  0.00000000000E+00 0. -1.
          1   -1    0    0  501    0 -0.00000000000E+00 -0.00000000000E+00 -0.14653132664E+04  0.14653132664E+04  0.00000000000E+00 0. -1.
         25    2    1    2    0    0 -0.19904907081E+02 -0.92898352082E+02 -0.25934424957E+03  0.30317238049E+03  0.12501097297E+03 0.  0.
          2    1    1    2  501    0  0.39421304125E+02  0.73945261212E+02 -0.11674133960E+04  0.11704170104E+04  0.00000000000E+00 0. -1.
          1    1    1    2  502    0 -0.19516397044E+02  0.18953090870E+02 -0.29184515631E+01  0.27361044692E+02  0.00000000000E+00 0. -1.
         22    1    3    3    0    0 -0.62934555082E+02 -0.54288799721E+02 -0.21439563102E+03  0.22994242453E+03  0.00000000000E+00 0.  1.
         22    1    3    3    0    0  0.43029648001E+02 -0.38609552360E+02 -0.44948618551E+02  0.73229955962E+02  0.00000000000E+00 0.  1.
</event>
<event>
 7    1  0.6255318E-006  0.9815286E+02  0.7818608E-02  0.1325706E+00
          2   -1    0    0  502    0  0.00000000000E+00  0.00000000000E+00  0.23865097667E+04  0.23865097667E+04  0.00000000000E+00 0. -1.
          1   -1    0    0  501    0 -0.00000000000E+00 -0.00000000000E+00 -0.37429611641E+03  0.37429611641E+03  0.00000000000E+00 0. -1.
         25    2    1    2    0    0 -0.10769553081E+03  0.76110238041E+02  0.15007883458E+03  0.23566602127E+03  0.12499488510E+03 0.  0.
          2    1    1    2  501    0  0.97009906020E+02 -0.98060060802E+01 -0.32380593878E+03  0.33816765902E+03  0.00000000000E+00 0. -1.
          1    1    1    2  502    0  0.10685624793E+02 -0.66304231961E+02  0.21859407545E+04  0.21869722028E+04  0.00000000000E+00 0. -1.
         22    1    3    3    0    0 -0.74300960702E+02  0.25994995298E+02  0.53394041840E+01  0.78897919990E+02  0.00000000000E+00 0. -1.
         22    1    3    3    0    0 -0.33394570111E+02  0.50115242743E+02  0.14473943039E+03  0.15676810128E+03  0.00000000000E+00 0. -1.
</event>
<event>
 7    1  0.6255318E-006  0.8555966E+02  0.7818608E-02  0.1457337E+00
          2   -1    0    0  502    0  0.00000000000E+00  0.00000000000E+00  0.23852829622E+04  0.23852829622E+04  0.00000000000E+00 0. -1.
          1   -1    0    0  501    0 -0.00000000000E+00 -0.00000000000E+00 -0.32763099137E+02  0.32763099137E+02  0.00000000000E+00 0. -1.
         25    2    1    2    0    0 -0.22819350477E+02 -0.61071937041E+02  0.16105504040E+04  0.16167085257E+04  0.12499339602E+03 0.  0.
          2    1    1    2  501    0  0.46997696421E+02  0.72521955870E+02  0.34006104404E+02  0.92868900546E+02  0.00000000000E+00 0. -1.
          1    1    1    2  502    0 -0.24178345944E+02 -0.11450018828E+02  0.70796335470E+03  0.70846863512E+03  0.00000000000E+00 0. -1.
         22    1    3    3    0    0 -0.15451027147E+02  0.16004332147E+02  0.11084523988E+04  0.11086756033E+04  0.00000000000E+00 0.  1.
         22    1    3    3    0    0 -0.73683233302E+01 -0.77076269188E+02  0.50209800521E+03  0.50803292245E+03  0.00000000000E+00 0.  1.
</event>
<event>
 7    1  0.6255318E-006  0.3645362E+02  0.7818608E-02  0.1556625E+00
          2   -1    0    0  502    0  0.00000000000E+00  0.00000000000E+00  0.20039041455E+04  0.20039041455E+04  0.00000000000E+00 0. -1.
          1   -1    0    0  501    0 -0.00000000000E+00 -0.00000000000E+00 -0.79562289549E+02  0.79562289549E+02  0.00000000000E+00 0. -1.
         25    2    1    2    0    0  0.45151025206E+02 -0.44938531898E+02  0.12918485663E+04  0.12994442200E+04  0.12499790387E+03 0.  0.
          2    1    1    2  501    0 -0.16339093030E+02  0.27423500244E+02 -0.71980802481E+02  0.78741667829E+02  0.00000000000E+00 0. -1.
          1    1    1    2  502    0 -0.28811932176E+02  0.17515031653E+02  0.70447409213E+03  0.70528054719E+03  0.00000000000E+00 0. -1.
         22    1    3    3    0    0 -0.30437883155E+02 -0.17995310105E+02  0.82437467874E+03  0.82513266016E+03  0.00000000000E+00 0. -1.
         22    1    3    3    0    0  0.75588908361E+02 -0.26943221793E+02  0.46747388758E+03  0.47431155988E+03  0.00000000000E+00 0. -1.
</event>
<event>
 7    1  0.6255318E-006  0.8424541E+02  0.7818608E-02  0.1367962E+00
          2   -1    0    0  502    0  0.00000000000E+00  0.00000000000E+00  0.56313321828E+03  0.56313321828E+03  0.00000000000E+00 0. -1.
          1   -1    0    0  501    0 -0.00000000000E+00 -0.00000000000E+00 -0.27928791147E+04  0.27928791147E+04  0.00000000000E+00 0. -1.
         25    2    1    2    0    0 -0.42236470036E+02 -0.21421603700E+02 -0.88848226963E+02  0.16050928266E+03  0.12500567139E+03 0.  0.
          2    1    1    2  501    0  0.26868423096E+01 -0.54397076674E+02 -0.26644532348E+04  0.26650098126E+04  0.00000000000E+00 0. -1.
          1    1    1    2  502    0  0.39549627726E+02  0.75818680374E+02  0.52355556528E+03  0.53049323774E+03  0.00000000000E+00 0. -1.
         22    1    3    3    0    0 -0.65000524119E+02  0.51546158494E+01 -0.20044845949E+00  0.65204895368E+02  0.00000000000E+00 0.  1.
         22    1    3    3    0    0  0.22764054084E+02 -0.26576219550E+02 -0.88647778503E+02  0.95304387294E+02  0.00000000000E+00 0.  1.
</event>
<event>
 7    1  0.6255318E-006  0.1235926E+03  0.7818608E-02  0.1330382E+00
          2   -1    0    0  502    0  0.00000000000E+00  0.00000000000E+00  0.63390760824E+03  0.63390760824E+03  0.00000000000E+00 0. -1.
          1   -1    0    0  501    0 -0.00000000000E+00 -0.00000000000E+00 -0.13470323932E+04  0.13470323932E+04  0.00000000000E+00 0. -1.
         25    2    1    2    0    0 -0.13351565625E+03  0.71435532991E+02 -0.31296577545E+02  0.19883254021E+03  0.12500174976E+03 0.  0.
          2    1    1    2  501    0  0.48448485029E+02  0.16496841983E+02 -0.12246245681E+04  0.12256935727E+04  0.00000000000E+00 0. -1.
          1    1    1    2  502    0  0.85067171223E+02 -0.87932374974E+02  0.54279636065E+03  0.55641388851E+03  0.00000000000E+00 0. -1.
         22    1    3    3    0    0 -0.23424367669E+02  0.40213792132E+02  0.42206199564E+02  0.62826852221E+02  0.00000000000E+00 0.  1.
         22    1    3    3    0    0 -0.11009128858E+03  0.31221740859E+02 -0.73502777108E+02  0.13600568799E+03  0.00000000000E+00 0.  1.
</event>
<event>
 7    1  0.6255318E-006  0.4056647E+02  0.7818608E-02  0.1586407E+00
          2   -1    0    0  502    0  0.00000000000E+00  0.00000000000E+00  0.13255222330E+04  0.13255222330E+04  0.00000000000E+00 0. -1.
          1   -1    0    0  501    0 -0.00000000000E+00 -0.00000000000E+00 -0.54829140823E+02  0.54829140823E+02  0.00000000000E+00 0. -1.
         25    2    1    2    0    0  0.39774536988E+02  0.28256069655E+02  0.10800530873E+03  0.17225223738E+03  0.12500106921E+03 0.  0.
          2    1    1    2  501    0 -0.17343960428E+02 -0.36266297545E+02 -0.46949543715E+01  0.40473446820E+02  0.00000000000E+00 0. -1.
          1    1    1    2  502    0 -0.22430576560E+02  0.80102278900E+01  0.11673827378E+04  0.11676256896E+04  0.00000000000E+00 0. -1.
         22    1    3    3    0    0 -0.24857681306E+02 -0.11076586454E+02 -0.12513237614E+02  0.29952899743E+02  0.00000000000E+00 0.  1.
         22    1    3    3    0    0  0.64632218294E+02  0.39332656110E+02  0.12051854634E+03  0.14229933763E+03  0.00000000000E+00 0.  1.
</event>
<event>
 7    1  0.6255318E-006  0.1806559E+03  0.7818608E-02  0.1237977E+00
          2   -1    0    0  502    0  0.00000000000E+00  0.00000000000E+00  0.71022224552E+03  0.71022224552E+03  0.00000000000E+00 0. -1.
          1   -1    0    0  501    0 -0.00000000000E+00 -0.00000000000E+00 -0.61007223187E+03  0.61007223187E+03  0.00000000000E+00 0. -1.
         25    2    1    2    0    0 -0.13565292402E+03  0.20705918776E+02  0.35575751837E+03  0.40127082825E+03  0.12499765944E+03 0.  0.
          2    1    1    2  501    0  0.15083377636E+03 -0.10328209373E+03 -0.56740160660E+03  0.59612297569E+03  0.00000000000E+00 0. -1.
          1    1    1    2  502    0 -0.15180852349E+02  0.82576174958E+02  0.31179410188E+03  0.32290067345E+03  0.00000000000E+00 0. -1.
         22    1    3    3    0    0 -0.15617703865E+03  0.20167195553E+02  0.34212324504E+03  0.37662487700E+03  0.00000000000E+00 0.  1.
         22    1    3    3    0    0  0.20524114631E+02  0.53872322298E+00  0.13634273329E+02  0.24645951256E+02  0.00000000000E+00 0.  1.
</event>
<event>
 7    1  0.6255318E-006  0.2634538E+03  0.7818608E-02  0.1120213E+00
          2   -1    0    0  502    0  0.00000000000E+00  0.00000000000E+00  0.21991508363E+04  0.21991508363E+04  0.00000000000E+00 0. -1.
          1   -1    0    0  501    0 -0.00000000000E+00 -0.00000000000E+00 -0.31985854843E+03  0.31985854843E+03  0.00000000000E+00 0. -1.
         25    2    1    2    0    0 -0.39309897262E+03 -0.71758406655E+02  0.41270703273E+03  0.58790070443E+03  0.12499628877E+03 0.  0.
          2    1    1    2  501    0  0.19810781775E+03 -0.89745661200E+02 -0.16938189425E+03  0.27566504541E+03  0.00000000000E+00 0. -1.
          1    1    1    2  502    0  0.19499115487E+03  0.16150406785E+03  0.16359671494E+04  0.16554436349E+04  0.00000000000E+00 0. -1.
         22    1    3    3    0    0 -0.16890270015E+03 -0.94077355278E+02  0.19505967818E+03  0.27463967111E+03  0.00000000000E+00 0.  1.
         22    1    3    3    0    0 -0.22419627247E+03  0.22318948623E+02  0.21764735455E+03  0.31326103332E+03  0.00000000000E+00 0.  1.
</event>
<event>
 7    1  0.6255318E-006  0.3260292E+02  0.7818608E-02  0.1603231E+00
          2   -1    0    0  502    0  0.00000000000E+00  0.00000000000E+00  0.36543499001E+03  0.36543499001E+03  0.00000000000E+00 0. -1.
          1   -1    0    0  501    0 -0.00000000000E+00 -0.00000000000E+00 -0.20563412335E+03  0.20563412335E+03  0.00000000000E+00 0. -1.
         25    2    1    2    0    0  0.47574203062E+02 -0.31534861709E+02  0.22008975800E+03  0.25946475162E+03  0.12499881381E+03 0.  0.
          2    1    1    2  501    0 -0.22234139204E+02  0.14899335520E+02 -0.18313151794E+03  0.18507701102E+03  0.00000000000E+00 0. -1.
          1    1    1    2  502    0 -0.25340063858E+02  0.16635526189E+02  0.12284262661E+03  0.12652735072E+03  0.00000000000E+00 0. -1.
         22    1    3    3    0    0  0.27063754049E+02  0.16859171665E+02 -0.13091480016E+01  0.31912259728E+02  0.00000000000E+00 0.  1.
         22    1    3    3    0    0  0.20510449013E+02 -0.48394033374E+02  0.22139890600E+03  0.22755249189E+03  0.00000000000E+00 0.  1.
</event>
<event>
 7    1  0.6255318E-006  0.1359190E+03  0.7818608E-02  0.1261881E+00
          2   -1    0    0  502    0  0.00000000000E+00  0.00000000000E+00  0.20600819678E+04  0.20600819678E+04  0.00000000000E+00 0. -1.
          1   -1    0    0  501    0 -0.00000000000E+00 -0.00000000000E+00 -0.22461805298E+03  0.22461805298E+03  0.00000000000E+00 0. -1.
         25    2    1    2    0    0 -0.12753656040E+03  0.11513283750E+03  0.12283726260E+03  0.24542882181E+03  0.12500067591E+03 0.  0.
          2    1    1    2  501    0  0.13070286760E+03 -0.27303657443E+02 -0.13481123452E+03  0.18974403353E+03  0.00000000000E+00 0. -1.
          1    1    1    2  502    0 -0.31663071960E+01 -0.87829180060E+02  0.18474378867E+04  0.18495271654E+04  0.00000000000E+00 0. -1.
         22    1    3    3    0    0  0.20671935091E+02  0.42851322047E+02  0.28183469428E+02  0.55298034781E+02  0.00000000000E+00 0. -1.
         22    1    3    3    0    0 -0.14820849549E+03  0.72281515456E+02  0.94653793175E+02  0.19013078703E+03  0.00000000000E+00 0. -1.
</event>
<event>
 7    1  0.6255318E-006  0.4664312E+02  0.7818608E-02  0.1495085E+00
          2   -1    0    0  502    0  0.00000000000E+00  0.00000000000E+00  0.53874406504E+03  0.53874406504E+03  0.00000000000E+00 0. -1.
          1   -1    0    0  501    0 -0.00000000000E+00 -0.00000000000E+00 -0.15917842653E+04  0.15917842653E+04  0.00000000000E+00 0. -1.
         25    2    1    2    0    0 -0.67015769684E+02  0.98549785622E+00  0.31024592198E+02  0.14518570529E+03  0.12499711640E+03 0.  0.
          2    1    1    2  501    0  0.38830035512E+02 -0.25770890442E+02 -0.15335675844E+04  0.15342755444E+04  0.00000000000E+00 0. -1.
          1    1    1    2  502    0  0.28185734172E+02  0.24785392586E+02  0.44950279189E+03  0.45106708062E+03  0.00000000000E+00 0. -1.
         22    1    3    3    0    0  0.29612877803E+02  0.28766238485E+02  0.84941476671E+01  0.42149371916E+02  0.00000000000E+00 0.  1.
         22    1    3    3    0    0 -0.96628647486E+02 -0.27780740629E+02  0.22530444531E+02  0.10303633338E+03  0.00000000000E+00 0.  1.
</event>
<event>
 7    1  0.6255318E-006  0.4082261E+02  0.7818608E-02  0.1577774E+00
          2   -1    0    0  502    0  0.00000000000E+00  0.00000000000E+00  0.12910133936E+04  0.12910133936E+04  0.00000000000E+00 0. -1.
          1   -1    0    0  501    0 -0.00000000000E+00 -0.00000000000E+00 -0.11735695475E+02  0.11735695475E+02  0.00000000000E+00 0. -1.
         25    2    1    2    0    0  0.28382998693E+02  0.39699163234E+02  0.46466819370E+03  0.48365613671E+03  0.12500044063E+03 0.  0.
          2    1    1    2  501    0 -0.36050225139E+02 -0.15945177231E+02  0.19309962227E+03  0.19708204264E+03  0.00000000000E+00 0. -1.
          1    1    1    2  502    0  0.76672264464E+01 -0.23753986003E+02  0.62150988213E+03  0.62201090971E+03  0.00000000000E+00 0. -1.
         22    1    3    3    0    0  0.55702895296E+02 -0.22795731920E+02  0.14886631898E+03  0.16057284598E+03  0.00000000000E+00 0. -1.
         22    1    3    3    0    0 -0.27319896603E+02  0.62494895154E+02  0.31580187472E+03  0.32308329073E+03  0.00000000000E+00 0. -1.
</event>
<event>
 7    1  0.6255318E-006  0.1311969E+03  0.7818608E-02  0.1250556E+00
          2   -1    0    0  502    0  0.00000000000E+00  0.00000000000E+00  0.76521070364E+03  0.76521070364E+03  0.00000000000E+00 0. -1.
          1   -1    0    0  501    0 -0.00000000000E+00 -0.00000000000E+00 -0.38412057281E+03  0.38412057281E+03  0.00000000000E+00 0. -1.
         25    2    1    2    0    0  0.50720075169E+02 -0.11935940191E+03  0.35560450473E+03  0.39862123440E+03  0.12500052752E+03 0.  0.
          2    1    1    2  501    0  0.51077185938E+02  0.12225040560E+03 -0.34337492564E+03  0.36804942623E+03  0.00000000000E+00 0. -1.
          1    1    1    2  502    0 -0.10179726111E+03 -0.28910036906E+01  0.36886055174E+03  0.38266061582E+03  0.00000000000E+00 0. -1.
         22    1    3    3    0    0  0.40330666791E+02 -0.14200507912E+03  0.25192519569E+03  0.29199025566E+03  0.00000000000E+00 0.  1.
         22    1    3    3    0    0  0.10389408378E+02  0.22645677211E+02  0.10367930904E+03  0.10663097874E+03  0.00000000000E+00 0.  1.
</event>
<event>
 7    1  0.6255318E-006  0.4685361E+02  0.7818608E-02  0.1472512E+00
          2   -1    0    0  502    0  0.00000000000E+00  0.00000000000E+00  0.14268410493E+04  0.14268410493E+04  0.00000000000E+00 0. -1.
          1   -1    0    0  501    0 -0.00000000000E+00 -0.00000000000E+00 -0.17069774164E+02  0.17069774164E+02  0.00000000000E+00 0. -1.
         25    2    1    2    0    0 -0.84073805598E+02  0.12775544074E+02  0.83462155792E+03  0.84820350470E+03  0.12499768449E+03 0.  0.
          2    1    1    2  501    0  0.40650435119E+02 -0.18407964879E+02  0.43704020144E+02  0.62460807096E+02  0.00000000000E+00 0. -1.
          1    1    1    2  502    0  0.43423370480E+02  0.56324208053E+01  0.53144569705E+03  0.53324651164E+03  0.00000000000E+00 0. -1.
         22    1    3    3    0    0 -0.13510494268E+02  0.60340140823E+02  0.45357084442E+03  0.45776629077E+03  0.00000000000E+00 0. -1.
         22    1    3    3    0    0 -0.70563311330E+02 -0.47564596749E+02  0.38105071350E+03  0.39043721394E+03  0.00000000000E+00 0. -1.
</event>
<event>
 7    1  0.6255318E-006  0.1446174E+03  0.7818608E-02  0.1268197E+00
          2   -1    0    0  502    0  0.00000000000E+00  0.00000000000E+00  0.71038360139E+03  0.71038360139E+03  0.00000000000E+00 0. -1.
          1   -1    0    0  501    0 -0.00000000000E+00 -0.00000000000E+00 -0.72107811295E+03  0.72107811295E+03  0.00000000000E+00 0. -1.
         25    2    1    2    0    0 -0.87433123474E+02  0.56243980353E+01 -0.11025354074E+03  0.18830094353E+03  0.12500086862E+03 0.  0.
          2    1    1    2  501    0  0.16048535255E+03  0.20752191800E+02 -0.55802047255E+03  0.58101036964E+03  0.00000000000E+00 0. -1.
          1    1    1    2  502    0 -0.73052229081E+02 -0.26376589836E+02  0.65757950173E+03  0.66215040116E+03  0.00000000000E+00 0. -1.
         22    1    3    3    0    0 -0.89542787302E+02 -0.37614674393E+02 -0.10756926259E+03  0.14492729468E+03  0.00000000000E+00 0.  1.
         22    1    3    3    0    0  0.21096638287E+01  0.43239072429E+02 -0.26842781468E+01  0.43373648857E+02  0.00000000000E+00 0.  1.
</event>
<event>
 7    1  0.6255318E-006  0.9939389E+02  0.7818608E-02  0.1417852E+00
          2   -1    0    0  502    0  0.00000000000E+00  0.00000000000E+00  0.52844600165E+03  0.52844600165E+03  0.00000000000E+00 0. -1.
          1   -1    0    0  501    0 -0.00000000000E+00 -0.00000000000E+00 -0.64873503899E+03  0.64873503899E+03  0.00000000000E+00 0. -1.
         25    2    1    2    0    0  0.95046146014E+02  0.49492552231E+02  0.27244486569E+03  0.31833101537E+03  0.12500059162E+03 0.  0.
          2    1    1    2  501    0  0.44906653939E+00 -0.30962511984E+02 -0.61523500337E+03  0.61601378896E+03  0.00000000000E+00 0. -1.
          1    1    1    2  502    0 -0.95495212554E+02 -0.18530040247E+02  0.22250110034E+03  0.24283623631E+03  0.00000000000E+00 0. -1.
         22    1    3    3    0    0  0.10707311994E+03  0.73545969513E+02  0.17948461085E+03  0.22155899480E+03  0.00000000000E+00 0.  1.
         22    1    3    3    0    0 -0.12026973924E+02 -0.24053417282E+02  0.92960254837E+02  0.96772020564E+02  0.00000000000E+00 0.  1.
</event>
<event>
 7    1  0.6255318E-006  0.4764962E+02  0.7818608E-02  0.1529262E+00
          2   -1    0    0  502    0  0.00000000000E+00  0.00000000000E+00  0.10301003436E+04  0.10301003436E+04  0.00000000000E+00 0. -1.
          1   -1    0    0  501    0 -0.00000000000E+00 -0.00000000000E+00 -0.62056927042E+02  0.62056927042E+02  0.00000000000E+00 0. -1.
         25    2    1    2    0    0  0.29506998789E+02 -0.24754405039E+02  0.26462785067E+03  0.29518843879E+03  0.12499948599E+03 0.  0.
          2    1    1    2  501    0 -0.10849907158E+02  0.47167933897E+02 -0.33890961600E+02  0.59085799915E+02  0.00000000000E+00 0. -1.
          1    1    1    2  502    0 -0.18657091631E+02 -0.22413528857E+02  0.73730652752E+03  0.73788303197E+03  0.00000000000E+00 0. -1.
         22    1    3    3    0    0 -0.12020235472E+02  0.46653525133E+02  0.95229635814E+02  0.10672263586E+03  0.00000000000E+00 0. -1.
         22    1    3    3    0    0  0.41527234260E+02 -0.71407930173E+02  0.16939821486E+03  0.18846580293E+03  0.00000000000E+00 0. -1.
</event>
<event>
 7    1  0.6255318E-006  0.1818890E+03  0.7818608E-02  0.1200429E+00
          2   -1    0    0  502    0  0.00000000000E+00  0.00000000000E+00  0.98268245389E+03  0.98268245389E+03  0.00000000000E+00 0. -1.
          1   -1    0    0  501    0 -0.00000000000E+00 -0.00000000000E+00 -0.29572018296E+04  0.29572018296E+04  0.00000000000E+00 0. -1.
         25    2    1    2    0    0 -0.27142902975E+03  0.90525939487E+02 -0.23081485350E+04  0.23291723639E+04  0.12500230725E+03 0.  0.
          2    1    1    2  501    0  0.89963841151E+02 -0.84989246281E+02 -0.62393418265E+03  0.63609003213E+03  0.00000000000E+00 0. -1.
          1    1    1    2  502    0  0.18146518859E+03 -0.55366932059E+01  0.95756334199E+03  0.97462188749E+03  0.00000000000E+00 0. -1.
         22    1    3    3    0    0 -0.15957458829E+03  0.11375194258E+03 -0.15822069736E+04  0.15942968548E+04  0.00000000000E+00 0. -1.
         22    1    3    3    0    0 -0.11185444146E+03 -0.23226003096E+02 -0.72594156140E+03  0.73487550909E+03  0.00000000000E+00 0. -1.
</event>
<event>
 7    1  0.6255318E-006  0.3869098E+02  0.7818608E-02  0.1558588E+00
          2   -1    0    0  502    0  0.00000000000E+00  0.00000000000E+00  0.15771740285E+04  0.15771740285E+04  0.00000000000E+00 0. -1.
          1   -1    0    0  501    0 -0.00000000000E+00 -0.00000000000E+00 -0.90365736954E+02  0.90365736954E+02  0.00000000000E+00 0. -1.
         25    2    1    2    0    0  0.69779063669E+01  0.62928010083E+02  0.42058986874E+03  0.44331598195E+03  0.12499838614E+03 0.  0.
          2    1    1    2  501    0 -0.14929906035E+02 -0.25677999069E+02 -0.75882058764E+02  0.81488333967E+02  0.00000000000E+00 0. -1.
          1    1    1    2  502    0  0.79519996683E+01 -0.37250011014E+02  0.11421004815E+04  0.11427354495E+04  0.00000000000E+00 0. -1.
         22    1    3    3    0    0 -0.12516458365E+02 -0.31160918571E+02  0.48302870043E+02  0.58828835027E+02  0.00000000000E+00 0. -1.
         22    1    3    3    0    0  0.19494364732E+02  0.94088928654E+02  0.37228699869E+03  0.38448714692E+03  0.00000000000E+00 0. -1.
</event>
<event>
 7    1  0.6255318E-006  0.1823969E+03  0.7818608E-02  0.1232263E+00
          2   -1    0    0  502    0  0.00000000000E+00  0.00000000000E+00  0.92140489021E+03  0.92140489021E+03  0.00000000000E+00 0. -1.
          1   -1    0    0  501    0 -0.00000000000E+00 -0.00000000000E+00 -0.24440355419E+03  0.24440355419E+03  0.00000000000E+00 0. -1.
         25    2    1    2    0    0 -0.14883905969E+03  0.15952010278E+03  0.15879435381E+03  0.29738997795E+03  0.12500169320E+03 0.  0.
          2    1    1    2  501    0  0.16259109447E+03 -0.72431568982E+02 -0.12608137336E+03  0.21812544303E+03  0.00000000000E+00 0. -1.
          1    1    1    2  502    0 -0.13752034783E+02 -0.87088533799E+02  0.64428835557E+03  0.65029302342E+03  0.00000000000E+00 0. -1.
         22    1    3    3    0    0 -0.12662059490E+03  0.54582458340E+02  0.12164906713E+03  0.18387635885E+03  0.00000000000E+00 0. -1.
         22    1    3    3    0    0 -0.22218464792E+02  0.10493764444E+03  0.37145286677E+02  0.11351361910E+03  0.00000000000E+00 0. -1.
</event>
<event>
 7    1  0.6255318E-006  0.4993978E+02  0.7818608E-02  0.1570624E+00
          2   -1    0    0  502    0  0.00000000000E+00  0.00000000000E+00  0.19814492388E+04  0.19814492388E+04  0.00000000000E+00 0. -1.
          1   -1    0    0  501    0 -0.00000000000E+00 -0.00000000000E+00 -0.25197154389E+03  0.25197154389E+03  0.00000000000E+00 0. -1.
         25    2    1    2    0    0  0.70918094270E+02 -0.11126730373E+01 -0.86454784660E+02  0.16772145745E+03  0.12500177343E+03 0.  0.
          2    1    1    2  501    0 -0.21078127387E+02  0.32813142753E+01 -0.12364939061E+03  0.12547599880E+03  0.00000000000E+00 0. -1.
          1    1    1    2  502    0 -0.49839966883E+02 -0.21686412380E+01  0.19395818702E+04  0.19402233265E+04  0.00000000000E+00 0. -1.
         22    1    3    3    0    0  0.87131961572E+01 -0.57882911855E+02 -0.45131879009E+02  0.73913718449E+02  0.00000000000E+00 0. -1.
         22    1    3    3    0    0  0.62204898113E+02  0.56770238817E+02 -0.41322905652E+02  0.93807738999E+02  0.00000000000E+00 0. -1.
</event>
<event>
 7    1  0.6255318E-006  0.9820260E+02  0.7818608E-02  0.1301695E+00
          2   -1    0    0  502    0  0.00000000000E+00  0.00000000000E+00  0.34756767273E+03  0.34756767273E+03  0.00000000000E+00 0. -1.
          1   -1    0    0  501    0 -0.00000000000E+00 -0.00000000000E+00 -0.22477578779E+03  0.22477578779E+03  0.00000000000E+00 0. -1.
         25    2    1    2    0    0  0.42896304851E+02  0.55292031112E+02  0.10147080180E+03  0.17555383527E+03  0.12500209513E+03 0.  0.
          2    1    1    2  501    0  0.27095075506E+02 -0.10057640617E+03 -0.16360085811E+03  0.19394586196E+03  0.00000000000E+00 0. -1.
          1    1    1    2  502    0 -0.69991380356E+02  0.45284375058E+02  0.18492194126E+03  0.20284376329E+03  0.00000000000E+00 0. -1.
         22    1    3    3    0    0  0.31825807315E+02 -0.36752130408E+01 -0.21599098193E+02  0.38638196708E+02  0.00000000000E+00 0. -1.
         22    1    3    3    0    0  0.11070497536E+02  0.58967244153E+02  0.12306989999E+03  0.13691563856E+03  0.00000000000E+00 0. -1.
</event>
<event>
 7    1  0.6255318E-006  0.1008732E+03  0.7818608E-02  0.1308998E+00
          2   -1    0    0  502    0  0.00000000000E+00  0.00000000000E+00  0.34165166536E+04  0.34165166536E+04  0.00000000000E+00 0. -1.
          1   -1    0    0  501    0 -0.00000000000E+00 -0.00000000000E+00 -0.15301996633E+04  0.15301996633E+04  0.00000000000E+00 0. -1.
         25    2    1    2    0    0 -0.55882541413E+02  0.85787811507E+02 -0.12412513540E+03  0.20375032278E+03  0.12499895103E+03 0.  0.
          2    1    1    2  501    0 -0.42489649348E+02 -0.62911453629E+02 -0.13644513496E+04  0.13665616367E+04  0.00000000000E+00 0. -1.
          1    1    1    2  502    0  0.98372190761E+02 -0.22876357879E+02  0.33748934753E+04  0.33764043575E+04  0.00000000000E+00 0. -1.
         22    1    3    3    0    0 -0.74496581928E+02  0.13089759547E+02 -0.99052481458E+02  0.12462935692E+03  0.00000000000E+00 0.  1.
         22    1    3    3    0    0  0.18614040515E+02  0.72698051961E+02 -0.25072653941E+02  0.79120965861E+02  0.00000000000E+00 0.  1.
</event>
<event>
 7    1  0.6255318E-006  0.1065028E+03  0.7818608E-02  0.1365389E+00
          2   -1    0    0  502    0  0.00000000000E+00  0.00000000000E+00  0.93156341247E+03  0.93156341247E+03  0.00000000000E+00 0. -1.
          1   -1    0    0  501    0 -0.00000000000E+00 -0.00000000000E+00 -0.31300486895E+03  0.31300486895E+03  0.00000000000E+00 0. -1.
         25    2    1    2    0    0 -0.44891826639E+01 -0.14340712608E+03 -0.22743051424E+02  0.19164306980E+03  0.12499625291E+03 0.  0.
          2    1    1    2  501    0 -0.17647636530E+02  0.40320729450E+02 -0.20013037023E+03  0.20491306788E+03  0.00000000000E+00 0. -1.
          1    1    1    2  502    0  0.22136819193E+02  0.10308639663E+03  0.84143196517E+03  0.84801214375E+03  0.00000000000E+00 0. -1.
         22    1    3    3    0    0 -0.35547178994E+02 -0.14852865818E+03  0.14634636985E+00  0.15272323220E+03  0.00000000000E+00 0.  1.
         22    1    3    3    0    0  0.31057996330E+02  0.51215321086E+01 -0.22889397794E+02  0.38919837596E+02  0.00000000000E+00 0.  1.
</event>
<event>
 7    1  0.6255318E-006  0.1560459E+03  0.7818608E-02  0.1201390E+00
          2   -1    0    0  502    0  0.00000000000E+00  0.00000000000E+00  0.38474508315E+03  0.38474508315E+03  0.00000000000E+00 0. -1.
          1   -1    0    0  501    0 -0.00000000000E+00 -0.00000000000E+00 -0.10797526373E+04  0.10797526373E+04  0.00000000000E+00 0. -1.
         25    2    1    2    0    0 -0.91072565609E+01  0.21339747596E+03 -0.12698767461E+03  0.27815497126E+03  0.12499157439E+03 0.  0.
          2    1    1    2  501    0 -0.99415287887E+02 -0.10245806312E+03 -0.85138053422E+03  0.86326697390E+03  0.00000000000E+00 0. -1.
          1    1    1    2  502    0  0.10852254445E+03 -0.11093941285E+03  0.28336065467E+03  0.32307577531E+03  0.00000000000E+00 0. -1.
         22    1    3    3    0    0  0.88118306511E+01 -0.13289648609E+02  0.30060696185E+01  0.16226508377E+02  0.00000000000E+00 0.  1.
         22    1    3    3    0    0 -0.17919087212E+02  0.22668712457E+03 -0.12999374423E+03  0.26192846289E+03  0.00000000000E+00 0.  1.
</event>
<event>
 7    1  0.6255318E-006  0.3306221E+02  0.7818608E-02  0.1572445E+00
          2   -1    0    0  502    0  0.00000000000E+00  0.00000000000E+00  0.31058941083E+03  0.31058941083E+03  0.00000000000E+00 0. -1.
          1   -1    0    0  501    0 -0.00000000000E+00 -0.00000000000E+00 -0.12936249969E+04  0.12936249969E+04  0.00000000000E+00 0. -1.
         25    2    1    2    0    0  0.14442070343E+02 -0.21377139316E+01 -0.72697431170E+02  0.14533820215E+03  0.12500053315E+03 0.  0.
          2    1    1    2  501    0 -0.86043479641E+01 -0.30673155742E+02 -0.11833796684E+04  0.11838083954E+04  0.00000000000E+00 0. -1.
          1    1    1    2  502    0 -0.58377223788E+01  0.32810869673E+02  0.27304151347E+03  0.27506781028E+03  0.00000000000E+00 0. -1.
         22    1    3    3    0    0 -0.45030086433E+02 -0.33968491417E+02 -0.20385284196E+02  0.59976052763E+02  0.00000000000E+00 0.  1.
         22    1    3    3    0    0  0.59472156776E+02  0.31830777485E+02 -0.52312146974E+02  0.85362149387E+02  0.00000000000E+00 0.  1.
</event>
<event>
 7    1  0.6255318E-006  0.5659075E+02  0.7818608E-02  0.1515902E+00
          2   -1    0    0  502    0  0.00000000000E+00  0.00000000000E+00  0.20750427295E+04  0.20750427295E+04  0.00000000000E+00 0. -1.
          1   -1    0    0  501    0 -0.00000000000E+00 -0.00000000000E+00 -0.85416704403E+02  0.85416704403E+02  0.00000000000E+00 0. -1.
         25    2    1    2    0    0 -0.45875954466E+02 -0.64089932190E+02  0.19440118194E+04  0.19496201880E+04  0.12499920273E+03 0.  0.
          2    1    1    2  501    0  0.42250010649E+02  0.37494852337E+02 -0.71253702134E+02  0.90928639160E+02  0.00000000000E+00 0. -1.
          1    1    1    2  502    0  0.36259438169E+01  0.26595079853E+02  0.11686790781E+03  0.11991060678E+03  0.00000000000E+00 0. -1.
         22    1    3    3    0    0 -0.64606680828E+02 -0.19916003603E+00  0.14091618888E+04  0.14106421558E+04  0.00000000000E+00 0. -1.
         22    1    3    3    0    0  0.18730726362E+02 -0.63890772154E+02  0.53484993066E+03  0.53897803221E+03  0.00000000000E+00 0. -1.
</event>
<event>
 7    1  0.6255318E-006  0.1053782E+03  0.7818608E-02  0.1364031E+00
          2   -1    0    0  502    0  0.00000000000E+00  0.00000000000E+00  0.16492336941E+04  0.16492336941E+04  0.00000000000E+00 0. -1.
          1   -1    0    0  501    0 -0.00000000000E+00 -0.00000000000E+00 -0.13756774276E+04  0.13756774276E+04  0.00000000000E+00 0. -1.
         25    2    1    2    0    0  0.15503398745E+02 -0.11309384790E+03  0.11778779386E+02  0.16968934889E+03  0.12500064670E+03 0.  0.
          2    1    1    2  501    0  0.27993367009E+02  0.10159795354E+03 -0.12942553437E+04  0.12985386661E+04  0.00000000000E+00 0. -1.
          1    1    1    2  502    0 -0.43496765754E+02  0.11495894357E+02  0.15560328308E+04  0.15566831067E+04  0.00000000000E+00 0. -1.
         22    1    3    3    0    0  0.61140596873E+01 -0.36123768243E+02  0.65712699654E+02  0.75236076810E+02  0.00000000000E+00 0.  1.
         22    1    3    3    0    0  0.93893390576E+01 -0.76970079658E+02 -0.53933920268E+02  0.94453272076E+02  0.00000000000E+00 0.  1.
</event>
<event>
 7    1  0.6255318E-006  0.4277591E+02  0.7818608E-02  0.1544726E+00
          2   -1    0    0  502    0  0.00000000000E+00  0.00000000000E+00  0.19927327147E+03  0.19927327147E+03  0.00000000000E+00 0. -1.
          1   -1    0    0  501    0 -0.00000000000E+00 -0.00000000000E+00 -0.11993668483E+03  0.11993668483E+03  0.00000000000E+00 0. -1.
         25    2    1    2    0    0 -0.58380792849E+00 -0.37851554951E+02  0.20815127311E+02  0.13225580590E+03  0.12500099050E+03 0.  0.
          2    1    1    2  501    0 -0.28852472870E+02  0.54488337518E+01 -0.56614897192E+02  0.63776183361E+02  0.00000000000E+00 0. -1.
          1    1    1    2  502    0  0.29436280798E+02  0.32402721200E+02  0.11513635653E+03  0.12317796704E+03  0.00000000000E+00 0. -1.
         22    1    3    3    0    0 -0.19618281629E+02  0.39572323432E+02  0.27851789325E+02  0.52216548378E+02  0.00000000000E+00 0.  1.
         22    1    3    3    0    0  0.19034473701E+02 -0.77423878384E+02 -0.70366620139E+01  0.80039257526E+02  0.00000000000E+00 0.  1.
</event>
<event>
 7    1  0.6255318E-006  0.9816688E+02  0.7818608E-02  0.1368247E+00
          2   -1    0    0  502    0  0.00000000000E+00  0.00000000000E+00  0.69489566617E+03  0.69489566617E+03  0.00000000000E+00 0. -1.
          1   -1    0    0  501    0 -0.00000000000E+00 -0.00000000000E+00 -0.67918472087E+03  0.67918472087E+03  0.00000000000E+00 0. -1.
         25    2    1    2    0    0  0.17079586490E+02 -0.11665150677E+03 -0.34773640422E+03  0.38787183021E+03  0.12499865417E+03 0.  0.
          2    1    1    2  501    0 -0.46818598081E+02  0.80736626461E+02 -0.30355496291E+03  0.31757833599E+03  0.00000000000E+00 0. -1.
          1    1    1    2  502    0  0.29739011591E+02  0.35914880308E+02  0.66700231243E+03  0.66863022084E+03  0.00000000000E+00 0. -1.
         22    1    3    3    0    0 -0.12072638774E+02 -0.26678787706E+02 -0.19094830265E+01  0.29345399058E+02  0.00000000000E+00 0. -1.
         22    1    3    3    0    0  0.29152225264E+02 -0.89972719062E+02 -0.34582692119E+03  0.35852643115E+03  0.00000000000E+00 0. -1.
</event>
<event>
 7    1  0.6255318E-006  0.8703611E+02  0.7818608E-02  0.1321201E+00
          2   -1    0    0  502    0  0.00000000000E+00  0.00000000000E+00  0.10754747280E+04  0.10754747280E+04  0.00000000000E+00 0. -1.
          1   -1    0    0  501    0 -0.00000000000E+00 -0.00000000000E+00 -0.16726693168E+03  0.16726693168E+03  0.00000000000E+00 0. -1.
         25    2    1    2    0    0 -0.14539109182E+03 -0.58842409730E+02  0.53084073930E+03  0.56746371357E+03  0.12498870729E+03 0.  0.
          2    1    1    2  501    0  0.85219963706E+02  0.79131182468E+01 -0.13338277358E+03  0.15848035822E+03  0.00000000000E+00 0. -1.
          1    1    1    2  502    0  0.60171128111E+02  0.50929291483E+02  0.51074983060E+03  0.51679758789E+03  0.00000000000E+00 0. -1.
         22    1    3    3    0    0 -0.62170166862E+02  0.27624621310E+02  0.29621796345E+03  0.30392981299E+03  0.00000000000E+00 0.  1.
         22    1    3    3    0    0 -0.83220924955E+02 -0.86467031040E+02  0.23462277585E+03  0.26353390058E+03  0.00000000000E+00 0.  1.
</event>
<event>
 7    1  0.6255318E-006  0.1277509E+03  0.7818608E-02  0.1371110E+00
          2   -1    0    0  502    0  0.00000000000E+00  0.00000000000E+00  0.68595931497E+03  0.68595931497E+03  0.00000000000E+00 0. -1.
          1   -1    0    0  501    0 -0.00000000000E+00 -0.00000000000E+00 -0.83897203133E+03  0.83897203133E+03  0.00000000000E+00 0. -1.
         25    2    1    2    0    0 -0.70874258589E+02 -0.12563075259E+03  0.38036577132E+03  0.42556754682E+03  0.12499348138E+03 0.  0.
          2    1    1    2  501    0  0.86126216666E+02  0.94138078057E+02 -0.81027793715E+03  0.82026217660E+03  0.00000000000E+00 0. -1.
          1    1    1    2  502    0 -0.15251958076E+02  0.31492674538E+02  0.27689944947E+03  0.27910162287E+03  0.00000000000E+00 0. -1.
         22    1    3    3    0    0 -0.10531793881E+03 -0.91823955339E+02  0.24764504202E+03  0.28434411167E+03  0.00000000000E+00 0. -1.
         22    1    3    3    0    0  0.34443680218E+02 -0.33806797256E+02  0.13272072931E+03  0.14122343515E+03  0.00000000000E+00 0. -1.
</event>
<event>
 7    1  0.6255318E-006  0.9911260E+02  0.7818608E-02  0.1355925E+00
          2   -1    0    0  502    0  0.00000000000E+00  0.00000000000E+00  0.48282873257E+03  0.48282873257E+03  0.00000000000E+00 0. -1.
          1   -1    0    0  501    0 -0.00000000000E+00 -0.00000000000E+00 -0.16888008865E+04  0.16888008865E+04  0.00000000000E+00 0. -1.
         25    2    1    2    0    0 -0.51209316438E+02  0.13316637907E+03  0.90439235731E+02  0.21014323923E+03  0.12500098811E+03 0.  0.
          2    1    1    2  501    0  0.30587360288E+02 -0.41066894141E+02 -0.16218399822E+04  0.16226481456E+04  0.00000000000E+00 0. -1.
          1    1    1    2  502    0  0.20621956150E+02 -0.92099484925E+02  0.32542859252E+03  0.33883823431E+03  0.00000000000E+00 0. -1.
         22    1    3    3    0    0 -0.57094819785E+02  0.12495164168E+01  0.20195333518E+02  0.60574179594E+02  0.00000000000E+00 0. -1.
         22    1    3    3    0    0  0.58855033474E+01  0.13191686265E+03  0.70243902213E+02  0.14956905963E+03  0.00000000000E+00 0. -1.
</event>
<event>
 7    1  0.6255318E-006  0.3601549E+02  0.7818608E-02  0.1614493E+00
          2   -1    0    0  502    0  0.00000000000E+00  0.00000000000E+00  0.79978068361E+03  0.79978068361E+03  0.00000000000E+00 0. -1.
          1   -1    0    0  501    0 -0.00000000000E+00 -0.00000000000E+00 -0.56795989602E+03  0.56795989602E+03  0.00000000000E+00 0. -1.
         25    2    1    2    0    0  0.27523052437E+01  0.31787870333E+02  0.27801839349E+03  0.30649323356E+03  0.12500332480E+03 0.  0.
          2    1    1    2  501    0 -0.24717541634E+02 -0.26224937814E+02 -0.55288266070E+03  0.55405590037E+03  0.00000000000E+00 0. -1.
          1    1    1    2  502    0  0.21965236390E+02 -0.55629325190E+01  0.50668505481E+03  0.50719144570E+03  0.00000000000E+00 0. -1.
         22    1    3    3    0    0  0.11089264641E+00  0.56085033707E+02  0.44220216468E+02  0.71421081254E+02  0.00000000000E+00 0. -1.
         22    1    3    3    0    0  0.26414125973E+01 -0.24297163374E+02  0.23379817702E+03  0.23507215230E+03  0.00000000000E+00 0. -1.
</event>
<event>
 7    1  0.6255318E-006  0.7557633E+02  0.7818608E-02  0.1420758E+00
          2   -1    0    0  502    0  0.00000000000E+00  0.00000000000E+00  0.33716120922E+03  0.33716120922E+03  0.00000000000E+00 0. -1.
          1   -1    0    0  501    0 -0.00000000000E+00 -0.00000000000E+00 -0.29273067855E+03  0.29273067855E+03  0.00000000000E+00 0. -1.
         25    2    1    2    0    0  0.83211204267E+02 -0.55175553412E+02  0.21365501276E+03  0.26691140102E+03  0.12499914124E+03 0.  0.
          2    1    1    2  501    0 -0.20649266783E+02  0.34051887844E+02 -0.25311005697E+03  0.25622377763E+03  0.00000000000E+00 0. -1.
          1    1    1    2  502    0 -0.62561937484E+02  0.21123665568E+02  0.83885574875E+02  0.10675670911E+03  0.00000000000E+00 0. -1.
         22    1    3    3    0    0  0.44606003077E+02 -0.90090753417E+02  0.99473524832E+02  0.14142496775E+03  0.00000000000E+00 0. -1.
         22    1    3    3    0    0  0.38605201190E+02  0.34915200005E+02  0.11418148792E+03  0.12548643327E+03  0.00000000000E+00 0. -1.
</event>
<event>
 7    1  0.6255318E-006  0.1981089E+03  0.7818608E-02  0.1364803E+00
          2   -1    0    0  502    0  0.00000000000E+00  0.00000000000E+00  0.41911056034E+03  0.41911056034E+03  0.00000000000E+00 0. -1.
          1   -1    0    0  501    0 -0.00000000000E+00 -0.00000000000E+00 -0.32050568338E+03  0.32050568338E+03  0.00000000000E+00 0. -1.
         25    2    1    2    0    0 -0.17660171589E+03  0.55439663522E+02 -0.12990741992E+03  0.25838309347E+03  0.12499665153E+03 0.  0.
          2    1    1    2  501    0 -0.77170647662E+01  0.22490434236E+02 -0.96591669622E+02  0.99475239940E+02  0.00000000000E+00 0. -1.
          1    1    1    2  502    0  0.18431878066E+03 -0.77930097758E+02  0.32510396651E+03  0.38175791031E+03  0.00000000000E+00 0. -1.
         22    1    3    3    0    0 -0.31568419100E+02  0.55083603615E+02  0.28068139626E+00  0.63488953793E+02  0.00000000000E+00 0. -1.
         22    1    3    3    0    0 -0.14503329679E+03  0.35605990689E+00 -0.13018810132E+03  0.19489413968E+03  0.00000000000E+00 0. -1.
</event>
<event>
 7    1  0.6255318E-006  0.3488752E+02  0.7818608E-02  0.1550315E+00
          2   -1    0    0  502    0  0.00000000000E+00  0.00000000000E+00  0.37457817292E+03  0.37457817292E+03  0.00000000000E+00 0. -1.
          1   -1    0    0  501    0 -0.00000000000E+00 -0.00000000000E+00 -0.18609721173E+04  0.18609721173E+04  0.00000000000E+00 0. -1.
         25    2    1    2    0    0  0.36257646077E+00  0.45145014441E+01  0.13302209079E+03  0.18259619823E+03  0.12500393108E+03 0.  0.
          2    1    1    2  501    0 -0.29840224350E+02  0.17764853247E+02 -0.18344449209E+04  0.18347736091E+04  0.00000000000E+00 0. -1.
          1    1    1    2  502    0  0.29477647889E+02 -0.22279354691E+02  0.21502888576E+03  0.21818048281E+03  0.00000000000E+00 0. -1.
         22    1    3    3    0    0 -0.46863494240E+02 -0.22377486451E+02  0.17282202462E+02  0.54732198149E+02  0.00000000000E+00 0.  1.
         22    1    3    3    0    0  0.47226070701E+02  0.26891987895E+02  0.11573988833E+03  0.12786400009E+03  0.00000000000E+00 0.  1.
</event>
<event>
 7    1  0.6255318E-006  0.6114333E+02  0.7818608E-02  0.1437137E+00
          2   -1    0    0  502    0  0.00000000000E+00  0.00000000000E+00  0.13708013730E+04  0.13708013730E+04  0.00000000000E+00 0. -1.
          1   -1    0    0  501    0 -0.00000000000E+00 -0.00000000000E+00 -0.57115587171E+03  0.57115587171E+03  0.00000000000E+00 0. -1.
         25    2    1    2    0    0 -0.24860530110E+02 -0.56035760827E+02  0.61772140883E+03  0.63321600648E+03  0.12499887795E+03 0.  0.
          2    1    1    2  501    0 -0.18548231398E+02  0.58304612382E+02 -0.56111043508E+03  0.56443634280E+03  0.00000000000E+00 0. -1.
          1    1    1    2  502    0  0.43408761508E+02 -0.22688515545E+01  0.74303452749E+03  0.74430489539E+03  0.00000000000E+00 0. -1.
         22    1    3    3    0    0  0.18636410107E+02 -0.84934176093E+02  0.39373658099E+03  0.40322403854E+03  0.00000000000E+00 0.  1.
         22    1    3    3    0    0 -0.43496940216E+02  0.28898415266E+02  0.22398482784E+03  0.22999196794E+03  0.00000000000E+00 0.  1.
</event>
<event>
 7    1  0.6255318E-006  0.4526239E+02  0.7818608E-02  0.1561722E+00
          2   -1    0    0  502    0  0.00000000000E+00  0.00000000000E+00  0.34708671558E+04  0.34708671558E+04  0.00000000000E+00 0. -1.
          1   -1    0    0  501    0 -0.00000000000E+00 -0.00000000000E+00 -0.19742954378E+03  0.19742954378E+03  0.00000000000E+00 0. -1.
         25    2    1    2    0    0  0.53270092643E+02  0.15407811907E+02  0.28536004319E+04  0.28568751168E+04  0.12499961835E+03 0.  0.
          2    1    1    2  501    0 -0.44561624421E+02  0.79102655139E+01 -0.19292073255E+03  0.19815831983E+03  0.00000000000E+00 0. -1.
          1    1    1    2  502    0 -0.87084682225E+01 -0.23318077421E+02  0.61275791271E+03  0.61326326300E+03  0.00000000000E+00 0. -1.
         22    1    3    3    0    0 -0.60203588621E+01  0.23629146044E+02  0.22854760927E+04  0.22856061672E+04  0.00000000000E+00 0.  1.
         22    1    3    3    0    0  0.59290451506E+02 -0.82213341373E+01  0.56812433925E+03  0.57126894964E+03  0.00000000000E+00 0.  1.
</event>
<event>
 7    1  0.6255318E-006  0.1961986E+03  0.7818608E-02  0.1331964E+00
          2   -1    0    0  502    0  0.00000000000E+00  0.00000000000E+00  0.10679022723E+04  0.10679022723E+04  0.00000000000E+00 0. -1.
          1   -1    0    0  501    0 -0.00000000000E+00 -0.00000000000E+00 -0.82826731726E+03  0.82826731726E+03  0.00000000000E+00 0. -1.
         25    2    1    2    0    0  0.21438891989E+03 -0.67429459054E+02  0.21204523426E+03  0.33331043089E+03  0.12499328400E+03 0.  0.
          2    1    1    2  501    0 -0.18875556321E+03  0.48617836609E+02 -0.75493348115E+03  0.77969027032E+03  0.00000000000E+00 0. -1.
          1    1    1    2  502    0 -0.25633356679E+02  0.18811622445E+02  0.78252320194E+03  0.78316888835E+03  0.00000000000E+00 0. -1.
         22    1    3    3    0    0  0.21913370507E+03 -0.61419758837E+02  0.22386349857E+03  0.31922849727E+03  0.00000000000E+00 0. -1.
         22    1    3    3    0    0 -0.47447851863E+01 -0.60097002172E+01 -0.11818264310E+02  0.14081933620E+02  0.00000000000E+00 0. -1.
</event>
<event>
 7    1  0.6255318E-006  0.7953292E+02  0.7818608E-02  0.1363775E+00
          2   -1    0    0  502    0  0.00000000000E+00  0.00000000000E+00  0.83257167987E+02  0.83257167987E+02  0.00000000000E+00 0. -1.
          1   -1    0    0  501    0 -0.00000000000E+00 -0.00000000000E+00 -0.10362469446E+04  0.10362469446E+04  0.00000000000E+00 0. -1.
         25    2    1    2    0    0 -0.34158880657E+02 -0.48298355162E+02 -0.69977345808E+03  0.71330821517E+03  0.12500462773E+03 0.  0.
          2    1    1    2  501    0  0.31002289350E+02  0.10795275833E+03 -0.30632318998E+03  0.32626497926E+03  0.00000000000E+00 0. -1.
          1    1    1    2  502    0  0.31565913069E+01 -0.59654403165E+02  0.53106871433E+02  0.79930918168E+02  0.00000000000E+00 0. -1.
         22    1    3    3    0    0 -0.35568235110E+02  0.32253530907E+02 -0.14568310942E+03  0.15339151859E+03  0.00000000000E+00 0.  1.
         22    1    3    3    0    0  0.14093544530E+01 -0.80551886069E+02 -0.55409034866E+03  0.55991669658E+03  0.00000000000E+00 0.  1.
</event>
<event>
 7    1  0.6255318E-006  0.1232416E+03  0.7818608E-02  0.1289536E+00
          2   -1    0    0  502    0  0.00000000000E+00  0.00000000000E+00  0.22358059298E+04  0.22358059298E+04  0.00000000000E+00 0. -1.
          1   -1    0    0  501    0 -0.00000000000E+00 -0.00000000000E+00 -0.18525672496E+03  0.18525672496E+03  0.00000000000E+00 0. -1.
         25    2    1    2    0    0 -0.12569697950E+02 -0.64788272200E+02  0.78904908389E+02  0.16188273565E+03  0.12499807204E+03 0.  0.
          2    1    1    2  501    0  0.10537778372E+02  0.13912373570E+03 -0.10909597928E+03  0.17711123991E+03  0.00000000000E+00 0. -1.
          1    1    1    2  502    0  0.20319195773E+01 -0.74335463504E+02  0.20807402757E+04  0.20820686792E+04  0.00000000000E+00 0. -1.
         22    1    3    3    0    0  0.15832662383E+02 -0.25739005764E+02 -0.30106204112E+02  0.42656220436E+02  0.00000000000E+00 0.  1.
         22    1    3    3    0    0 -0.28402360333E+02 -0.39049266436E+02  0.10901111250E+03  0.11922651521E+03  0.00000000000E+00 0.  1.
</event>
<event>
 7    1  0.6255318E-006  0.3581484E+02  0.7818608E-02  0.1568252E+00
          2   -1    0    0  502    0  0.00000000000E+00  0.00000000000E+00  0.45655551530E+02  0.45655551530E+02  0.00000000000E+00 0. -1.
          1   -1    0    0  501    0 -0.00000000000E+00 -0.00000000000E+00 -0.37053583724E+03  0.37053583724E+03  0.00000000000E+00 0. -1.
         25    2    1    2    0    0 -0.15363152303E+02  0.12688329419E+00 -0.25902638539E+03  0.28802048461E+03  0.12500035472E+03 0.  0.
          2    1    1    2  501    0  0.40859160650E+02  0.16040532970E+02 -0.82679326426E+02  0.93608977803E+02  0.00000000000E+00 0. -1.
          1    1    1    2  502    0 -0.25496008348E+02 -0.16167416264E+02  0.16825426100E+02  0.34561926361E+02  0.00000000000E+00 0. -1.
         22    1    3    3    0    0 -0.23608217724E+02 -0.40720060105E+02 -0.31329911745E+02  0.56542325819E+02  0.00000000000E+00 0. -1.
         22    1    3    3    0    0  0.82450654215E+01  0.40846943399E+02 -0.22769647364E+03  0.23147815879E+03  0.00000000000E+00 0. -1.
</event>
<event>
 7    1  0.6255318E-006  0.3393379E+02  0.7818608E-02  0.1578533E+00
          2   -1    0    0  502    0  0.00000000000E+00  0.00000000000E+00  0.10442408704E+04  0.10442408704E+04  0.00000000000E+00 0. -1.
          1   -1    0    0  501    0 -0.00000000000E+00 -0.00000000000E+00 -0.42136847106E+03  0.42136847106E+03  0.00000000000E+00 0. -1.
         25    2    1    2    0    0  0.55710966721E+02  0.15663901062E+02  0.61678693984E+02  0.15092477468E+03  0.12499982684E+03 0.  0.
          2    1    1    2  501    0 -0.29372650782E+02  0.55221040210E+01 -0.37584748121E+03  0.37703391807E+03  0.00000000000E+00 0. -1.
          1    1    1    2  502    0 -0.26338315939E+02 -0.21186005083E+02  0.93704118660E+03  0.93765064874E+03  0.00000000000E+00 0. -1.
         22    1    3    3    0    0 -0.20554006530E+02 -0.28696564480E+02  0.51041160709E+02  0.62057715748E+02  0.00000000000E+00 0. -1.
         22    1    3    3    0    0  0.76264973252E+02  0.44360465541E+02  0.10637533274E+02  0.88867058927E+02  0.00000000000E+00 0. -1.
</event>
<event>
 7    1  0.6255318E-006  0.1043550E+03  0.7818608E-02  0.1310851E+00
          2   -1    0    0  502    0  0.00000000000E+00  0.00000000000E+00  0.10501818088E+04  0.10501818088E+04  0.00000000000E+00 0. -1.
          1   -1    0    0  501    0 -0.00000000000E+00 -0.00000000000E+00 -0.17244144175E+03  0.17244144175E+03  0.00000000000E+00 0. -1.
         25    2    1    2    0    0 -0.67096844040E+02  0.22012988193E+02  0.48747690548E+03  0.50818014901E+03  0.12500708917E+03 0.  0.
          2    1    1    2  501    0  0.52024655379E+02 -0.92580751032E+02 -0.14199570777E+03  0.17731480833E+03  0.00000000000E+00 0. -1.
          1    1    1    2  502    0  0.15072188661E+02  0.70567762839E+02  0.53225916930E+03  0.53712829318E+03  0.00000000000E+00 0. -1.
         22    1    3    3    0    0 -0.80520559409E+02 -0.32883269833E+02  0.28695622258E+03  0.29984786742E+03  0.00000000000E+00 0.  1.
         22    1    3    3    0    0  0.13423715369E+02  0.54896258026E+02  0.20052068290E+03  0.20833228159E+03  0.00000000000E+00 0.  1.
</event>
<event>
 7    1  0.6255318E-006  0.3361660E+02  0.7818608E-02  0.1603644E+00
          2   -1    0    0  502    0  0.00000000000E+00  0.00000000000E+00  0.25559165862E+03  0.25559165862E+03  0.00000000000E+00 0. -1.
          1   -1    0    0  501    0 -0.00000000000E+00 -0.00000000000E+00 -0.12077176589E+03  0.12077176589E+03  0.00000000000E+00 0. -1.
         25    2    1    2    0    0  0.31382553659E+02 -0.42907135623E+02 -0.15014048901E+02  0.13666228631E+03  0.12500108749E+03 0.  0.
          2    1    1    2  501    0 -0.28270154966E+01  0.25738556713E+02 -0.39624781153E+02  0.47334856076E+02  0.00000000000E+00 0. -1.
          1    1    1    2  502    0 -0.28555538162E+02  0.17168578910E+02  0.18945872278E+03  0.19236628213E+03  0.00000000000E+00 0. -1.
         22    1    3    3    0    0  0.42590351400E+02 -0.29957120688E+02 -0.65311938747E+02  0.83528536771E+02  0.00000000000E+00 0.  1.
         22    1    3    3    0    0 -0.11207797742E+02 -0.12950014936E+02  0.50297889846E+02  0.53133749539E+02  0.00000000000E+00 0.  1.
</event>
<event>
 7    1  0.6255318E-006  0.5654677E+02  0.7818608E-02  0.1518689E+00
          2   -1    0    0  502    0  0.00000000000E+00  0.00000000000E+00  0.64614508918E+03  0.64614508918E+03  0.00000000000E+00 0. -1.
          1   -1    0    0  501    0 -0.00000000000E+00 -0.00000000000E+00 -0.53572105980E+03  0.53572105980E+03  0.00000000000E+00 0. -1.
         25    2    1    2    0    0 -0.34136842528E+02 -0.13487515841E+02  0.23968176517E+03  0.27280014441E+03  0.12500133254E+03 0.  0.
          2    1    1    2  501    0 -0.25075965448E+02  0.81406082903E+01 -0.51655731609E+03  0.51722967273E+03  0.00000000000E+00 0. -1.
          1    1    1    2  502    0  0.59212807975E+02  0.53469075504E+01  0.38729958030E+03  0.39183633184E+03  0.00000000000E+00 0. -1.
         22    1    3    3    0    0 -0.50644482061E+02 -0.60925774497E+02  0.16128017466E+03  0.17968892092E+03  0.00000000000E+00 0. -1.
         22    1    3    3    0    0  0.16507639534E+02  0.47438258656E+02  0.78401590503E+02  0.93111223495E+02  0.00000000000E+00 0. -1.
</event>
<event>
 7    1  0.6255318E-006  0.9777238E+02  0.7818608E-02  0.1301908E+00
          2   -1    0    0  502    0  0.00000000000E+00  0.00000000000E+00  0.91725419842E+03  0.91725419842E+03  0.00000000000E+00 0. -1.
          1   -1    0    0  501    0 -0.00000000000E+00 -0.00000000000E+00 -0.56650295109E+03  0.56650295109E+03  0.00000000000E+00 0. -1.
         25    2    1    2    0    0  0.10890244090E+03  0.29579395523E+02 -0.26710368951E+03  0.31575987932E+03  0.12500095266E+03 0.  0.
          2    1    1    2  501    0 -0.49579314202E+02 -0.88435796924E+02 -0.26368544572E+03  0.28250488998E+03  0.00000000000E+00 0. -1.
          1    1    1    2  502    0 -0.59323126698E+02  0.58856401401E+02  0.88154038256E+03  0.88549238022E+03  0.00000000000E+00 0. -1.
         22    1    3    3    0    0 -0.33509304499E+01  0.18781749793E+02 -0.15699016294E+03  0.15814516787E+03  0.00000000000E+00 0. -1.
         22    1    3    3    0    0  0.11225337135E+03  0.10797645731E+02 -0.11011352657E+03  0.15761471145E+03  0.00000000000E+00 0. -1.
</event>
<event>
 7    1  0.6255318E-006  0.1302962E+03  0.7818608E-02  0.1399593E+00
          2   -1    0    0  502    0  0.00000000000E+00  0.00000000000E+00  0.31269721386E+03  0.31269721386E+03  0.00000000000E+00 0. -1.
          1   -1    0    0  501    0 -0.00000000000E+00 -0.00000000000E+00 -0.12714774309E+03  0.12714774309E+03  0.00000000000E+00 0. -1.
         25    2    1    2    0    0  0.11504814635E+03 -0.34517461811E+02  0.13812936931E+03  0.22165837187E+03  0.12500072002E+03 0.  0.
          2    1    1    2  501    0  0.12203430920E+02 -0.24360312964E+02 -0.43318389584E+02  0.51174519539E+02  0.00000000000E+00 0. -1.
          1    1    1    2  502    0 -0.12725157727E+03  0.58877774775E+02  0.90738491053E+02  0.16701206555E+03  0.00000000000E+00 0. -1.
         22    1    3    3    0    0  0.13152497665E+03 -0.55750557296E+02  0.97537642241E+02  0.17297553519E+03  0.00000000000E+00 0.  1.
         22    1    3    3    0    0 -0.16476830301E+02  0.21233095485E+02  0.40591727064E+02  0.48682836675E+02  0.00000000000E+00 0.  1.
</event>
<event>
 7    1  0.6255318E-006  0.5682460E+02  0.7818608E-02  0.1422790E+00
          2   -1    0    0  502    0  0.00000000000E+00  0.00000000000E+00  0.24821597518E+03  0.24821597518E+03  0.00000000000E+00 0. -1.
          1   -1    0    0  501    0 -0.00000000000E+00 -0.00000000000E+00 -0.26386225839E+03  0.26386225839E+03  0.00000000000E+00 0. -1.
         25    2    1    2    0    0 -0.31486405991E+02  0.43045006071E+02 -0.10674893670E+03  0.17282619807E+03  0.12501717060E+03 0.  0.
          2    1    1    2  501    0 -0.18037966551E+02 -0.59370589730E+02 -0.11282535509E+03  0.12876255633E+03  0.00000000000E+00 0. -1.
          1    1    1    2  502    0  0.49524372542E+02  0.16325583659E+02  0.20392800858E+03  0.21048947917E+03  0.00000000000E+00 0. -1.
         22    1    3    3    0    0 -0.15479110060E+02  0.80268084056E+02 -0.31971899750E+02  0.87776822339E+02  0.00000000000E+00 0.  1.
         22    1    3    3    0    0 -0.16007295932E+02 -0.37223077985E+02 -0.74777036952E+02  0.85049375735E+02  0.00000000000E+00 0.  1.
</event>
<event>
 7    1  0.6255318E-006  0.5203485E+02  0.7818608E-02  0.1446715E+00
          2   -1    0    0  502    0  0.00000000000E+00  0.00000000000E+00  0.16232664051E+04  0.16232664051E+04  0.00000000000E+00 0. -1.
          1   -1    0    0  501    0 -0.00000000000E+00 -0.00000000000E+00 -0.17620441346E+03  0.17620441346E+03  0.00000000000E+00 0. -1.
         25    2    1    2    0    0  0.21974876315E+02 -0.89848142868E+02  0.35915645345E+02  0.15959547655E+03  0.12500079435E+03 0.  0.
          2    1    1    2  501    0 -0.26348606976E+02  0.42491428193E+02 -0.10851018660E+03  0.11947481389E+03  0.00000000000E+00 0. -1.
          1    1    1    2  502    0  0.43737306606E+01  0.47356714675E+02  0.15196565329E+04  0.15204005282E+04  0.00000000000E+00 0. -1.
         22    1    3    3    0    0  0.42136796373E+02  0.76379335962E+01  0.41840048637E+02  0.59870170437E+02  0.00000000000E+00 0.  1.
         22    1    3    3    0    0 -0.20161920058E+02 -0.97486076464E+02 -0.59244032914E+01  0.99725306112E+02  0.00000000000E+00 0.  1.
</event>
<event>
 7    1  0.6255318E-006  0.8324103E+02  0.7818608E-02  0.1335569E+00
          2   -1    0    0  502    0  0.00000000000E+00  0.00000000000E+00  0.27312269597E+04  0.27312269597E+04  0.00000000000E+00 0. -1.
          1   -1    0    0  501    0 -0.00000000000E+00 -0.00000000000E+00 -0.72549786624E+03  0.72549786624E+03  0.00000000000E+00 0. -1.
         25    2    1    2    0    0 -0.17537172130E+02  0.11927571661E+02  0.41471243376E+03  0.43365557729E+03  0.12498374947E+03 0.  0.
          2    1    1    2  501    0 -0.71681538527E+02 -0.11613274544E+02 -0.71331969545E+03  0.71700634517E+03  0.00000000000E+00 0. -1.
          1    1    1    2  502    0  0.89218710657E+02 -0.31429711725E+00  0.23043363552E+04  0.23060629035E+04  0.00000000000E+00 0. -1.
         22    1    3    3    0    0  0.17364984536E+02 -0.21795701278E+01  0.38577943092E+03  0.38617620659E+03  0.00000000000E+00 0.  1.
         22    1    3    3    0    0 -0.34902156666E+02  0.14107141789E+02  0.28933002842E+02  0.47479370708E+02  0.00000000000E+00 0.  1.
</event>
<event>
 7    1  0.6255318E-006  0.1115606E+03  0.7818608E-02  0.1358056E+00
          2   -1    0    0  502    0  0.00000000000E+00  0.00000000000E+00  0.13028203223E+04  0.13028203223E+04  0.00000000000E+00 0. -1.
          1   -1    0    0  501    0 -0.00000000000E+00 -0.00000000000E+00 -0.26506106854E+03  0.26506106854E+03  0.00000000000E+00 0. -1.
         25    2    1    2    0    0 -0.40462939005E+02  0.12200824511E+03  0.25889995897E+02  0.18115887328E+03  0.12499993669E+03 0.  0.
          2    1    1    2  501    0  0.43355242777E+02 -0.10805961382E+02 -0.18214109753E+03  0.18754152950E+03  0.00000000000E+00 0. -1.
          1    1    1    2  502    0 -0.28923037714E+01 -0.11120228373E+03  0.11940103554E+04  0.11991809881E+04  0.00000000000E+00 0. -1.
         22    1    3    3    0    0 -0.55329766222E+02  0.13894315999E+02 -0.23085688500E+02  0.61541726176E+02  0.00000000000E+00 0.  1.
         22    1    3    3    0    0  0.14866827217E+02  0.10811392911E+03  0.48975684397E+02  0.11961714711E+03  0.00000000000E+00 0.  1.
</event>
<event>
 7    1  0.6255318E-006  0.3787911E+02  0.7818608E-02  0.1526576E+00
          2   -1    0    0  502    0  0.00000000000E+00  0.00000000000E+00  0.23836213504E+03  0.23836213504E+03  0.00000000000E+00 0. -1.
          1   -1    0    0  501    0 -0.00000000000E+00 -0.00000000000E+00 -0.23241767687E+03  0.23241767687E+03  0.00000000000E+00 0. -1.
         25    2    1    2    0    0  0.27004016447E+02  0.36171975401E+01 -0.91470910851E+02  0.15727357366E+03  0.12500299363E+03 0.  0.
          2    1    1    2  501    0 -0.16899470334E+02  0.33299320418E+02 -0.10295248698E+03  0.10951553046E+03  0.00000000000E+00 0. -1.
          1    1    1    2  502    0 -0.10104546112E+02 -0.36916517958E+02  0.20036785599E+03  0.20399070779E+03  0.00000000000E+00 0. -1.
         22    1    3    3    0    0  0.71939296634E+02 -0.13993165126E+02 -0.78297029788E+02  0.10724502760E+03  0.00000000000E+00 0.  1.
         22    1    3    3    0    0 -0.44935280187E+02  0.17610362666E+02 -0.13173881063E+02  0.50028546061E+02  0.00000000000E+00 0.  1.
</event>
<event>
 7    1  0.6255318E-006  0.3826886E+02  0.7818608E-02  0.1581514E+00
          2   -1    0    0  502    0  0.00000000000E+00  0.00000000000E+00  0.91190781748E+03  0.91190781748E+03  0.00000000000E+00 0. -1.
          1   -1    0    0  501    0 -0.00000000000E+00 -0.00000000000E+00 -0.10155421458E+03  0.10155421458E+03  0.00000000000E+00 0. -1.
         25    2    1    2    0    0  0.27242724496E+02 -0.38736612756E+02  0.53743785654E+03  0.55381407791E+03  0.12501156764E+03 0.  0.
          2    1    1    2  501    0 -0.12291497520E+01  0.38239106530E+02 -0.88959975291E+02  0.96838098293E+02  0.00000000000E+00 0. -1.
          1    1    1    2  502    0 -0.26013574744E+02  0.49750622568E+00  0.36187572166E+03  0.36280985586E+03  0.00000000000E+00 0. -1.
         22    1    3    3    0    0 -0.49492442278E+01  0.36112539797E+02  0.31165806706E+03  0.31378234704E+03  0.00000000000E+00 0.  1.
         22    1    3    3    0    0  0.32191968724E+02 -0.74849152553E+02  0.22577978948E+03  0.24003173087E+03  0.00000000000E+00 0.  1.
</event>
<event>
 7    1  0.6255318E-006  0.8545694E+02  0.7818608E-02  0.1369219E+00
          2   -1    0    0  502    0  0.00000000000E+00  0.00000000000E+00  0.39698563174E+03  0.39698563174E+03  0.00000000000E+00 0. -1.
          1   -1    0    0  501    0 -0.00000000000E+00 -0.00000000000E+00 -0.18820493701E+04  0.18820493701E+04  0.00000000000E+00 0. -1.
         25    2    1    2    0    0 -0.22717128919E+02  0.13447723029E+03 -0.56783800781E+03  0.59721515659E+03  0.12500298689E+03 0.  0.
          2    1    1    2  501    0 -0.20009860942E+01 -0.53096611651E+02 -0.12942404357E+04  0.12953306758E+04  0.00000000000E+00 0. -1.
          1    1    1    2  502    0  0.24718115013E+02 -0.81380618643E+02  0.37701470512E+03  0.38648916954E+03  0.00000000000E+00 0. -1.
         22    1    3    3    0    0  0.49988386177E+02  0.37050620592E+02 -0.16107735761E+03  0.17267745184E+03  0.00000000000E+00 0.  1.
         22    1    3    3    0    0 -0.72705515096E+02  0.97426609702E+02 -0.40676065020E+03  0.42453770475E+03  0.00000000000E+00 0.  1.
</event>
<event>
 7    1  0.6255318E-006  0.8189679E+02  0.7818608E-02  0.1326125E+00
          2   -1    0    0  502    0  0.00000000000E+00  0.00000000000E+00  0.49883871332E+03  0.49883871332E+03  0.00000000000E+00 0. -1.
          1   -1    0    0  501    0 -0.00000000000E+00 -0.00000000000E+00 -0.24410209332E+04  0.24410209332E+04  0.00000000000E+00 0. -1.
         25    2    1    2    0    0 -0.10344272546E+03  0.52903911435E+01 -0.27111717028E+03  0.31600421179E+03  0.12500302461E+03 0.  0.
          2    1    1    2  501    0  0.50226231997E+02 -0.65281094268E+02 -0.21432888183E+04  0.21448709178E+04  0.00000000000E+00 0. -1.
          1    1    1    2  502    0  0.53216493462E+02  0.59990703125E+02  0.47222376872E+03  0.47898451685E+03  0.00000000000E+00 0. -1.
         22    1    3    3    0    0 -0.85672102831E+02  0.73259440738E+01 -0.61716380865E+02  0.10584087267E+03  0.00000000000E+00 0.  1.
         22    1    3    3    0    0 -0.17770622628E+02 -0.20355529304E+01 -0.20940078941E+03  0.21016333912E+03  0.00000000000E+00 0.  1.
</event>
<event>
 7    1  0.6255318E-006  0.7532311E+02  0.7818608E-02  0.1465848E+00
          2   -1    0    0  502    0  0.00000000000E+00  0.00000000000E+00  0.71278828296E+03  0.71278828296E+03  0.00000000000E+00 0. -1.
          1   -1    0    0  501    0 -0.00000000000E+00 -0.00000000000E+00 -0.73873778087E+02  0.73873778087E+02  0.00000000000E+00 0. -1.
         25    2    1    2    0    0  0.46681167898E+01  0.84124405802E+02  0.32085914713E+03  0.35450592567E+03  0.12500060828E+03 0.  0.
          2    1    1    2  501    0  0.21176138991E+02 -0.71945172106E+02 -0.31566114309E+02  0.81369258473E+02  0.00000000000E+00 0. -1.
          1    1    1    2  502    0 -0.25844255781E+02 -0.12179233696E+02  0.34962147206E+03  0.35078687691E+03  0.00000000000E+00 0. -1.
         22    1    3    3    0    0 -0.85806130547E+01  0.35677103328E+02  0.29636026578E+03  0.29862332420E+03  0.00000000000E+00 0.  1.
         22    1    3    3    0    0  0.13248729844E+02  0.48447302474E+02  0.24498881349E+02  0.55882601468E+02  0.00000000000E+00 0.  1.
</event>
<event>
 7    1  0.6255318E-006  0.1584720E+03  0.7818608E-02  0.1360780E+00
          2   -1    0    0  502    0  0.00000000000E+00  0.00000000000E+00  0.26094882503E+04  0.26094882503E+04  0.00000000000E+00 0. -1.
          1   -1    0    0  501    0 -0.00000000000E+00 -0.00000000000E+00 -0.13674888663E+04  0.13674888663E+04  0.00000000000E+00 0. -1.
         25    2    1    2    0    0 -0.46132533631E+02 -0.13562871414E+03  0.11816288349E+04  0.11968271393E+04  0.12500055668E+03 0.  0.
          2    1    1    2  501    0  0.95031505551E+01 -0.29236654049E+02 -0.13546940977E+04  0.13550428739E+04  0.00000000000E+00 0. -1.
          1    1    1    2  502    0  0.36629383076E+02  0.16486536819E+03  0.14150646468E+04  0.14251071034E+04  0.00000000000E+00 0. -1.
         22    1    3    3    0    0 -0.66429752703E+02 -0.68341373867E+02  0.36704390251E+03  0.37921587756E+03  0.00000000000E+00 0. -1.
         22    1    3    3    0    0  0.20297219072E+02 -0.67287340273E+02  0.81458493239E+03  0.81761126175E+03  0.00000000000E+00 0. -1.
</event>
<event>
 7    1  0.6255318E-006  0.4520413E+02  0.7818608E-02  0.1510468E+00
          2   -1    0    0  502    0  0.00000000000E+00  0.00000000000E+00  0.65303387905E+03  0.65303387905E+03  0.00000000000E+00 0. -1.
          1   -1    0    0  501    0 -0.00000000000E+00 -0.00000000000E+00 -0.98675397536E+03  0.98675397536E+03  0.00000000000E+00 0. -1.
         25    2    1    2    0    0 -0.13305099872E+02 -0.10405298942E+02  0.19874733923E+02  0.12768910599E+03  0.12499682720E+03 0.  0.
          2    1    1    2  501    0  0.47373593239E+01 -0.34533748730E+02 -0.93161705534E+03  0.93226893125E+03  0.00000000000E+00 0. -1.
          1    1    1    2  502    0  0.85677405477E+01  0.44939047672E+02  0.57802222509E+03  0.57982981718E+03  0.00000000000E+00 0. -1.
         22    1    3    3    0    0 -0.17249073535E+02 -0.51448114187E+02 -0.30772152234E+02  0.62380801088E+02  0.00000000000E+00 0. -1.
         22    1    3    3    0    0  0.39439736633E+01  0.41042815246E+02  0.50646886157E+02  0.65308304900E+02  0.00000000000E+00 0. -1.
</event>
<event>
 7    1  0.6255318E-006  0.7243702E+02  0.7818608E-02  0.1432455E+00
          2   -1    0    0  502    0  0.00000000000E+00  0.00000000000E+00  0.45121461242E+03  0.45121461242E+03  0.00000000000E+00 0. -1.
          1   -1    0    0  501    0 -0.00000000000E+00 -0.00000000000E+00 -0.17722971422E+04  0.17722971422E+04  0.00000000000E+00 0. -1.
         25    2    1    2    0    0  0.51708826623E+02 -0.53095004036E+02 -0.33541747238E+03  0.36554421071E+03  0.12499922799E+03 0.  0.
          2    1    1    2  501    0 -0.70155055942E+02  0.19864106324E+02 -0.14200511869E+04  0.14219218291E+04  0.00000000000E+00 0. -1.
          1    1    1    2  502    0  0.18446229319E+02  0.33230897713E+02  0.43438612950E+03  0.43604571485E+03  0.00000000000E+00 0. -1.
         22    1    3    3    0    0  0.39685869544E+02  0.11705990433E+02 -0.25294747339E+02  0.48495594608E+02  0.00000000000E+00 0. -1.
         22    1    3    3    0    0  0.12022957080E+02 -0.64800994469E+02 -0.31012272504E+03  0.31704861610E+03  0.00000000000E+00 0. -1.
</event>
<event>
 7    1  0.6255318E-006  0.1605803E+03  0.7818608E-02  0.1220601E+00
          2   -1    0    0  502    0  0.00000000000E+00  0.00000000000E+00  0.27128086541E+04  0.27128086541E+04  0.00000000000E+00 0. -1.
          1   -1    0    0  501    0 -0.00000000000E+00 -0.00000000000E+00 -0.61551057323E+03  0.61551057323E+03  0.00000000000E+00 0. -1.
         25    2    1    2    0    0  0.23549292388E+03 -0.57492231205E+02  0.83461549166E+02  0.28520945585E+03  0.12496531388E+03 0.  0.
          2    1    1    2  501    0 -0.10707539236E+03 -0.36239411016E+02 -0.50589336362E+03  0.51836910587E+03  0.00000000000E+00 0. -1.
          1    1    1    2  502    0 -0.12841753152E+03  0.93731642221E+02  0.25197298954E+04  0.25247406657E+04  0.00000000000E+00 0. -1.
         22    1    3    3    0    0  0.24666921876E+03 -0.45004859351E+02  0.62575899822E+02  0.25843158492E+03  0.00000000000E+00 0.  1.
         22    1    3    3    0    0 -0.11176294878E+02 -0.12487371854E+02  0.20885649344E+02  0.26777870930E+02  0.00000000000E+00 0.  1.
</event>
<event>
 7    1  0.6255318E-006  0.3973601E+02  0.7818608E-02  0.1587077E+00
          2   -1    0    0  502    0  0.00000000000E+00  0.00000000000E+00  0.16732509866E+03  0.16732509866E+03  0.00000000000E+00 0. -1.
          1   -1    0    0  501    0 -0.00000000000E+00 -0.00000000000E+00 -0.10627832305E+04  0.10627832305E+04  0.00000000000E+00 0. -1.
         25    2    1    2    0    0 -0.28750986148E+02  0.61772253518E+01 -0.21168093712E+03  0.24758509204E+03  0.12499912537E+03 0.  0.
          2    1    1    2  501    0  0.36505079053E+02  0.16764087136E+02 -0.83168075883E+03  0.83265031077E+03  0.00000000000E+00 0. -1.
          1    1    1    2  502    0 -0.77540929050E+01 -0.22941312488E+02  0.14790356411E+03  0.14987292635E+03  0.00000000000E+00 0. -1.
         22    1    3    3    0    0 -0.14419716993E+02 -0.36342870129E+02 -0.19629361150E+03  0.20014972986E+03  0.00000000000E+00 0.  1.
         22    1    3    3    0    0 -0.14331269155E+02  0.42520095480E+02 -0.15387325612E+02  0.47435362176E+02  0.00000000000E+00 0.  1.
</event>
<event>
 7    1  0.6255318E-006  0.5914414E+02  0.7818608E-02  0.1451070E+00
          2   -1    0    0  502    0  0.00000000000E+00  0.00000000000E+00  0.50237256965E+02  0.50237256965E+02  0.00000000000E+00 0. -1.
          1   -1    0    0  501    0 -0.00000000000E+00 -0.00000000000E+00 -0.15686567277E+04  0.15686567277E+04  0.00000000000E+00 0. -1.
         25    2    1    2    0    0 -0.42725986460E+02  0.90345165442E+01 -0.22227941300E+03  0.25873791514E+03  0.12502015389E+03 0.  0.
          2    1    1    2  501    0  0.35116644837E+02 -0.48831961325E+02 -0.13143558508E+04  0.13157313714E+04  0.00000000000E+00 0. -1.
          1    1    1    2  502    0  0.76093416233E+01  0.39797444781E+02  0.18215793019E+02  0.44424698157E+02  0.00000000000E+00 0. -1.
         22    1    3    3    0    0  0.35434926333E+02 -0.26006357712E+02 -0.10208000865E+03  0.11114086922E+03  0.00000000000E+00 0. -1.
         22    1    3    3    0    0 -0.78160912793E+02  0.35040874256E+02 -0.12019940435E+03  0.14759704591E+03  0.00000000000E+00 0. -1.
</event>
<event>
 7    1  0.6255318E-006  0.1384760E+03  0.7818608E-02  0.1295881E+00
          2   -1    0    0  502    0  0.00000000000E+00  0.00000000000E+00  0.76125814981E+02  0.76125814981E+02  0.00000000000E+00 0. -1.
          1   -1    0    0  501    0 -0.00000000000E+00 -0.00000000000E+00 -0.14445326167E+04  0.14445326167E+04  0.00000000000E+00 0. -1.
         25    2    1    2    0    0  0.84122148631E+02 -0.11829959184E+02 -0.18381097246E+03  0.23797051103E+03  0.12500802654E+03 0.  0.
          2    1    1    2  501    0 -0.14578483659E+03  0.21261355993E+02 -0.12073365947E+04  0.12162922826E+04  0.00000000000E+00 0. -1.
          1    1    1    2  502    0  0.61662687958E+02 -0.94313968089E+01  0.22740765473E+02  0.66395638006E+02  0.00000000000E+00 0. -1.
         22    1    3    3    0    0  0.34347307296E+02  0.35681409822E+02 -0.93120971007E+01  0.50394599689E+02  0.00000000000E+00 0. -1.
         22    1    3    3    0    0  0.49774841335E+02 -0.47511369006E+02 -0.17449887536E+03  0.18757591135E+03  0.00000000000E+00 0. -1.
</event>
<event>
 7    1  0.6255318E-006  0.8417495E+02  0.7818608E-02  0.1380974E+00
          2   -1    0    0  502    0  0.00000000000E+00  0.00000000000E+00  0.13244024169E+04  0.13244024169E+04  0.00000000000E+00 0. -1.
          1   -1    0    0  501    0 -0.00000000000E+00 -0.00000000000E+00 -0.22017798769E+03  0.22017798769E+03  0.00000000000E+00 0. -1.
         25    2    1    2    0    0 -0.10172329180E+03 -0.49208262194E+02 -0.69896121794E+01  0.16865226659E+03  0.12500260472E+03 0.  0.
          2    1    1    2  501    0  0.53984888761E+02  0.60157130472E+02 -0.11948417043E+03  0.14425572968E+03  0.00000000000E+00 0. -1.
          1    1    1    2  502    0  0.47738403034E+02 -0.10948868278E+02  0.12306982118E+04  0.12316724083E+04  0.00000000000E+00 0. -1.
         22    1    3    3    0    0 -0.64951687503E+02 -0.52449387797E+02  0.52514696525E+02  0.98627852765E+02  0.00000000000E+00 0.  1.
         22    1    3    3    0    0 -0.36771604293E+02  0.32411256029E+01 -0.59504308705E+02  0.70024413827E+02  0.00000000000E+00 0.  1.
</event>
<event>
 7    1  0.6255318E-006  0.1045203E+03  0.7818608E-02  0.1453016E+00
          2   -1    0    0  502    0  0.00000000000E+00  0.00000000000E+00  0.46588911895E+02  0.46588911895E+02  0.00000000000E+00 0. -1.
          1   -1    0    0  501    0 -0.00000000000E+00 -0.00000000000E+00 -0.11141367516E+04  0.11141367516E+04  0.00000000000E+00 0. -1.
         25    2    1    2    0    0 -0.58763732121E+02  0.67636844252E+02 -0.81504157564E+03  0.82942606432E+03  0.12500762872E+03 0.  0.
          2    1    1    2  501    0 -0.22601724675E+02  0.18656601396E+00 -0.21905359133E+03  0.22021659483E+03  0.00000000000E+00 0. -1.
          1    1    1    2  502    0  0.81365456796E+02 -0.67823410266E+02 -0.33452672730E+02  0.11108300434E+03  0.00000000000E+00 0. -1.
         22    1    3    3    0    0 -0.60070392754E+02  0.21894319097E+01 -0.15662849371E+03  0.16776689405E+03  0.00000000000E+00 0.  1.
         22    1    3    3    0    0  0.13066606328E+01  0.65447412343E+02 -0.65841308193E+03  0.66165917027E+03  0.00000000000E+00 0.  1.
</event>
<event>
 7    1  0.6255318E-006  0.3203532E+02  0.7818608E-02  0.1578413E+00
          2   -1    0    0  502    0  0.00000000000E+00  0.00000000000E+00  0.14067192238E+04  0.14067192238E+04  0.00000000000E+00 0. -1.
          1   -1    0    0  501    0 -0.00000000000E+00 -0.00000000000E+00 -0.12125811585E+04  0.12125811585E+04  0.00000000000E+00 0. -1.
         25    2    1    2    0    0 -0.34643562406E+02  0.14128842216E+02  0.23225495401E+02  0.13252797120E+03  0.12499775564E+03 0.  0.
          2    1    1    2  501    0  0.26761699557E+02  0.16957440217E+02 -0.11575196503E+04  0.11579531442E+04  0.00000000000E+00 0. -1.
          1    1    1    2  502    0  0.78818628495E+01 -0.31086282433E+02  0.13284322202E+04  0.13288192670E+04  0.00000000000E+00 0. -1.
         22    1    3    3    0    0  0.46897744966E+02  0.92685621579E+01  0.76766905581E+00  0.47811024285E+02  0.00000000000E+00 0. -1.
         22    1    3    3    0    0 -0.81541307372E+02  0.48602800581E+01  0.22457826345E+02  0.84716946914E+02  0.00000000000E+00 0. -1.
</event>
<event>
 7    1  0.6255318E-006  0.7481873E+02  0.7818608E-02  0.1379481E+00
          2   -1    0    0  502    0  0.00000000000E+00  0.00000000000E+00  0.15667518161E+03  0.15667518161E+03  0.00000000000E+00 0. -1.
          1   -1    0    0  501    0 -0.00000000000E+00 -0.00000000000E+00 -0.34708997927E+03  0.34708997927E+03  0.00000000000E+00 0. -1.
         25    2    1    2    0    0  0.11135245202E+03  0.34178172191E+02 -0.16128800204E+02  0.17161259463E+03  0.12499291345E+03 0.  0.
          2    1    1    2  501    0 -0.55478676710E+02  0.57668766102E+01 -0.23435847403E+03  0.24090461761E+03  0.00000000000E+00 0. -1.
          1    1    1    2  502    0 -0.55873775312E+02 -0.39945048802E+02  0.60072476570E+02  0.91247948649E+02  0.00000000000E+00 0. -1.
         22    1    3    3    0    0  0.97726482603E+02 -0.31990241329E+02 -0.15927898423E+02  0.10405546065E+03  0.00000000000E+00 0.  1.
         22    1    3    3    0    0  0.13625969419E+02  0.66168413521E+02 -0.20090178079E+00  0.67557133983E+02  0.00000000000E+00 0.  1.
</event>
<event>
 7    1  0.6255318E-006  0.5071863E+02  0.7818608E-02  0.1514824E+00
          2   -1    0    0  502    0  0.00000000000E+00  0.00000000000E+00  0.23120066704E+03  0.23120066704E+03  0.00000000000E+00 0. -1.
          1   -1    0    0  501    0 -0.00000000000E+00 -0.00000000000E+00 -0.34276968963E+04  0.34276968963E+04  0.00000000000E+00 0. -1.
         25    2    1    2    0    0  0.18992120159E+01  0.20942855067E+02  0.84946183329E+02  0.15258527022E+03  0.12499680172E+03 0.  0.
          2    1    1    2  501    0 -0.12350615085E+02 -0.49241260038E+02 -0.33916605077E+04  0.33920404241E+04  0.00000000000E+00 0. -1.
          1    1    1    2  502    0  0.10451403069E+02  0.28298404971E+02  0.11021809512E+03  0.11427186899E+03  0.00000000000E+00 0. -1.
         22    1    3    3    0    0 -0.20362814253E+02 -0.47759666140E+02  0.20594457913E+02  0.55854826209E+02  0.00000000000E+00 0. -1.
         22    1    3    3    0    0  0.22262026269E+02  0.68702521207E+02  0.64351725416E+02  0.96730444007E+02  0.00000000000E+00 0. -1.
</event>
<event>
 7    1  0.6255318E-006  0.1374266E+03  0.7818608E-02  0.1404045E+00
          2   -1    0    0  502    0  0.00000000000E+00  0.00000000000E+00  0.30427735836E+03  0.30427735836E+03  0.00000000000E+00 0. -1.
          1   -1    0    0  501    0 -0.00000000000E+00 -0.00000000000E+00 -0.77181067225E+03  0.77181067225E+03  0.00000000000E+00 0. -1.
         25    2    1    2    0    0 -0.47714794482E+02  0.14036332750E+03  0.17842206820E+03  0.26351058526E+03  0.12499931522E+03 0.  0.
          2    1    1    2  501    0  0.63884623682E+02 -0.12137540692E+03 -0.72077549594E+03  0.73371012675E+03  0.00000000000E+00 0. -1.
          1    1    1    2  502    0 -0.16169829200E+02 -0.18987920580E+02  0.74820113860E+02  0.78867318594E+02  0.00000000000E+00 0. -1.
         22    1    3    3    0    0 -0.92613982026E+01  0.57674574018E+02  0.16019712614E+03  0.17051465981E+03  0.00000000000E+00 0.  1.
         22    1    3    3    0    0 -0.38453396279E+02  0.82688753480E+02  0.18224942054E+02  0.92995925450E+02  0.00000000000E+00 0.  1.
</event>
<event>
 7    1  0.6255318E-006  0.8729430E+02  0.7818608E-02  0.1349354E+00
          2   -1    0    0  502    0  0.00000000000E+00  0.00000000000E+00  0.45977811367E+03  0.45977811367E+03  0.00000000000E+00 0. -1.
          1   -1    0    0  501    0 -0.00000000000E+00 -0.00000000000E+00 -0.53381253701E+03  0.53381253701E+03  0.00000000000E+00 0. -1.
         25    2    1    2    0    0 -0.85231852999E+02  0.11279467140E+03 -0.25560148355E+02  0.19043895128E+03  0.12500626511E+03 0.  0.
          2    1    1    2  501    0  0.64426541546E+02 -0.54944792334E+02 -0.41904592899E+03  0.42751514601E+03  0.00000000000E+00 0. -1.
          1    1    1    2  502    0  0.20805311452E+02 -0.57849879070E+02  0.37057165401E+03  0.37563655340E+03  0.00000000000E+00 0. -1.
         22    1    3    3    0    0  0.22968610246E+02 -0.94985696975E+01  0.16039790719E+01  0.24906879207E+02  0.00000000000E+00 0. -1.
         22    1    3    3    0    0 -0.10820046325E+03  0.12229324110E+03 -0.27164127427E+02  0.16553207207E+03  0.00000000000E+00 0. -1.
</event>
<event>
 7    1  0.6255318E-006  0.6800503E+02  0.7818608E-02  0.1379330E+00
          2   -1    0    0  502    0  0.00000000000E+00  0.00000000000E+00  0.75402733301E+02  0.75402733301E+02  0.00000000000E+00 0. -1.
          1   -1    0    0  501    0 -0.00000000000E+00 -0.00000000000E+00 -0.23712661329E+04  0.23712661329E+04  0.00000000000E+00 0. -1.
         25    2    1    2    0    0  0.30403322797E+01 -0.95311882622E+02 -0.32265559655E+03  0.35892195596E+03  0.12499895157E+03 0.  0.
          2    1    1    2  501    0 -0.45168455936E+02  0.50586765024E+02 -0.20132608656E+04  0.20144027709E+04  0.00000000000E+00 0. -1.
          1    1    1    2  502    0  0.42128123656E+02  0.44725117598E+02  0.40053062632E+02  0.73344139323E+02  0.00000000000E+00 0. -1.
         22    1    3    3    0    0  0.37465143291E+02 -0.10736202957E+03 -0.28327643936E+03  0.30524708590E+03  0.00000000000E+00 0. -1.
         22    1    3    3    0    0 -0.34424811011E+02  0.12050146948E+02 -0.39379157193E+02  0.53674870059E+02  0.00000000000E+00 0. -1.
</event>
<event>
 7    1  0.6255318E-006  0.8450521E+02  0.7818608E-02  0.1348728E+00
          2   -1    0    0  502    0  0.00000000000E+00  0.00000000000E+00  0.17700746167E+04  0.17700746167E+04  0.00000000000E+00 0. -1.
          1   -1    0    0  501    0 -0.00000000000E+00 -0.00000000000E+00 -0.65265503153E+03  0.65265503153E+03  0.00000000000E+00 0. -1.
         25    2    1    2    0    0 -0.86821854111E+02 -0.47315523569E+02  0.10036045390E+04  0.10161818247E+04  0.12500654746E+03 0.  0.
          2    1    1    2  501    0  0.32086194539E+01  0.63766353901E+02 -0.64239068990E+03  0.64555576181E+03  0.00000000000E+00 0. -1.
          1    1    1    2  502    0  0.83613234657E+02 -0.16450830332E+02  0.75620573605E+03  0.76099206176E+03  0.00000000000E+00 0. -1.
         22    1    3    3    0    0 -0.42062798395E+02 -0.18072629729E+02  0.88384349827E+03  0.88502837717E+03  0.00000000000E+00 0. -1.
         22    1    3    3    0    0 -0.44759055717E+02 -0.29242893840E+02  0.11976104076E+03  0.13115344751E+03  0.00000000000E+00 0. -1.
</event>
<event>
 7    1  0.6255318E-006  0.6874400E+02  0.7818608E-02  0.1385134E+00
          2   -1    0    0  502    0  0.00000000000E+00  0.00000000000E+00  0.72338970309E+02  0.72338970309E+02  0.00000000000E+00 0. -1.
          1   -1    0    0  501    0 -0.00000000000E+00 -0.00000000000E+00 -0.96707314154E+03  0.96707314154E+03  0.00000000000E+00 0. -1.
         25    2    1    2    0    0  0.43084969856E+02 -0.78168429018E+02 -0.37671068591E+03  0.40682035054E+03  0.12500095524E+03 0.  0.
          2    1    1    2  501    0  0.21231272015E+02  0.53953265427E+02 -0.55261844930E+03  0.55565175449E+03  0.00000000000E+00 0. -1.
          1    1    1    2  502    0 -0.64316241871E+02  0.24215163591E+02  0.34594963981E+02  0.76940006817E+02  0.00000000000E+00 0. -1.
         22    1    3    3    0    0 -0.33816194056E+02 -0.23253287453E+02 -0.40793453331E+02  0.57864982437E+02  0.00000000000E+00 0. -1.
         22    1    3    3    0    0  0.76901163912E+02 -0.54915141565E+02 -0.33591723258E+03  0.34895536810E+03  0.00000000000E+00 0. -1.
</event>
<event>
 7    1  0.6255318E-006  0.2059692E+03  0.7818608E-02  0.1266682E+00
          2   -1    0    0  502    0  0.00000000000E+00  0.00000000000E+00  0.16227270389E+04  0.16227270389E+04  0.00000000000E+00 0. -1.
          1   -1    0    0  501    0 -0.00000000000E+00 -0.00000000000E+00 -0.22740845802E+03  0.22740845802E+03  0.00000000000E+00 0. -1.
         25    2    1    2    0    0 -0.21114058003E+02 -0.17693073645E+03  0.60667594668E+03  0.64453955612E+03  0.12500098469E+03 0.  0.
          2    1    1    2  501    0  0.26529530436E+02 -0.48568177582E+02 -0.19175679952E+03  0.19958295022E+03  0.00000000000E+00 0. -1.
          1    1    1    2  502    0 -0.54154724334E+01  0.22549891403E+03  0.98039943367E+03  0.10060129905E+04  0.00000000000E+00 0. -1.
         22    1    3    3    0    0  0.21751778341E+01 -0.47161848219E+02  0.37498384774E+02  0.60291792034E+02  0.00000000000E+00 0.  1.
         22    1    3    3    0    0 -0.23289235837E+02 -0.12976888823E+03  0.56917756191E+03  0.58424776409E+03  0.00000000000E+00 0.  1.
</event>
<event>
 7    1  0.6255318E-006  0.1528420E+03  0.7818608E-02  0.1280164E+00
          2   -1    0    0  502    0  0.00000000000E+00  0.00000000000E+00  0.41483540933E+03  0.41483540933E+03  0.00000000000E+00 0. -1.
          1   -1    0    0  501    0 -0.00000000000E+00 -0.00000000000E+00 -0.18759816066E+04  0.18759816066E+04  0.00000000000E+00 0. -1.
         25    2    1    2    0    0 -0.13761590461E+03 -0.10402746029E+03 -0.31897008612E+03  0.38357083070E+03  0.12499926651E+03 0.  0.
          2    1    1    2  501    0  0.59658773240E+02 -0.27061176975E+02 -0.15087698641E+04  0.15101913718E+04  0.00000000000E+00 0. -1.
          1    1    1    2  502    0  0.77957131367E+02  0.13108863726E+03  0.36659375299E+03  0.39705481344E+03  0.00000000000E+00 0. -1.
         22    1    3    3    0    0 -0.55640255773E+02 -0.26593466572E+02 -0.21277681395E+02  0.65236418144E+02  0.00000000000E+00 0.  1.
         22    1    3    3    0    0 -0.81975648834E+02 -0.77433993714E+02 -0.29769240473E+03  0.31833441256E+03  0.00000000000E+00 0.  1.
</event>
<event>
 7    1  0.6255318E-006  0.6296881E+02  0.7818608E-02  0.1452464E+00
          2   -1    0    0  502    0  0.00000000000E+00  0.00000000000E+00  0.25919336866E+04  0.25919336866E+04  0.00000000000E+00 0. -1.
          1   -1    0    0  501    0 -0.00000000000E+00 -0.00000000000E+00 -0.12010361256E+04  0.12010361256E+04  0.00000000000E+00 0. -1.
         25    2    1    2    0    0 -0.39692685290E+02  0.82424886417E+02  0.13173871142E+02  0.15545780207E+03  0.12499682466E+03 0.  0.
          2    1    1    2  501    0  0.31873931656E+02 -0.20076072805E+02 -0.11291863836E+04  0.11298145357E+04  0.00000000000E+00 0. -1.
          1    1    1    2  502    0  0.78187536343E+01 -0.62348813612E+02  0.25069100734E+04  0.25076974745E+04  0.00000000000E+00 0. -1.
         22    1    3    3    0    0 -0.40543195724E+02  0.86572662280E+02 -0.38903339488E+02  0.10320875155E+03  0.00000000000E+00 0. -1.
         22    1    3    3    0    0  0.85051043392E+00 -0.41477758631E+01  0.52077210630E+02  0.52249050514E+02  0.00000000000E+00 0. -1.
</event>
<event>
 7    1  0.6255318E-006  0.8964375E+02  0.7818608E-02  0.1480902E+00
          2   -1    0    0  502    0  0.00000000000E+00  0.00000000000E+00  0.17079020235E+04  0.17079020235E+04  0.00000000000E+00 0. -1.
          1   -1    0    0  501    0 -0.00000000000E+00 -0.00000000000E+00 -0.32771681833E+02  0.32771681833E+02  0.00000000000E+00 0. -1.
         25    2    1    2    0    0  0.88541918330E+02 -0.22798724815E+02  0.41422163983E+03  0.44222591075E+03  0.12499894431E+03 0.  0.
          2    1    1    2  501    0 -0.89702210911E+02  0.12667260234E+01  0.89095286087E+02  0.12643599662E+03  0.00000000000E+00 0. -1.
          1    1    1    2  502    0  0.11602925814E+01  0.21531998792E+02  0.11718134157E+04  0.11720117979E+04  0.00000000000E+00 0. -1.
         22    1    3    3    0    0 -0.23591232833E+01 -0.40643898854E+02  0.41385895684E+02  0.58054150052E+02  0.00000000000E+00 0. -1.
         22    1    3    3    0    0  0.90901041613E+02  0.17845174039E+02  0.37283574415E+03  0.38417176070E+03  0.00000000000E+00 0. -1.
</event>
<event>
 7    1  0.6255318E-006  0.1483767E+03  0.7818608E-02  0.1358845E+00
          2   -1    0    0  502    0  0.00000000000E+00  0.00000000000E+00  0.13535933820E+04  0.13535933820E+04  0.00000000000E+00 0. -1.
          1   -1    0    0  501    0 -0.00000000000E+00 -0.00000000000E+00 -0.23576341133E+03  0.23576341133E+03  0.00000000000E+00 0. -1.
         25    2    1    2    0    0  0.36641285732E+02  0.13705122291E+03  0.25251379281E+03  0.31545861132E+03  0.12500119349E+03 0.  0.
          2    1    1    2  501    0  0.33096710970E+02 -0.42809469689E+01 -0.19762824993E+03  0.20042615586E+03  0.00000000000E+00 0. -1.
          1    1    1    2  502    0 -0.69737996702E+02 -0.13277027594E+03  0.10629444278E+04  0.10734720261E+04  0.00000000000E+00 0. -1.
         22    1    3    3    0    0  0.15907127359E+02 -0.56102610676E+01 -0.72611372439E+01  0.18363982252E+02  0.00000000000E+00 0. -1.
         22    1    3    3    0    0  0.20734158373E+02  0.14266148398E+03  0.25977493006E+03  0.29709462906E+03  0.00000000000E+00 0. -1.
</event>
<event>
 7    1  0.6255318E-006  0.4348394E+02  0.7818608E-02  0.1532141E+00
          2   -1    0    0  502    0  0.00000000000E+00  0.00000000000E+00  0.82899790388E+02  0.82899790388E+02  0.00000000000E+00 0. -1.
          1   -1    0    0  501    0 -0.00000000000E+00 -0.00000000000E+00 -0.16024810067E+03  0.16024810067E+03  0.00000000000E+00 0. -1.
         25    2    1    2    0    0  0.21932741774E+02 -0.20761005183E+02 -0.41342255027E+01  0.12866861407E+03  0.12500582358E+03 0.  0.
          2    1    1    2  501    0  0.31223690883E+02  0.28731288196E+01 -0.32605332515E+02  0.45235842536E+02  0.00000000000E+00 0. -1.
          1    1    1    2  502    0 -0.53156432657E+02  0.17887876364E+02 -0.40608752266E+02  0.69243434448E+02  0.00000000000E+00 0. -1.
         22    1    3    3    0    0  0.59760843782E+02 -0.51890508249E+01 -0.41758604541E+02  0.73089436659E+02  0.00000000000E+00 0. -1.
         22    1    3    3    0    0 -0.37828102008E+02 -0.15571954358E+02  0.37624379039E+02  0.55579177415E+02  0.00000000000E+00 0. -1.
</event>
<event>
 7    1  0.6255318E-006  0.5820075E+02  0.7818608E-02  0.1447927E+00
          2   -1    0    0  502    0  0.00000000000E+00  0.00000000000E+00  0.17120722419E+03  0.17120722419E+03  0.00000000000E+00 0. -1.
          1   -1    0    0  501    0 -0.00000000000E+00 -0.00000000000E+00 -0.20945466435E+03  0.20945466435E+03  0.00000000000E+00 0. -1.
         25    2    1    2    0    0  0.52593196856E+02 -0.71513150068E+02 -0.45973738953E+02  0.16005949474E+03  0.12500112877E+03 0.  0.
          2    1    1    2  501    0 -0.45273191829E+01  0.41896593308E+02 -0.94696613346E+02  0.10364974544E+03  0.00000000000E+00 0. -1.
          1    1    1    2  502    0 -0.48065877673E+02  0.29616556760E+02  0.10242291213E+03  0.11695264837E+03  0.00000000000E+00 0. -1.
         22    1    3    3    0    0  0.90457658672E+02 -0.26684950173E+02 -0.33374220433E+02  0.10004255678E+03  0.00000000000E+00 0.  1.
         22    1    3    3    0    0 -0.37864461817E+02 -0.44828199895E+02 -0.12599518520E+02  0.60016937954E+02  0.00000000000E+00 0.  1.
</event>
<event>
 7    1  0.6255318E-006  0.9811538E+02  0.7818608E-02  0.1390813E+00
          2   -1    0    0  502    0  0.00000000000E+00  0.00000000000E+00  0.48759766432E+02  0.48759766432E+02  0.00000000000E+00 0. -1.
          1   -1    0    0  501    0 -0.00000000000E+00 -0.00000000000E+00 -0.76896475225E+03  0.76896475225E+03  0.00000000000E+00 0. -1.
         25    2    1    2    0    0  0.44828197875E+02 -0.56113445949E+02 -0.26532899071E+03  0.30196485744E+03  0.12500006270E+03 0.  0.
          2    1    1    2  501    0 -0.80943514426E+02  0.70312484428E+02 -0.46372386707E+03  0.47595748012E+03  0.00000000000E+00 0. -1.
          1    1    1    2  502    0  0.36115316551E+02 -0.14199038478E+02  0.88478719685E+01  0.39802181117E+02  0.00000000000E+00 0. -1.
         22    1    3    3    0    0 -0.18894235706E+02 -0.12492383638E+02 -0.19865308987E+03  0.19994024584E+03  0.00000000000E+00 0. -1.
         22    1    3    3    0    0  0.63722433581E+02 -0.43621062311E+02 -0.66675900843E+02  0.10202461160E+03  0.00000000000E+00 0. -1.
</event>
<event>
 7    1  0.6255318E-006  0.1514309E+03  0.7818608E-02  0.1257660E+00
          2   -1    0    0  502    0  0.00000000000E+00  0.00000000000E+00  0.49421929369E+03  0.49421929369E+03  0.00000000000E+00 0. -1.
          1   -1    0    0  501    0 -0.00000000000E+00 -0.00000000000E+00 -0.50707258282E+03  0.50707258282E+03  0.00000000000E+00 0. -1.
         25    2    1    2    0    0 -0.45739554361E+02  0.74490327212E+02  0.52445266627E+02  0.16129804718E+03  0.12500255338E+03 0.  0.
          2    1    1    2  501    0  0.12257845920E+03 -0.10376360804E+03 -0.43372469205E+03  0.46250348486E+03  0.00000000000E+00 0. -1.
          1    1    1    2  502    0 -0.76838904841E+02  0.29273280831E+02  0.36842613629E+03  0.37749034447E+03  0.00000000000E+00 0. -1.
         22    1    3    3    0    0  0.40386459970E+02  0.28315825168E+01  0.13127684822E+02  0.42560781446E+02  0.00000000000E+00 0. -1.
         22    1    3    3    0    0 -0.86126014331E+02  0.71658744696E+02  0.39317581804E+02  0.11873726574E+03  0.00000000000E+00 0. -1.
</event>
<event>
 7    1  0.6255318E-006  0.1486611E+03  0.7818608E-02  0.1385481E+00
          2   -1    0    0  502    0  0.00000000000E+00  0.00000000000E+00  0.17397364597E+04  0.17397364597E+04  0.00000000000E+00 0. -1.
          1   -1    0    0  501    0 -0.00000000000E+00 -0.00000000000E+00 -0.11430712530E+04  0.11430712530E+04  0.00000000000E+00 0. -1.
         25    2    1    2    0    0 -0.12030897285E+03  0.28301892376E+02  0.63029941331E+02  0.18674309824E+03  0.12499986070E+03 0.  0.
          2    1    1    2  501    0  0.14704454451E+03 -0.28102323493E+02 -0.10759210235E+04  0.10862862825E+04  0.00000000000E+00 0. -1.
          1    1    1    2  502    0 -0.26735571658E+02 -0.19956888251E+00  0.16095562889E+04  0.16097783319E+04  0.00000000000E+00 0. -1.
         22    1    3    3    0    0 -0.10530527732E+03  0.73224485170E+02  0.49553649135E+02  0.13750123927E+03  0.00000000000E+00 0. -1.
         22    1    3    3    0    0 -0.15003695534E+02 -0.44922592795E+02  0.13476292196E+02  0.49241858966E+02  0.00000000000E+00 0. -1.
</event>
<event>
 7    1  0.6255318E-006  0.2877597E+02  0.7818608E-02  0.1613415E+00
          2   -1    0    0  502    0  0.00000000000E+00  0.00000000000E+00  0.93330965450E+02  0.93330965450E+02  0.00000000000E+00 0. -1.
          1   -1    0    0  501    0 -0.00000000000E+00 -0.00000000000E+00 -0.38689567739E+03  0.38689567739E+03  0.00000000000E+00 0. -1.
         25    2    1    2    0    0 -0.41861827062E+01 -0.36755738809E+02 -0.66060534751E+02  0.14614099564E+03  0.12499875157E+03 0.  0.
          2    1    1    2  501    0  0.23924519266E+02  0.16141234929E+02 -0.27616696471E+03  0.27767087439E+03  0.00000000000E+00 0. -1.
          1    1    1    2  502    0 -0.19738336559E+02  0.20614503880E+02  0.48662787529E+02  0.56414772803E+02  0.00000000000E+00 0. -1.
         22    1    3    3    0    0 -0.23162504211E+02  0.36288232373E+02  0.39085399702E+01  0.43227469216E+02  0.00000000000E+00 0.  1.
         22    1    3    3    0    0  0.18976321505E+02 -0.73043971182E+02 -0.69969074721E+02  0.10291352642E+03  0.00000000000E+00 0.  1.
</event>
<event>
 7    1  0.6255318E-006  0.9777771E+02  0.7818608E-02  0.1405343E+00
          2   -1    0    0  502    0  0.00000000000E+00  0.00000000000E+00  0.31713561446E+03  0.31713561446E+03  0.00000000000E+00 0. -1.
          1   -1    0    0  501    0 -0.00000000000E+00 -0.00000000000E+00 -0.16404785550E+04  0.16404785550E+04  0.00000000000E+00 0. -1.
         25    2    1    2    0    0 -0.28226661227E+02 -0.75735116294E+02 -0.44946904633E+01  0.14892031117E+03  0.12499801836E+03 0.  0.
          2    1    1    2  501    0 -0.34584974683E+02 -0.27872682215E+01 -0.15532484715E+04  0.15536359624E+04  0.00000000000E+00 0. -1.
          1    1    1    2  502    0  0.62811635911E+02  0.78522384515E+02  0.23440022141E+03  0.25505789593E+03  0.00000000000E+00 0. -1.
         22    1    3    3    0    0 -0.63239971429E+02 -0.18909179721E+02  0.31443796870E+02  0.73113360104E+02  0.00000000000E+00 0.  1.
         22    1    3    3    0    0  0.35013310202E+02 -0.56825936573E+02 -0.35938487333E+02  0.75806951070E+02  0.00000000000E+00 0.  1.
</event>
<event>
 7    1  0.6255318E-006  0.2779280E+03  0.7818608E-02  0.1325715E+00
          2   -1    0    0  502    0  0.00000000000E+00  0.00000000000E+00  0.42489089463E+02  0.42489089463E+02  0.00000000000E+00 0. -1.
          1   -1    0    0  501    0 -0.00000000000E+00 -0.00000000000E+00 -0.31896147076E+04  0.31896147076E+04  0.00000000000E+00 0. -1.
         25    2    1    2    0    0 -0.17766791645E+03  0.19401408537E+03 -0.81371204311E+03  0.86426905540E+03  0.12500542854E+03 0.  0.
          2    1    1    2  501    0  0.18116445697E+03 -0.21747121348E+03 -0.23257514293E+04  0.23429114366E+04  0.00000000000E+00 0. -1.
          1    1    1    2  502    0 -0.34965405124E+01  0.23457128118E+02 -0.76621457320E+01  0.24923305004E+02  0.00000000000E+00 0. -1.
         22    1    3    3    0    0 -0.16270390570E+03  0.13897138237E+03 -0.74419224842E+03  0.77434340487E+03  0.00000000000E+00 0.  1.
         22    1    3    3    0    0 -0.14964010755E+02  0.55042702991E+02 -0.69519794685E+02  0.89925650531E+02  0.00000000000E+00 0.  1.
</event>
<event>
 7    1  0.6255318E-006  0.4596911E+02  0.7818608E-02  0.1520665E+00
          2   -1    0    0  502    0  0.00000000000E+00  0.00000000000E+00  0.82933847183E+03  0.82933847183E+03  0.00000000000E+00 0. -1.
          1   -1    0    0  501    0 -0.00000000000E+00 -0.00000000000E+00 -0.22159384738E+02  0.22159384738E+02  0.00000000000E+00 0. -1.
         25    2    1    2    0    0  0.33516738555E+02 -0.28561594640E+01  0.38032903157E+03  0.40176057032E+03  0.12501941529E+03 0.  0.
          2    1    1    2  501    0  0.58053675423E+01  0.31473930060E+02  0.15568980507E+02  0.35590781387E+02  0.00000000000E+00 0. -1.
          1    1    1    2  502    0 -0.39322106097E+02 -0.28617770595E+02  0.41128107502E+03  0.41414650486E+03  0.00000000000E+00 0. -1.
         22    1    3    3    0    0  0.43035313857E+01  0.45145531984E+02  0.30185381719E+03  0.30524148865E+03  0.00000000000E+00 0.  1.
         22    1    3    3    0    0  0.29213207169E+02 -0.48001691448E+02  0.78475214377E+02  0.96519081671E+02  0.00000000000E+00 0.  1.
</event>
<event>
 7    1  0.6255318E-006  0.7111210E+02  0.7818608E-02  0.1434339E+00
          2   -1    0    0  502    0  0.00000000000E+00  0.00000000000E+00  0.22375200861E+04  0.22375200861E+04  0.00000000000E+00 0. -1.
          1   -1    0    0  501    0 -0.00000000000E+00 -0.00000000000E+00 -0.50371357973E+02  0.50371357973E+02  0.00000000000E+00 0. -1.
         25    2    1    2    0    0  0.71643287484E+01 -0.98475238119E+02  0.93512804294E+02  0.18471188543E+03  0.12500054370E+03 0.  0.
          2    1    1    2  501    0 -0.23973453567E+02  0.29700963658E+02  0.83645180042E+02  0.91942318126E+02  0.00000000000E+00 0. -1.
          1    1    1    2  502    0  0.16809124818E+02  0.68774274460E+02  0.20099907438E+04  0.20112372405E+04  0.00000000000E+00 0. -1.
         22    1    3    3    0    0  0.30350857994E+02 -0.67914836078E+02 -0.93079766529E+01  0.74968246411E+02  0.00000000000E+00 0.  1.
         22    1    3    3    0    0 -0.23186529246E+02 -0.30560402041E+02  0.10282078095E+03  0.10974363902E+03  0.00000000000E+00 0.  1.
</event>
<event>
 7    1  0.6255318E-006  0.1058464E+03  0.7818608E-02  0.1293336E+00
          2   -1    0    0  502    0  0.00000000000E+00  0.00000000000E+00  0.54804850113E+03  0.54804850113E+03  0.00000000000E+00 0. -1.
          1   -1    0    0  501    0 -0.00000000000E+00 -0.00000000000E+00 -0.13896742286E+04  0.13896742286E+04  0.00000000000E+00 0. -1.
         25    2    1    2    0    0 -0.17965195184E+03  0.10400416082E+02 -0.28556956651E+03  0.35994267147E+03  0.12500302788E+03 0.  0.
          2    1    1    2  501    0  0.97690273056E+02 -0.26685901813E+02 -0.10610738445E+04  0.10658955063E+04  0.00000000000E+00 0. -1.
          1    1    1    2  502    0  0.81961678781E+02  0.16285485731E+02  0.50501768356E+03  0.51188455197E+03  0.00000000000E+00 0. -1.
         22    1    3    3    0    0 -0.75440413520E+02 -0.51604791068E+02 -0.80975469377E+02  0.12211198587E+03  0.00000000000E+00 0. -1.
         22    1    3    3    0    0 -0.10421153832E+03  0.62005207150E+02 -0.20459409713E+03  0.23783068560E+03  0.00000000000E+00 0. -1.
</event>
<event>
 7    1  0.6255318E-006  0.3424105E+02  0.7818608E-02  0.1607928E+00
          2   -1    0    0  502    0  0.00000000000E+00  0.00000000000E+00  0.82011446293E+03  0.82011446293E+03  0.00000000000E+00 0. -1.
          1   -1    0    0  501    0 -0.00000000000E+00 -0.00000000000E+00 -0.20331176402E+03  0.20331176402E+03  0.00000000000E+00 0. -1.
         25    2    1    2    0    0 -0.47969860812E+02 -0.30564985605E+02  0.97777077720E+02  0.16859033875E+03  0.12500807774E+03 0.  0.
          2    1    1    2  501    0  0.16057137098E+02  0.18872425635E+02 -0.16656766897E+03  0.16840067829E+03  0.00000000000E+00 0. -1.
          1    1    1    2  502    0  0.31912723714E+02  0.11692559970E+02  0.68559329016E+03  0.68643520992E+03  0.00000000000E+00 0. -1.
         22    1    3    3    0    0 -0.27776987507E+02 -0.75479725270E+02  0.32324673526E+02  0.86681223344E+02  0.00000000000E+00 0.  1.
         22    1    3    3    0    0 -0.20192873305E+02  0.44914739665E+02  0.65452404194E+02  0.81909115403E+02  0.00000000000E+00 0.  1.
</event>
<event>
 7    1  0.6255318E-006  0.6952643E+02  0.7818608E-02  0.1373095E+00
          2   -1    0    0  502    0  0.00000000000E+00  0.00000000000E+00  0.57304443173E+03  0.57304443173E+03  0.00000000000E+00 0. -1.
          1   -1    0    0  501    0 -0.00000000000E+00 -0.00000000000E+00 -0.65417967466E+03  0.65417967466E+03  0.00000000000E+00 0. -1.
         25    2    1    2    0    0  0.76309252889E+02  0.10204974752E+03 -0.36827900072E+02  0.18225789271E+03  0.12499756873E+03 0.  0.
          2    1    1    2  501    0 -0.52062622026E+02 -0.43631024654E+02 -0.54050339728E+03  0.54475508754E+03  0.00000000000E+00 0. -1.
          1    1    1    2  502    0 -0.24246630863E+02 -0.58418722861E+02  0.49619605442E+03  0.50021112614E+03  0.00000000000E+00 0. -1.
         22    1    3    3    0    0  0.29706542895E+02  0.96451533187E+02  0.25632529641E+02  0.10412686263E+03  0.00000000000E+00 0.  1.
         22    1    3    3    0    0  0.46602709993E+02  0.55982143281E+01 -0.62460429713E+02  0.78131030086E+02  0.00000000000E+00 0.  1.
</event>
<event>
 7    1  0.6255318E-006  0.6859121E+02  0.7818608E-02  0.1404321E+00
          2   -1    0    0  502    0  0.00000000000E+00  0.00000000000E+00  0.54761418702E+03  0.54761418702E+03  0.00000000000E+00 0. -1.
          1   -1    0    0  501    0 -0.00000000000E+00 -0.00000000000E+00 -0.39092924387E+03  0.39092924387E+03  0.00000000000E+00 0. -1.
         25    2    1    2    0    0 -0.49179731831E+02 -0.61294188414E+02 -0.11477645365E+03  0.18701419779E+03  0.12500020922E+03 0.  0.
          2    1    1    2  501    0 -0.17915740676E+02  0.46530303072E+02 -0.23510069661E+03  0.24032973269E+03  0.00000000000E+00 0. -1.
          1    1    1    2  502    0  0.67095472506E+02  0.14763885342E+02  0.50656209341E+03  0.51119950042E+03  0.00000000000E+00 0. -1.
         22    1    3    3    0    0 -0.18810513586E+02 -0.11594249597E+02 -0.12580872945E+03  0.12773448419E+03  0.00000000000E+00 0.  1.
         22    1    3    3    0    0 -0.30369218245E+02 -0.49699938818E+02  0.11032275794E+02  0.59279713600E+02  0.00000000000E+00 0.  1.
</event>
<event>
 7    1  0.6294398E-006  0.2106658E+03  0.7818608E-02  0.1301177E+00
          2   -1    0    0  502    0  0.00000000000E+00  0.00000000000E+00  0.16659347769E+04  0.16659347769E+04  0.00000000000E+00 0. -1.
          1   -1    0    0  501    0 -0.00000000000E+00 -0.00000000000E+00 -0.14691198773E+04  0.14691198773E+04  0.00000000000E+00 0. -1.
         25    2    1    2    0    0 -0.41364118535E+02 -0.20609150873E+03 -0.55401392414E+03  0.60559199482E+03  0.12500214307E+03 0.  0.
          2    1    1    2  501    0  0.38773043941E+02 -0.46055632051E+01 -0.88211558523E+03  0.88297931225E+03  0.00000000000E+00 0. -1.
          1    1    1    2  502    0  0.25910745940E+01  0.21069707193E+03  0.16329444090E+04  0.16464833472E+04  0.00000000000E+00 0. -1.
         22    1    3    3    0    0  0.41296047313E+02 -0.52998388797E+02 -0.20291909195E+03  0.21375301312E+03  0.00000000000E+00 0.  1.
         22    1    3    3    0    0 -0.82660165848E+02 -0.15309311993E+03 -0.35109483219E+03  0.39183898170E+03  0.00000000000E+00 0.  1.
</event>
<event>
 7    1  0.6255318E-006  0.3545719E+02  0.7818608E-02  0.1555714E+00
          2   -1    0    0  502    0  0.00000000000E+00  0.00000000000E+00  0.18997205404E+03  0.18997205404E+03  0.00000000000E+00 0. -1.
          1   -1    0    0  501    0 -0.00000000000E+00 -0.00000000000E+00 -0.19826137156E+03  0.19826137156E+03  0.00000000000E+00 0. -1.
         25    2    1    2    0    0  0.16034258083E+02  0.37962516871E+00 -0.14111207076E+03  0.18919608702E+03  0.12500120511E+03 0.  0.
          2    1    1    2  501    0 -0.38824598473E+02 -0.27542334835E+02 -0.12692189174E+02  0.49264808137E+02  0.00000000000E+00 0. -1.
          1    1    1    2  502    0  0.22790340389E+02  0.27162709666E+02  0.14551494241E+03  0.14977253045E+03  0.00000000000E+00 0. -1.
         22    1    3    3    0    0  0.37066626132E+02  0.46312489215E+02 -0.12111805232E+03  0.13486424296E+03  0.00000000000E+00 0. -1.
         22    1    3    3    0    0 -0.21032368049E+02 -0.45932864046E+02 -0.19994018441E+02  0.54331844057E+02  0.00000000000E+00 0. -1.
</event>
<event>
 7    1  0.6255318E-006  0.4606523E+03  0.7818608E-02  0.1247513E+00
          2   -1    0    0  502    0  0.00000000000E+00  0.00000000000E+00  0.16686364130E+04  0.16686364130E+04  0.00000000000E+00 0. -1.
          1   -1    0    0  501    0 -0.00000000000E+00 -0.00000000000E+00 -0.80960555738E+03  0.80960555738E+03  0.00000000000E+00 0. -1.
         25    2    1    2    0    0 -0.26778189502E+03  0.34328182342E+03  0.10746611927E+04  0.11662208326E+04  0.12499919069E+03 0.  0.
          2    1    1    2  501    0  0.29484374684E+03 -0.35599852057E+03 -0.69338211010E+03  0.83333458605E+03  0.00000000000E+00 0. -1.
          1    1    1    2  502    0 -0.27061851818E+02  0.12716697143E+02  0.47775177301E+03  0.47868655175E+03  0.00000000000E+00 0. -1.
         22    1    3    3    0    0 -0.27282312438E+03  0.34515127496E+03  0.10742234146E+04  0.11608263454E+04  0.00000000000E+00 0.  1.
         22    1    3    3    0    0  0.50412293542E+01 -0.18694515424E+01  0.43777816591E+00  0.53944872040E+01  0.00000000000E+00 0.  1.
</event>
<event>
 7    1  0.6255318E-006  0.1679563E+03  0.7818608E-02  0.1289933E+00
          2   -1    0    0  502    0  0.00000000000E+00  0.00000000000E+00  0.11609197532E+04  0.11609197532E+04  0.00000000000E+00 0. -1.
          1   -1    0    0  501    0 -0.00000000000E+00 -0.00000000000E+00 -0.18792551150E+03  0.18792551150E+03  0.00000000000E+00 0. -1.
         25    2    1    2    0    0 -0.21352053434E+02 -0.20621149749E+03  0.22842970338E+03  0.33284359239E+03  0.12500254287E+03 0.  0.
          2    1    1    2  501    0 -0.22321891938E+02  0.49568606414E+02 -0.12239391660E+03  0.13392380081E+03  0.00000000000E+00 0. -1.
          1    1    1    2  502    0  0.43673945372E+02  0.15664289108E+03  0.86695845497E+03  0.88207787155E+03  0.00000000000E+00 0. -1.
         22    1    3    3    0    0 -0.37078405303E+01 -0.17372414745E+03  0.10281768038E+03  0.20190419234E+03  0.00000000000E+00 0.  1.
         22    1    3    3    0    0 -0.17644212903E+02 -0.32487350045E+02  0.12561202300E+03  0.13093940005E+03  0.00000000000E+00 0.  1.
</event>
<event>
 7    1  0.6255318E-006  0.5148048E+02  0.7818608E-02  0.1442197E+00
          2   -1    0    0  502    0  0.00000000000E+00  0.00000000000E+00  0.13483130745E+04  0.13483130745E+04  0.00000000000E+00 0. -1.
          1   -1    0    0  501    0 -0.00000000000E+00 -0.00000000000E+00 -0.15501974022E+04  0.15501974022E+04  0.00000000000E+00 0. -1.
         25    2    1    2    0    0 -0.45615734226E+01 -0.93477678084E+01  0.97824943165E+01  0.12581448389E+03  0.12500159378E+03 0.  0.
          2    1    1    2  501    0  0.41942348641E+02 -0.26682843668E+02 -0.14912408186E+04  0.14920691384E+04  0.00000000000E+00 0. -1.
          1    1    1    2  502    0 -0.37380775219E+02  0.36030611477E+02  0.12795739966E+04  0.12806268543E+04  0.00000000000E+00 0. -1.
         22    1    3    3    0    0  0.58518011874E+02 -0.17514729288E+02  0.11636263352E+02  0.62181396579E+02  0.00000000000E+00 0. -1.
         22    1    3    3    0    0 -0.63079585297E+02  0.81669614795E+01 -0.18537690357E+01  0.63633087311E+02  0.00000000000E+00 0. -1.
</event>
<event>
 7    1  0.6255318E-006  0.7186833E+02  0.7818608E-02  0.1513704E+00
          2   -1    0    0  502    0  0.00000000000E+00  0.00000000000E+00  0.58756664825E+03  0.58756664825E+03  0.00000000000E+00 0. -1.
          1   -1    0    0  501    0 -0.00000000000E+00 -0.00000000000E+00 -0.88711238812E+02  0.88711238812E+02  0.00000000000E+00 0. -1.
         25    2    1    2    0    0  0.76953777156E+02 -0.10192223679E+02  0.49021615037E+02  0.15511949952E+03  0.12503269631E+03 0.  0.
          2    1    1    2  501    0 -0.64862919969E+02  0.27910308416E+02 -0.20047921640E+00  0.70613199153E+02  0.00000000000E+00 0. -1.
          1    1    1    2  502    0 -0.12090857187E+02 -0.17718084736E+02  0.45003427361E+03  0.45054518839E+03  0.00000000000E+00 0. -1.
         22    1    3    3    0    0  0.38411182945E+02  0.10494961609E+02  0.87961732343E+02  0.96554800767E+02  0.00000000000E+00 0.  1.
         22    1    3    3    0    0  0.38542594211E+02 -0.20687185288E+02 -0.38940117306E+02  0.58564698748E+02  0.00000000000E+00 0.  1.
</event>
<event>
 7    1  0.6255318E-006  0.1629995E+03  0.7818608E-02  0.1193711E+00
          2   -1    0    0  502    0  0.00000000000E+00  0.00000000000E+00  0.62684218956E+03  0.62684218956E+03  0.00000000000E+00 0. -1.
          1   -1    0    0  501    0 -0.00000000000E+00 -0.00000000000E+00 -0.12763149316E+04  0.12763149316E+04  0.00000000000E+00 0. -1.
         25    2    1    2    0    0  0.79032263460E+02  0.17334771942E+03 -0.82209906869E+03  0.85309269971E+03  0.12499898022E+03 0.  0.
          2    1    1    2  501    0 -0.15930186370E+03 -0.48280973817E+02 -0.41331275651E+03  0.44557330587E+03  0.00000000000E+00 0. -1.
          1    1    1    2  502    0  0.80269600244E+02 -0.12506674560E+03  0.58593908319E+03  0.60449111555E+03  0.00000000000E+00 0. -1.
         22    1    3    3    0    0  0.60780710727E+02  0.16003174779E+02 -0.33626857456E+03  0.34209202071E+03  0.00000000000E+00 0.  1.
         22    1    3    3    0    0  0.18251552733E+02  0.15734454464E+03 -0.48583049414E+03  0.51100067900E+03  0.00000000000E+00 0.  1.
</event>
<event>
 7    1  0.6255318E-006  0.7032343E+02  0.7818608E-02  0.1383488E+00
          2   -1    0    0  502    0  0.00000000000E+00  0.00000000000E+00  0.70320874641E+03  0.70320874641E+03  0.00000000000E+00 0. -1.
          1   -1    0    0  501    0 -0.00000000000E+00 -0.00000000000E+00 -0.26665347132E+03  0.26665347132E+03  0.00000000000E+00 0. -1.
         25    2    1    2    0    0  0.39164168409E+02 -0.96026253979E+02 -0.15003988905E+03  0.22111759916E+03  0.12500460316E+03 0.  0.
          2    1    1    2  501    0 -0.47760439378E+02  0.39233984877E+02 -0.67850780013E+02  0.91782860531E+02  0.00000000000E+00 0. -1.
          1    1    1    2  502    0  0.85962709689E+01  0.56792269102E+02  0.65444594415E+03  0.65696175804E+03  0.00000000000E+00 0. -1.
         22    1    3    3    0    0  0.40985122688E+01 -0.28168661827E+02 -0.14141325420E+03  0.14424971326E+03  0.00000000000E+00 0.  1.
         22    1    3    3    0    0  0.35065656140E+02 -0.67857592152E+02 -0.86266348463E+01  0.76867885895E+02  0.00000000000E+00 0.  1.
</event>
<event>
 7    1  0.6255318E-006  0.7277952E+02  0.7818608E-02  0.1450017E+00
          2   -1    0    0  502    0  0.00000000000E+00  0.00000000000E+00  0.11705450002E+04  0.11705450002E+04  0.00000000000E+00 0. -1.
          1   -1    0    0  501    0 -0.00000000000E+00 -0.00000000000E+00 -0.27566784628E+02  0.27566784628E+02  0.00000000000E+00 0. -1.
         25    2    1    2    0    0 -0.76714686598E+02 -0.60986918166E+02  0.51427742237E+03  0.53824269335E+03  0.12497752781E+03 0.  0.
          2    1    1    2  501    0  0.32124226334E+02  0.83178527917E+01  0.64517083870E+01  0.33804986818E+02  0.00000000000E+00 0. -1.
          1    1    1    2  502    0  0.44590460264E+02  0.52669065374E+02  0.62224908484E+03  0.62606410469E+03  0.00000000000E+00 0. -1.
         22    1    3    3    0    0 -0.36090854247E+02 -0.48511111540E+02  0.47959127353E+03  0.48338769880E+03  0.00000000000E+00 0. -1.
         22    1    3    3    0    0 -0.40623832352E+02 -0.12475806626E+02  0.34686148842E+02  0.54854994553E+02  0.00000000000E+00 0. -1.
</event>
<event>
 7    1  0.6255318E-006  0.1560911E+03  0.7818608E-02  0.1322339E+00
          2   -1    0    0  502    0  0.00000000000E+00  0.00000000000E+00  0.32389690726E+03  0.32389690726E+03  0.00000000000E+00 0. -1.
          1   -1    0    0  501    0 -0.00000000000E+00 -0.00000000000E+00 -0.18388066818E+04  0.18388066818E+04  0.00000000000E+00 0. -1.
         25    2    1    2    0    0 -0.30817779414E+02 -0.12905377297E+03 -0.80518716299E+03  0.82556454790E+03  0.12500337381E+03 0.  0.
          2    1    1    2  501    0  0.57367498735E+02  0.16352779469E+03 -0.10145385065E+04  0.10292330886E+04  0.00000000000E+00 0. -1.
          1    1    1    2  502    0 -0.26549719322E+02 -0.34474021711E+02  0.30481589497E+03  0.30790595252E+03  0.00000000000E+00 0. -1.
         22    1    3    3    0    0  0.42416969759E+02 -0.39140256235E+02 -0.16122926127E+03  0.17124845597E+03  0.00000000000E+00 0. -1.
         22    1    3    3    0    0 -0.73234749173E+02 -0.89913516739E+02 -0.64395790171E+03  0.65431609193E+03  0.00000000000E+00 0. -1.
</event>
<event>
 7    1  0.6255318E-006  0.5908186E+02  0.7818608E-02  0.1406506E+00
          2   -1    0    0  502    0  0.00000000000E+00  0.00000000000E+00  0.15936496272E+04  0.15936496272E+04  0.00000000000E+00 0. -1.
          1   -1    0    0  501    0 -0.00000000000E+00 -0.00000000000E+00 -0.18694625991E+03  0.18694625991E+03  0.00000000000E+00 0. -1.
         25    2    1    2    0    0  0.37874882831E+02 -0.22644426846E+02  0.10577125944E+04  0.10659870022E+04  0.12500031873E+03 0.  0.
          2    1    1    2  501    0  0.35080711762E+02  0.44799335049E+02 -0.17555749097E+03  0.18454828473E+03  0.00000000000E+00 0. -1.
          1    1    1    2  502    0 -0.72955594593E+02 -0.22154908203E+02  0.52454826392E+03  0.53006060023E+03  0.00000000000E+00 0. -1.
         22    1    3    3    0    0  0.14116285984E+02 -0.13424759195E+02  0.10216099526E+04  0.10217956688E+04  0.00000000000E+00 0.  1.
         22    1    3    3    0    0  0.23758596847E+02 -0.92196676502E+01  0.36102641820E+02  0.44191333337E+02  0.00000000000E+00 0.  1.
</event>
<event>
 7    1  0.6255318E-006  0.6895138E+02  0.7818608E-02  0.1520125E+00
          2   -1    0    0  502    0  0.00000000000E+00  0.00000000000E+00  0.10972129340E+03  0.10972129340E+03  0.00000000000E+00 0. -1.
          1   -1    0    0  501    0 -0.00000000000E+00 -0.00000000000E+00 -0.84341992456E+03  0.84341992456E+03  0.00000000000E+00 0. -1.
         25    2    1    2    0    0  0.82057792530E+02  0.36219475134E+02 -0.65293559601E+03  0.67081635983E+03  0.12499745753E+03 0.  0.
          2    1    1    2  501    0 -0.18110838789E+02 -0.11426999643E+02 -0.16912147875E+03  0.17047185509E+03  0.00000000000E+00 0. -1.
          1    1    1    2  502    0 -0.63946953742E+02 -0.24792475491E+02  0.88358443598E+02  0.11185300304E+03  0.00000000000E+00 0. -1.
         22    1    3    3    0    0  0.57276183788E+02 -0.42394235052E+02 -0.28737674092E+03  0.29607975888E+03  0.00000000000E+00 0. -1.
         22    1    3    3    0    0  0.24781608743E+02  0.78613710186E+02 -0.36555885509E+03  0.37473660095E+03  0.00000000000E+00 0. -1.
</event>
<event>
 7    1  0.8384448E-006  0.8804154E+02  0.7818608E-02  0.1319894E+00
          2   -1    0    0  502    0  0.00000000000E+00  0.00000000000E+00  0.24633434724E+04  0.24633434724E+04  0.00000000000E+00 0. -1.
          1   -1    0    0  501    0 -0.00000000000E+00 -0.00000000000E+00 -0.20414502738E+04  0.20414502738E+04  0.00000000000E+00 0. -1.
         25    2    1    2    0    0  0.97195594733E+02  0.10066743649E+01 -0.88870256548E+03  0.90269831566E+03  0.12499600864E+03 0.  0.
          2    1    1    2  501    0 -0.41382516261E+02  0.67112287047E+02 -0.11436027074E+04  0.11463174622E+04  0.00000000000E+00 0. -1.
          1    1    1    2  502    0 -0.55813078473E+02 -0.68118961412E+02  0.24541984714E+04  0.24557779684E+04  0.00000000000E+00 0. -1.
         22    1    3    3    0    0  0.93404829504E+02  0.48689748555E+02 -0.49381128720E+03  0.50492052955E+03  0.00000000000E+00 0. -1.
         22    1    3    3    0    0  0.37907652290E+01 -0.47683074190E+02 -0.39489127827E+03  0.39777778611E+03  0.00000000000E+00 0. -1.
</event>
<event>
 7    1  0.6255318E-006  0.5372972E+02  0.7818608E-02  0.1470434E+00
          2   -1    0    0  502    0  0.00000000000E+00  0.00000000000E+00  0.13116963604E+04  0.13116963604E+04  0.00000000000E+00 0. -1.
          1   -1    0    0  501    0 -0.00000000000E+00 -0.00000000000E+00 -0.92092694344E+03  0.92092694344E+03  0.00000000000E+00 0. -1.
         25    2    1    2    0    0 -0.76308699377E+02 -0.11232169867E+02  0.43267620919E+02  0.15312287821E+03  0.12500139828E+03 0.  0.
          2    1    1    2  501    0  0.25754974910E+02  0.28958694335E+02 -0.86497398003E+03  0.86584173544E+03  0.00000000000E+00 0. -1.
          1    1    1    2  502    0  0.50553724467E+02 -0.17726524468E+02  0.12124757760E+04  0.12136586902E+04  0.00000000000E+00 0. -1.
         22    1    3    3    0    0 -0.26404250580E+02  0.51025524198E+02 -0.84023156618E+01  0.58063650220E+02  0.00000000000E+00 0. -1.
         22    1    3    3    0    0 -0.49904448798E+02 -0.62257694064E+02  0.51669936581E+02  0.95059227991E+02  0.00000000000E+00 0. -1.
</event>
<event>
 7    1  0.6255318E-006  0.1089293E+03  0.7818608E-02  0.1319948E+00
          2   -1    0    0  502    0  0.00000000000E+00  0.00000000000E+00  0.11319485462E+04  0.11319485462E+04  0.00000000000E+00 0. -1.
          1   -1    0    0  501    0 -0.00000000000E+00 -0.00000000000E+00 -0.43550299727E+03  0.43550299727E+03  0.00000000000E+00 0. -1.
         25    2    1    2    0    0  0.56896369397E+02 -0.14491315735E+03  0.14384252494E+03  0.24607922583E+03  0.12500917318E+03 0.  0.
          2    1    1    2  501    0 -0.68950943741E+02  0.82368617932E+02 -0.37576728524E+03  0.39081949097E+03  0.00000000000E+00 0. -1.
          1    1    1    2  502    0  0.12054574344E+02  0.62544539419E+02  0.92837030926E+03  0.93055282670E+03  0.00000000000E+00 0. -1.
         22    1    3    3    0    0 -0.38016438558E+02 -0.30184415551E+02  0.51984916855E+02  0.71125101921E+02  0.00000000000E+00 0.  1.
         22    1    3    3    0    0  0.94912807954E+02 -0.11472874180E+03  0.91857608087E+02  0.17495412391E+03  0.00000000000E+00 0.  1.
</event>
<event>
 7    1  0.6255318E-006  0.1015961E+03  0.7818608E-02  0.1384826E+00
          2   -1    0    0  502    0  0.00000000000E+00  0.00000000000E+00  0.29463071336E+03  0.29463071336E+03  0.00000000000E+00 0. -1.
          1   -1    0    0  501    0 -0.00000000000E+00 -0.00000000000E+00 -0.26275365127E+03  0.26275365127E+03  0.00000000000E+00 0. -1.
         25    2    1    2    0    0 -0.37632546972E+01 -0.13651813729E+03  0.11055468723E+03  0.21563173573E+03  0.12499337059E+03 0.  0.
          2    1    1    2  501    0  0.12880448585E+02  0.98259434595E+02 -0.19512196049E+03  0.21884561204E+03  0.00000000000E+00 0. -1.
          1    1    1    2  502    0 -0.91171938876E+01  0.38258702696E+02  0.11644433536E+03  0.12290701686E+03  0.00000000000E+00 0. -1.
         22    1    3    3    0    0 -0.14799638246E+02  0.20126123501E+02  0.26994944521E+01  0.25127224473E+02  0.00000000000E+00 0. -1.
         22    1    3    3    0    0  0.11036383549E+02 -0.15664426079E+03  0.10785519278E+03  0.19050451126E+03  0.00000000000E+00 0. -1.
</event>
<event>
 7    1  0.6255318E-006  0.5291912E+02  0.7818608E-02  0.1452901E+00
          2   -1    0    0  502    0  0.00000000000E+00  0.00000000000E+00  0.17655843147E+04  0.17655843147E+04  0.00000000000E+00 0. -1.
          1   -1    0    0  501    0 -0.00000000000E+00 -0.00000000000E+00 -0.10344656660E+04  0.10344656660E+04  0.00000000000E+00 0. -1.
         25    2    1    2    0    0  0.96870931469E+02 -0.21898060087E+01  0.13599319772E+03  0.20858507935E+03  0.12499925155E+03 0.  0.
          2    1    1    2  501    0 -0.52601934760E+02 -0.38550588543E+01 -0.99715940582E+03  0.99855330635E+03  0.00000000000E+00 0. -1.
          1    1    1    2  502    0 -0.44268996709E+02  0.60448648630E+01  0.15922848568E+04  0.15929115950E+04  0.00000000000E+00 0. -1.
         22    1    3    3    0    0  0.92351762190E+01 -0.38718700725E+02  0.98975447478E+02  0.10667973317E+03  0.00000000000E+00 0. -1.
         22    1    3    3    0    0  0.87635755250E+02  0.36528894716E+02  0.37017750244E+02  0.10190534618E+03  0.00000000000E+00 0. -1.
</event>
<event>
 7    1  0.6255318E-006  0.1713728E+03  0.7818608E-02  0.1189567E+00
          2   -1    0    0  502    0  0.00000000000E+00  0.00000000000E+00  0.13674331600E+04  0.13674331600E+04  0.00000000000E+00 0. -1.
          1   -1    0    0  501    0 -0.00000000000E+00 -0.00000000000E+00 -0.46336033056E+03  0.46336033056E+03  0.00000000000E+00 0. -1.
         25    2    1    2    0    0 -0.49688945993E+01  0.41048420950E+02  0.20796552290E+03  0.24613975077E+03  0.12500182166E+03 0.  0.
          2    1    1    2  501    0  0.10755510064E+03 -0.14765729268E+03 -0.42040641664E+03  0.45838011618E+03  0.00000000000E+00 0. -1.
          1    1    1    2  502    0 -0.10258620604E+03  0.10660887173E+03  0.11165137231E+04  0.11262736236E+04  0.00000000000E+00 0. -1.
         22    1    3    3    0    0 -0.64497283045E+02  0.29742502434E+02  0.10898944204E+03  0.13008925569E+03  0.00000000000E+00 0. -1.
         22    1    3    3    0    0  0.59528388446E+02  0.11305918516E+02  0.98976080862E+02  0.11605049508E+03  0.00000000000E+00 0. -1.
</event>
<event>
 7    1  0.6255318E-006  0.3202825E+03  0.7818608E-02  0.1206747E+00
          2   -1    0    0  502    0  0.00000000000E+00  0.00000000000E+00  0.95790850970E+03  0.95790850970E+03  0.00000000000E+00 0. -1.
          1   -1    0    0  501    0 -0.00000000000E+00 -0.00000000000E+00 -0.12971093263E+04  0.12971093263E+04  0.00000000000E+00 0. -1.
         25    2    1    2    0    0 -0.36783013785E+02  0.38100404912E+03  0.31889550185E+03  0.51365143433E+03  0.12500551725E+03 0.  0.
          2    1    1    2  501    0  0.29668802295E+02 -0.31574008438E+03 -0.11766683859E+04  0.12186552134E+04  0.00000000000E+00 0. -1.
          1    1    1    2  502    0  0.71142114903E+01 -0.65263964736E+02  0.51857206751E+03  0.52271118823E+03  0.00000000000E+00 0. -1.
         22    1    3    3    0    0 -0.64657667551E+02  0.93811848040E+02  0.83172565819E+02  0.14106364702E+03  0.00000000000E+00 0.  1.
         22    1    3    3    0    0  0.27874653765E+02  0.28719220108E+03  0.23572293603E+03  0.37258778731E+03  0.00000000000E+00 0.  1.
</event>
<event>
 7    1  0.6255318E-006  0.7959346E+02  0.7818608E-02  0.1371033E+00
          2   -1    0    0  502    0  0.00000000000E+00  0.00000000000E+00  0.16932225392E+04  0.16932225392E+04  0.00000000000E+00 0. -1.
          1   -1    0    0  501    0 -0.00000000000E+00 -0.00000000000E+00 -0.73870235052E+03  0.73870235052E+03  0.00000000000E+00 0. -1.
         25    2    1    2    0    0  0.61224251224E+01 -0.12167114853E+03  0.87449218326E+02  0.19521649377E+03  0.12498304357E+03 0.  0.
          2    1    1    2  501    0  0.26287256704E+02  0.49671836968E+02 -0.68265899092E+03  0.68496832711E+03  0.00000000000E+00 0. -1.
          1    1    1    2  502    0 -0.32409681826E+02  0.71999311564E+02  0.15497299613E+04  0.15517400688E+04  0.00000000000E+00 0. -1.
         22    1    3    3    0    0 -0.26993775055E+02 -0.11539762934E+03  0.20515398820E+02  0.12027534385E+03  0.00000000000E+00 0. -1.
         22    1    3    3    0    0  0.33116200177E+02 -0.62735191873E+01  0.66933819506E+02  0.74941149917E+02  0.00000000000E+00 0. -1.
</event>
<event>
 7    1  0.6255318E-006  0.5582655E+02  0.7818608E-02  0.1438587E+00
          2   -1    0    0  502    0  0.00000000000E+00  0.00000000000E+00  0.67982203882E+03  0.67982203882E+03  0.00000000000E+00 0. -1.
          1   -1    0    0  501    0 -0.00000000000E+00 -0.00000000000E+00 -0.60174901074E+03  0.60174901074E+03  0.00000000000E+00 0. -1.
         25    2    1    2    0    0  0.45557196884E+02 -0.70526319690E+02  0.20728654011E+03  0.25620605876E+03  0.12499765949E+03 0.  0.
          2    1    1    2  501    0 -0.44341733620E+02  0.15861721795E+02 -0.57465436377E+03  0.57658080211E+03  0.00000000000E+00 0. -1.
          1    1    1    2  502    0 -0.12154632638E+01  0.54664597894E+02  0.44544085175E+03  0.44878418869E+03  0.00000000000E+00 0. -1.
         22    1    3    3    0    0  0.89221604595E+02 -0.48896442524E+02  0.13555383059E+03  0.16948804620E+03  0.00000000000E+00 0. -1.
         22    1    3    3    0    0 -0.43664407711E+02 -0.21629877165E+02  0.71732709519E+02  0.86718012558E+02  0.00000000000E+00 0. -1.
</event>
<event>
 7    1  0.6255318E-006  0.1026084E+03  0.7818608E-02  0.1359997E+00
          2   -1    0    0  502    0  0.00000000000E+00  0.00000000000E+00  0.42990164039E+02  0.42990164039E+02  0.00000000000E+00 0. -1.
          1   -1    0    0  501    0 -0.00000000000E+00 -0.00000000000E+00 -0.18860185305E+04  0.18860185305E+04  0.00000000000E+00 0. -1.
         25    2    1    2    0    0  0.28700546862E+02  0.82999500778E+02 -0.53742936142E+03  0.55871963791E+03  0.12499870698E+03 0.  0.
          2    1    1    2  501    0 -0.42192244036E+02  0.22449827895E+02 -0.12488830501E+04  0.12497972048E+04  0.00000000000E+00 0. -1.
          1    1    1    2  502    0  0.13491697174E+02 -0.10544932867E+03 -0.56715954865E+02  0.12049185178E+03  0.00000000000E+00 0. -1.
         22    1    3    3    0    0 -0.42418462560E+02  0.54928562486E+01 -0.22579642874E+03  0.22981193326E+03  0.00000000000E+00 0. -1.
         22    1    3    3    0    0  0.71119009422E+02  0.77506644530E+02 -0.31163293268E+03  0.32890770465E+03  0.00000000000E+00 0. -1.
</event>
<event>
 7    1  0.6255318E-006  0.8865878E+02  0.7818608E-02  0.1401830E+00
          2   -1    0    0  502    0  0.00000000000E+00  0.00000000000E+00  0.15797018688E+04  0.15797018688E+04  0.00000000000E+00 0. -1.
          1   -1    0    0  501    0 -0.00000000000E+00 -0.00000000000E+00 -0.12200494886E+04  0.12200494886E+04  0.00000000000E+00 0. -1.
         25    2    1    2    0    0 -0.22166256577E+02 -0.12149211017E+03  0.34580248102E+03  0.38789470476E+03  0.12502507883E+03 0.  0.
          2    1    1    2  501    0  0.17030454267E+02  0.35462167933E+02 -0.11971488682E+04  0.11977950636E+04  0.00000000000E+00 0. -1.
          1    1    1    2  502    0  0.51358023102E+01  0.86029942236E+02  0.12109987674E+04  0.12140615891E+04  0.00000000000E+00 0. -1.
         22    1    3    3    0    0  0.11603615935E+02 -0.26128678638E+01 -0.71870937645E+01  0.13896952832E+02  0.00000000000E+00 0. -1.
         22    1    3    3    0    0 -0.33769872512E+02 -0.11887924231E+03  0.35298957478E+03  0.37399775193E+03  0.00000000000E+00 0. -1.
</event>
<event>
 7    1  0.6255318E-006  0.2987553E+02  0.7818608E-02  0.1631271E+00
          2   -1    0    0  502    0  0.00000000000E+00  0.00000000000E+00  0.18776046249E+03  0.18776046249E+03  0.00000000000E+00 0. -1.
          1   -1    0    0  501    0 -0.00000000000E+00 -0.00000000000E+00 -0.50214002299E+03  0.50214002299E+03  0.00000000000E+00 0. -1.
         25    2    1    2    0    0  0.18732796538E+02  0.60323506423E+00 -0.34342067444E+03  0.36594384935E+03  0.12500343870E+03 0.  0.
          2    1    1    2  501    0 -0.10148204415E+01 -0.24743903773E+02 -0.14513118707E+03  0.14722891052E+03  0.00000000000E+00 0. -1.
          1    1    1    2  502    0 -0.17717976096E+02  0.24140668708E+02  0.17417230100E+03  0.17672772561E+03  0.00000000000E+00 0. -1.
         22    1    3    3    0    0  0.47018982228E+02 -0.48885350955E+02 -0.21488826132E+03  0.22533869415E+03  0.00000000000E+00 0.  1.
         22    1    3    3    0    0 -0.28286185691E+02  0.49488586019E+02 -0.12853241312E+03  0.14060515520E+03  0.00000000000E+00 0.  1.
</event>
<event>
 7    1  0.6255318E-006  0.8493546E+02  0.7818608E-02  0.1392180E+00
          2   -1    0    0  502    0  0.00000000000E+00  0.00000000000E+00  0.11913664973E+04  0.11913664973E+04  0.00000000000E+00 0. -1.
          1   -1    0    0  501    0 -0.00000000000E+00 -0.00000000000E+00 -0.79900424325E+02  0.79900424325E+02  0.00000000000E+00 0. -1.
         25    2    1    2    0    0 -0.14688436131E+02  0.94427753508E+02  0.25902708431E+03  0.30307004953E+03  0.12499629484E+03 0.  0.
          2    1    1    2  501    0 -0.35778948515E+02 -0.26188705202E+02 -0.47086002925E+02  0.64676681334E+02  0.00000000000E+00 0. -1.
          1    1    1    2  502    0  0.50467384646E+02 -0.68239048306E+02  0.89952499154E+03  0.90352019072E+03  0.00000000000E+00 0. -1.
         22    1    3    3    0    0  0.15299594008E+02  0.92858338165E+02  0.25616462216E+03  0.27290485923E+03  0.00000000000E+00 0. -1.
         22    1    3    3    0    0 -0.29988030139E+02  0.15694153429E+01  0.28624621493E+01  0.30165190297E+02  0.00000000000E+00 0. -1.
</event>
<event>
 7    1  0.6255318E-006  0.1333077E+03  0.7818608E-02  0.1421543E+00
          2   -1    0    0  502    0  0.00000000000E+00  0.00000000000E+00  0.17826491511E+04  0.17826491511E+04  0.00000000000E+00 0. -1.
          1   -1    0    0  501    0 -0.00000000000E+00 -0.00000000000E+00 -0.26599656715E+03  0.26599656715E+03  0.00000000000E+00 0. -1.
         25    2    1    2    0    0 -0.14403108045E+03 -0.18769956891E+02  0.50495026470E+03  0.54008927367E+03  0.12499756112E+03 0.  0.
          2    1    1    2  501    0  0.12858604945E+02  0.18392352536E+02 -0.24449818500E+03  0.24552593513E+03  0.00000000000E+00 0. -1.
          1    1    1    2  502    0  0.13117247551E+03  0.37760435539E+00  0.12562005043E+04  0.12630305095E+04  0.00000000000E+00 0. -1.
         22    1    3    3    0    0 -0.50046579016E+02  0.51783282504E+02  0.15450049519E+03  0.17045988217E+03  0.00000000000E+00 0. -1.
         22    1    3    3    0    0 -0.93984501438E+02 -0.70553239395E+02  0.35044976952E+03  0.36962939149E+03  0.00000000000E+00 0. -1.
</event>
<event>
 7    1  0.6255318E-006  0.2634963E+02  0.7818608E-02  0.1648519E+00
          2   -1    0    0  502    0  0.00000000000E+00  0.00000000000E+00  0.88709408394E+03  0.88709408394E+03  0.00000000000E+00 0. -1.
          1   -1    0    0  501    0 -0.00000000000E+00 -0.00000000000E+00 -0.70808456605E+02  0.70808456605E+02  0.00000000000E+00 0. -1.
         25    2    1    2    0    0 -0.18090015450E+02 -0.25726692409E+02  0.10960415658E+03  0.16919662190E+03  0.12500125743E+03 0.  0.
          2    1    1    2  501    0  0.25438400404E+02  0.36853811002E+00 -0.36809790676E+02  0.44746047033E+02  0.00000000000E+00 0. -1.
          1    1    1    2  502    0 -0.73483849541E+01  0.25358154299E+02  0.74349126143E+03  0.74395987162E+03  0.00000000000E+00 0. -1.
         22    1    3    3    0    0 -0.42193451872E+02  0.61850968807E+01  0.12043682085E+03  0.12776372967E+03  0.00000000000E+00 0. -1.
         22    1    3    3    0    0  0.24103436422E+02 -0.31911789289E+02 -0.10832664265E+02  0.41432892224E+02  0.00000000000E+00 0. -1.
</event>
<event>
 7    1  0.6255318E-006  0.5224126E+02  0.7818608E-02  0.1435669E+00
          2   -1    0    0  502    0  0.00000000000E+00  0.00000000000E+00  0.21417894646E+04  0.21417894646E+04  0.00000000000E+00 0. -1.
          1   -1    0    0  501    0 -0.00000000000E+00 -0.00000000000E+00 -0.21363437953E+02  0.21363437953E+02  0.00000000000E+00 0. -1.
         25    2    1    2    0    0  0.29841367333E+02 -0.56550553620E+02  0.73176581113E+03  0.74511390643E+03  0.12500023562E+03 0.  0.
          2    1    1    2  501    0 -0.51977888023E+02  0.10118221673E+02  0.35163855505E+02  0.63565525147E+02  0.00000000000E+00 0. -1.
          1    1    1    2  502    0  0.22136520691E+02  0.46432331946E+02  0.13534963600E+04  0.13544734710E+04  0.00000000000E+00 0. -1.
         22    1    3    3    0    0 -0.36001726113E+02 -0.19578740486E+02  0.49279608368E+03  0.49449715010E+03  0.00000000000E+00 0. -1.
         22    1    3    3    0    0  0.65843093446E+02 -0.36971813133E+02  0.23896972745E+03  0.25061675634E+03  0.00000000000E+00 0. -1.
</event>
<event>
 7    1  0.6255318E-006  0.1248627E+03  0.7818608E-02  0.1282457E+00
          2   -1    0    0  502    0  0.00000000000E+00  0.00000000000E+00  0.83860509744E+03  0.83860509744E+03  0.00000000000E+00 0. -1.
          1   -1    0    0  501    0 -0.00000000000E+00 -0.00000000000E+00 -0.57826913041E+03  0.57826913041E+03  0.00000000000E+00 0. -1.
         25    2    1    2    0    0 -0.35501206880E+02  0.12359303284E+03 -0.18291284361E+03  0.25615987128E+03  0.12500079136E+03 0.  0.
          2    1    1    2  501    0 -0.63245962592E+02 -0.46434017980E+02 -0.34946063398E+03  0.35816044521E+03  0.00000000000E+00 0. -1.
          1    1    1    2  502    0  0.98747169472E+02 -0.77159014860E+02  0.79270944462E+03  0.80255391136E+03  0.00000000000E+00 0. -1.
         22    1    3    3    0    0 -0.28139332588E+02 -0.12972652463E+02 -0.44261904552E+01  0.31300206267E+02  0.00000000000E+00 0. -1.
         22    1    3    3    0    0 -0.73618742926E+01  0.13656568530E+03 -0.17848665316E+03  0.22485966501E+03  0.00000000000E+00 0. -1.
</event>
<event>
 7    1  0.6255318E-006  0.9984062E+02  0.7818608E-02  0.1291498E+00
          2   -1    0    0  502    0  0.00000000000E+00  0.00000000000E+00  0.76402797832E+03  0.76402797832E+03  0.00000000000E+00 0. -1.
          1   -1    0    0  501    0 -0.00000000000E+00 -0.00000000000E+00 -0.16729019029E+04  0.16729019029E+04  0.00000000000E+00 0. -1.
         25    2    1    2    0    0 -0.28598505256E+02  0.66891244593E+02 -0.80179537759E+02  0.16536542610E+03  0.12499861106E+03 0.  0.
          2    1    1    2  501    0  0.88868382050E+02  0.14980446302E+02 -0.15452284077E+04  0.15478542680E+04  0.00000000000E+00 0. -1.
          1    1    1    2  502    0 -0.60269876795E+02 -0.81871690895E+02  0.71653402088E+03  0.72371018709E+03  0.00000000000E+00 0. -1.
         22    1    3    3    0    0  0.40561809114E+02  0.16637201056E+02 -0.65205302859E+02  0.78573458232E+02  0.00000000000E+00 0.  1.
         22    1    3    3    0    0 -0.69160314370E+02  0.50254043537E+02 -0.14974234900E+02  0.86791967868E+02  0.00000000000E+00 0.  1.
</event>
<event>
 7    1  0.6255318E-006  0.5640995E+02  0.7818608E-02  0.1516694E+00
          2   -1    0    0  502    0  0.00000000000E+00  0.00000000000E+00  0.25622498594E+03  0.25622498594E+03  0.00000000000E+00 0. -1.
          1   -1    0    0  501    0 -0.00000000000E+00 -0.00000000000E+00 -0.17162701043E+03  0.17162701043E+03  0.00000000000E+00 0. -1.
         25    2    1    2    0    0 -0.19580000518E+02  0.48867685372E+02  0.94994516366E+02  0.16559434020E+03  0.12500440101E+03 0.  0.
          2    1    1    2  501    0  0.25239832432E+02  0.89635182893E+01 -0.12816512660E+03  0.13093392791E+03  0.00000000000E+00 0. -1.
          1    1    1    2  502    0 -0.56598319146E+01 -0.57831203661E+02  0.11776858575E+03  0.13132372826E+03  0.00000000000E+00 0. -1.
         22    1    3    3    0    0  0.24059787540E+02  0.16083053787E+02  0.10602889841E+03  0.10990753066E+03  0.00000000000E+00 0.  1.
         22    1    3    3    0    0 -0.43639788058E+02  0.32784631585E+02 -0.11034382049E+02  0.55686809543E+02  0.00000000000E+00 0.  1.
</event>
<event>
 7    1  0.6255318E-006  0.1096885E+03  0.7818608E-02  0.1278085E+00
          2   -1    0    0  502    0  0.00000000000E+00  0.00000000000E+00  0.35008166988E+04  0.35008166988E+04  0.00000000000E+00 0. -1.
          1   -1    0    0  501    0 -0.00000000000E+00 -0.00000000000E+00 -0.15842148039E+04  0.15842148039E+04  0.00000000000E+00 0. -1.
         25    2    1    2    0    0 -0.90849179442E+01  0.20041984662E+02  0.56056408910E+03  0.57475248825E+03  0.12499643148E+03 0.  0.
          2    1    1    2  501    0 -0.22205237930E+02 -0.10773456804E+03 -0.15744623140E+04  0.15783001578E+04  0.00000000000E+00 0. -1.
          1    1    1    2  502    0  0.31290155874E+02  0.87692583381E+02  0.29305001198E+04  0.29319788566E+04  0.00000000000E+00 0. -1.
         22    1    3    3    0    0 -0.47545754322E+01  0.13585345227E+02  0.26122127989E+00  0.14395687863E+02  0.00000000000E+00 0.  1.
         22    1    3    3    0    0 -0.43303425120E+01  0.64566394348E+01  0.56030286782E+03  0.56035680039E+03  0.00000000000E+00 0.  1.
</event>
<event>
 7    1  0.6255318E-006  0.4578041E+02  0.7818608E-02  0.1561529E+00
          2   -1    0    0  502    0  0.00000000000E+00  0.00000000000E+00  0.35752989327E+03  0.35752989327E+03  0.00000000000E+00 0. -1.
          1   -1    0    0  501    0 -0.00000000000E+00 -0.00000000000E+00 -0.16718446636E+03  0.16718446636E+03  0.00000000000E+00 0. -1.
         25    2    1    2    0    0 -0.60355744795E+02  0.18388635758E+02  0.12077057306E+03  0.18490866806E+03  0.12499890540E+03 0.  0.
          2    1    1    2  501    0  0.37025709580E+02 -0.26314749174E+02 -0.13052047969E+03  0.13819900438E+03  0.00000000000E+00 0. -1.
          1    1    1    2  502    0  0.23330035214E+02  0.79261134156E+01  0.20009533354E+03  0.20160668719E+03  0.00000000000E+00 0. -1.
         22    1    3    3    0    0 -0.40205532724E+02  0.45958279389E+02  0.13480403024E+03  0.14798910391E+03  0.00000000000E+00 0.  1.
         22    1    3    3    0    0 -0.20150212071E+02 -0.27569643631E+02 -0.14033457182E+02  0.36919564149E+02  0.00000000000E+00 0.  1.
</event>
<event>
 7    1  0.6255318E-006  0.7019501E+02  0.7818608E-02  0.1514055E+00
          2   -1    0    0  502    0  0.00000000000E+00  0.00000000000E+00  0.64766314489E+03  0.64766314489E+03  0.00000000000E+00 0. -1.
          1   -1    0    0  501    0 -0.00000000000E+00 -0.00000000000E+00 -0.49454806210E+03  0.49454806210E+03  0.00000000000E+00 0. -1.
         25    2    1    2    0    0  0.61065575890E+02  0.55359198200E+02 -0.23867619681E+03  0.28174851728E+03  0.12498901824E+03 0.  0.
          2    1    1    2  501    0 -0.21743200861E+02  0.26976309946E+01 -0.23185442338E+03  0.23288734967E+03  0.00000000000E+00 0. -1.
          1    1    1    2  502    0 -0.39322375029E+02 -0.58056829195E+02  0.62364570298E+03  0.62757534005E+03  0.00000000000E+00 0. -1.
         22    1    3    3    0    0 -0.24571765733E+02  0.33880276221E+02 -0.15337537950E+03  0.15898318095E+03  0.00000000000E+00 0.  1.
         22    1    3    3    0    0  0.85637341623E+02  0.21478921979E+02 -0.85300817310E+02  0.12276533633E+03  0.00000000000E+00 0.  1.
</event>
<event>
 7    1  0.6255318E-006  0.7562725E+02  0.7818608E-02  0.1422601E+00
          2   -1    0    0  502    0  0.00000000000E+00  0.00000000000E+00  0.24444374527E+03  0.24444374527E+03  0.00000000000E+00 0. -1.
          1   -1    0    0  501    0 -0.00000000000E+00 -0.00000000000E+00 -0.31532167456E+03  0.31532167456E+03  0.00000000000E+00 0. -1.
         25    2    1    2    0    0  0.67450553408E+02 -0.47204073361E+02 -0.67260215762E+02  0.16409444231E+03  0.12500099071E+03 0.  0.
          2    1    1    2  501    0 -0.33439877996E+02 -0.20527948319E+02 -0.19024057700E+03  0.19424494649E+03  0.00000000000E+00 0. -1.
          1    1    1    2  502    0 -0.34010675412E+02  0.67732021680E+02  0.18662286347E+03  0.20142603102E+03  0.00000000000E+00 0. -1.
         22    1    3    3    0    0  0.31326899581E+02 -0.85713298951E+02 -0.63466061433E+02  0.11115792913E+03  0.00000000000E+00 0. -1.
         22    1    3    3    0    0  0.36123653826E+02  0.38509225589E+02 -0.37941543291E+01  0.52936513186E+02  0.00000000000E+00 0. -1.
</event>
<event>
 7    1  0.6255318E-006  0.4262319E+02  0.7818608E-02  0.1516277E+00
          2   -1    0    0  502    0  0.00000000000E+00  0.00000000000E+00  0.70076221669E+03  0.70076221669E+03  0.00000000000E+00 0. -1.
          1   -1    0    0  501    0 -0.00000000000E+00 -0.00000000000E+00 -0.16534701141E+04  0.16534701141E+04  0.00000000000E+00 0. -1.
         25    2    1    2    0    0  0.48946838859E+02 -0.21638371745E+02  0.22026486002E+02  0.13769451502E+03  0.12494239158E+03 0.  0.
          2    1    1    2  501    0 -0.17786258423E+02  0.38744564560E+02 -0.15948422377E+04  0.15954119391E+04  0.00000000000E+00 0. -1.
          1    1    1    2  502    0 -0.31160580436E+02 -0.17106192815E+02  0.62010785434E+03  0.62112587663E+03  0.00000000000E+00 0. -1.
         22    1    3    3    0    0  0.55929926660E+02 -0.19139958091E+01 -0.42235560560E+02  0.70111786826E+02  0.00000000000E+00 0. -1.
         22    1    3    3    0    0 -0.69830878005E+01 -0.19724375936E+02  0.64262046562E+02  0.67582728190E+02  0.00000000000E+00 0. -1.
</event>
<event>
 7    1  0.6255318E-006  0.5437809E+02  0.7818608E-02  0.1560699E+00
          2   -1    0    0  502    0  0.00000000000E+00  0.00000000000E+00  0.33441668693E+03  0.33441668693E+03  0.00000000000E+00 0. -1.
          1   -1    0    0  501    0 -0.00000000000E+00 -0.00000000000E+00 -0.13843591035E+04  0.13843591035E+04  0.00000000000E+00 0. -1.
         25    2    1    2    0    0  0.32153305015E+02  0.26553288312E+02 -0.44779904557E+03  0.46678445056E+03  0.12499930370E+03 0.  0.
          2    1    1    2  501    0 -0.29470405696E+02 -0.47233064980E+02 -0.92589578477E+03  0.92756804144E+03  0.00000000000E+00 0. -1.
          1    1    1    2  502    0 -0.26828993188E+01  0.20679776668E+02  0.32375241380E+03  0.32442329841E+03  0.00000000000E+00 0. -1.
         22    1    3    3    0    0  0.35797602311E+02 -0.25705133016E+01 -0.43192951013E+03  0.43341801715E+03  0.00000000000E+00 0.  1.
         22    1    3    3    0    0 -0.36442972960E+01  0.29123801614E+02 -0.15869535439E+02  0.33366433407E+02  0.00000000000E+00 0.  1.
</event>
<event>
 7    1  0.6255318E-006  0.4004831E+02  0.7818608E-02  0.1528659E+00
          2   -1    0    0  502    0  0.00000000000E+00  0.00000000000E+00  0.12372210713E+03  0.12372210713E+03  0.00000000000E+00 0. -1.
          1   -1    0    0  501    0 -0.00000000000E+00 -0.00000000000E+00 -0.99891666633E+03  0.99891666633E+03  0.00000000000E+00 0. -1.
         25    2    1    2    0    0 -0.22626921148E+01 -0.35674863269E+02 -0.36915544645E+03  0.39136161506E+03  0.12494140408E+03 0.  0.
          2    1    1    2  501    0 -0.31382812217E+02  0.26645602251E+02 -0.61525974587E+03  0.61663556815E+03  0.00000000000E+00 0. -1.
          1    1    1    2  502    0  0.33645504332E+02  0.90292610174E+01  0.10922063312E+03  0.11464159025E+03  0.00000000000E+00 0. -1.
         22    1    3    3    0    0  0.30047314086E+02 -0.43397146746E+02 -0.34799332003E+03  0.35197372660E+03  0.00000000000E+00 0.  1.
         22    1    3    3    0    0 -0.32310006201E+02  0.77222834769E+01 -0.21162126422E+02  0.39387888462E+02  0.00000000000E+00 0.  1.
</event>
<event>
 7    1  0.6255318E-006  0.1724607E+03  0.7818608E-02  0.1399378E+00
          2   -1    0    0  502    0  0.00000000000E+00  0.00000000000E+00  0.42671483426E+03  0.42671483426E+03  0.00000000000E+00 0. -1.
          1   -1    0    0  501    0 -0.00000000000E+00 -0.00000000000E+00 -0.74075769726E+03  0.74075769726E+03  0.00000000000E+00 0. -1.
         25    2    1    2    0    0  0.15036705664E+03 -0.42291854854E+02 -0.57848968211E+03  0.61210677667E+03  0.12500216410E+03 0.  0.
          2    1    1    2  501    0  0.12285778497E+02 -0.16560144119E+02 -0.12633859567E+03  0.12801023195E+03  0.00000000000E+00 0. -1.
          1    1    1    2  502    0 -0.16265283513E+03  0.58851998972E+02  0.39078541478E+03  0.42735552291E+03  0.00000000000E+00 0. -1.
         22    1    3    3    0    0 -0.87874336607E+01  0.19615027972E+02 -0.25503274071E+02  0.33352440705E+02  0.00000000000E+00 0. -1.
         22    1    3    3    0    0  0.15915449030E+03 -0.61906882825E+02 -0.55298640804E+03  0.57875433596E+03  0.00000000000E+00 0. -1.
</event>
<event>
 7    1  0.6255318E-006  0.4019872E+02  0.7818608E-02  0.1527821E+00
          2   -1    0    0  502    0  0.00000000000E+00  0.00000000000E+00  0.17714038925E+04  0.17714038925E+04  0.00000000000E+00 0. -1.
          1   -1    0    0  501    0 -0.00000000000E+00 -0.00000000000E+00 -0.17824027296E+03  0.17824027296E+03  0.00000000000E+00 0. -1.
         25    2    1    2    0    0 -0.22198753660E+02 -0.63393882889E+02  0.83537196573E+02  0.16466656643E+03  0.12500018335E+03 0.  0.
          2    1    1    2  501    0 -0.33012081712E+01  0.39568297579E+02 -0.13462378165E+03  0.14035708295E+03  0.00000000000E+00 0. -1.
          1    1    1    2  502    0  0.25499961831E+02  0.23825585311E+02  0.16442502047E+04  0.16446205161E+04  0.00000000000E+00 0. -1.
         22    1    3    3    0    0  0.36106371583E+02 -0.38011274323E+02  0.86344139444E+02  0.10101404586E+03  0.00000000000E+00 0.  1.
         22    1    3    3    0    0 -0.58305125243E+02 -0.25382608566E+02 -0.28069428712E+01  0.63652520575E+02  0.00000000000E+00 0.  1.
</event>
<event>
 7    1  0.6255318E-006  0.7944843E+02  0.7818608E-02  0.1389046E+00
          2   -1    0    0  502    0  0.00000000000E+00  0.00000000000E+00  0.15244556566E+04  0.15244556566E+04  0.00000000000E+00 0. -1.
          1   -1    0    0  501    0 -0.00000000000E+00 -0.00000000000E+00 -0.84543029825E+02  0.84543029825E+02  0.00000000000E+00 0. -1.
         25    2    1    2    0    0  0.84943848948E+02 -0.25487321131E+02  0.40160178142E+02  0.15844022403E+03  0.12500161467E+03 0.  0.
          2    1    1    2  501    0 -0.51054761979E+02  0.60335882502E+02  0.37576939410E+02  0.87515906060E+02  0.00000000000E+00 0. -1.
          1    1    1    2  502    0 -0.33889086969E+02 -0.34848561372E+02  0.13621755092E+04  0.13630425563E+04  0.00000000000E+00 0. -1.
         22    1    3    3    0    0  0.80766942581E+02  0.23367017411E+02 -0.14159959103E+02  0.85263245061E+02  0.00000000000E+00 0.  1.
         22    1    3    3    0    0  0.41769063670E+01 -0.48854338541E+02  0.54320137245E+02  0.73176978972E+02  0.00000000000E+00 0.  1.
</event>
<event>
 7    1  0.6255318E-006  0.6571840E+02  0.7818608E-02  0.1503786E+00
          2   -1    0    0  502    0  0.00000000000E+00  0.00000000000E+00  0.78583711384E+03  0.78583711384E+03  0.00000000000E+00 0. -1.
          1   -1    0    0  501    0 -0.00000000000E+00 -0.00000000000E+00 -0.15051645314E+04  0.15051645314E+04  0.00000000000E+00 0. -1.
         25    2    1    2    0    0  0.41322725403E+02 -0.21955241737E+02  0.12038780627E+03  0.17974271293E+03  0.12499847470E+03 0.  0.
          2    1    1    2  501    0  0.73577098442E+01 -0.23988694910E+02 -0.14736180930E+04  0.14738316991E+04  0.00000000000E+00 0. -1.
          1    1    1    2  502    0 -0.48680435247E+02  0.45943936647E+02  0.63390286915E+03  0.63742723318E+03  0.00000000000E+00 0. -1.
         22    1    3    3    0    0  0.40976689205E+02  0.34448770950E+02  0.11007550338E+03  0.12240270962E+03  0.00000000000E+00 0. -1.
         22    1    3    3    0    0  0.34603619828E+00 -0.56404012687E+02  0.10312302886E+02  0.57340003305E+02  0.00000000000E+00 0. -1.
</event>
<event>
 7    1  0.6255318E-006  0.6636639E+02  0.7818608E-02  0.1436467E+00
          2   -1    0    0  502    0  0.00000000000E+00  0.00000000000E+00  0.10098293837E+04  0.10098293837E+04  0.00000000000E+00 0. -1.
          1   -1    0    0  501    0 -0.00000000000E+00 -0.00000000000E+00 -0.49012802675E+03  0.49012802675E+03  0.00000000000E+00 0. -1.
         25    2    1    2    0    0 -0.55679838251E+02  0.21474723181E+02  0.30273725751E+03  0.33292057777E+03  0.12499942358E+03 0.  0.
          2    1    1    2  501    0  0.35445523962E+02 -0.56267979966E+02 -0.47211881132E+03  0.47677944874E+03  0.00000000000E+00 0. -1.
          1    1    1    2  502    0  0.20234314289E+02  0.34793256786E+02  0.68908291073E+03  0.69025738391E+03  0.00000000000E+00 0. -1.
         22    1    3    3    0    0  0.27249115768E+02 -0.18854991465E+02  0.28883782841E+02  0.43957910829E+02  0.00000000000E+00 0.  1.
         22    1    3    3    0    0 -0.82928954019E+02  0.40329714646E+02  0.27385347467E+03  0.28896266694E+03  0.00000000000E+00 0.  1.
</event>
<event>
 7    1  0.6255318E-006  0.1035507E+03  0.7818608E-02  0.1332482E+00
          2   -1    0    0  502    0  0.00000000000E+00  0.00000000000E+00  0.41321682826E+03  0.41321682826E+03  0.00000000000E+00 0. -1.
          1   -1    0    0  501    0 -0.00000000000E+00 -0.00000000000E+00 -0.75321211393E+03  0.75321211393E+03  0.00000000000E+00 0. -1.
         25    2    1    2    0    0  0.56762958271E+02  0.70969566635E+02 -0.38055708211E+03  0.41073712857E+03  0.12499033251E+03 0.  0.
          2    1    1    2  501    0 -0.16940953054E+02 -0.11580952848E+03 -0.34561036724E+03  0.36489089975E+03  0.00000000000E+00 0. -1.
          1    1    1    2  502    0 -0.39822005217E+02  0.44839961841E+02  0.38617216369E+03  0.39080091387E+03  0.00000000000E+00 0. -1.
         22    1    3    3    0    0  0.90061420666E+01  0.52527076277E+02 -0.40730168551E+02  0.67075710711E+02  0.00000000000E+00 0. -1.
         22    1    3    3    0    0  0.47756816204E+02  0.18442490358E+02 -0.33982691356E+03  0.34366141786E+03  0.00000000000E+00 0. -1.
</event>
<event>
 7    1  0.6255318E-006  0.1280316E+03  0.7818608E-02  0.1302448E+00
          2   -1    0    0  502    0  0.00000000000E+00  0.00000000000E+00  0.96342109266E+03  0.96342109266E+03  0.00000000000E+00 0. -1.
          1   -1    0    0  501    0 -0.00000000000E+00 -0.00000000000E+00 -0.20886006661E+03  0.20886006661E+03  0.00000000000E+00 0. -1.
         25    2    1    2    0    0  0.10810761268E+03  0.14395450299E+02  0.93889806600E+02  0.19061862996E+03  0.12500272555E+03 0.  0.
          2    1    1    2  501    0 -0.12559355741E+03  0.46649765003E+02 -0.13104101848E+03  0.18740781937E+03  0.00000000000E+00 0. -1.
          1    1    1    2  502    0  0.17485944724E+02 -0.61045215302E+02  0.79171223793E+03  0.79425470994E+03  0.00000000000E+00 0. -1.
         22    1    3    3    0    0  0.44734632553E+02 -0.19388408587E+02  0.10702911580E+03  0.11761092367E+03  0.00000000000E+00 0. -1.
         22    1    3    3    0    0  0.63372980129E+02  0.33783858886E+02 -0.13139309198E+02  0.73007706291E+02  0.00000000000E+00 0. -1.
</event>
<event>
 7    1  0.6255318E-006  0.7605055E+02  0.7818608E-02  0.1479887E+00
          2   -1    0    0  502    0  0.00000000000E+00  0.00000000000E+00  0.49973144807E+03  0.49973144807E+03  0.00000000000E+00 0. -1.
          1   -1    0    0  501    0 -0.00000000000E+00 -0.00000000000E+00 -0.17449733814E+04  0.17449733814E+04  0.00000000000E+00 0. -1.
         25    2    1    2    0    0  0.82258943490E+02 -0.44208499853E+02  0.53280645912E+02  0.16487730043E+03  0.12499908690E+03 0.  0.
          2    1    1    2  501    0 -0.73176248800E+02  0.20273800972E+02 -0.16879011751E+04  0.16896082881E+04  0.00000000000E+00 0. -1.
          1    1    1    2  502    0 -0.90826946898E+01  0.23934698881E+02  0.38937859580E+03  0.39021924097E+03  0.00000000000E+00 0. -1.
         22    1    3    3    0    0  0.11186241895E+03 -0.27828017230E+02  0.19209679666E+02  0.11686150396E+03  0.00000000000E+00 0. -1.
         22    1    3    3    0    0 -0.29603475455E+02 -0.16380482623E+02  0.34070966246E+02  0.48015796473E+02  0.00000000000E+00 0. -1.
</event>
<event>
 7    1  0.6255318E-006  0.6311116E+02  0.7818608E-02  0.1471684E+00
          2   -1    0    0  502    0  0.00000000000E+00  0.00000000000E+00  0.16191719630E+04  0.16191719630E+04  0.00000000000E+00 0. -1.
          1   -1    0    0  501    0 -0.00000000000E+00 -0.00000000000E+00 -0.12613082952E+03  0.12613082952E+03  0.00000000000E+00 0. -1.
         25    2    1    2    0    0  0.46334769193E+02  0.12585738643E+02  0.47932647412E+03  0.49767858999E+03  0.12499919397E+03 0.  0.
          2    1    1    2  501    0  0.61960337217E+00  0.32694444695E+02 -0.11370772446E+03  0.11831634385E+03  0.00000000000E+00 0. -1.
          1    1    1    2  502    0 -0.46954372565E+02 -0.45280183338E+02  0.11274223838E+04  0.11293078586E+04  0.00000000000E+00 0. -1.
         22    1    3    3    0    0  0.15780205084E+02 -0.11017199138E+01  0.45736435533E+03  0.45763782862E+03  0.00000000000E+00 0. -1.
         22    1    3    3    0    0  0.30554564109E+02  0.13687458556E+02  0.21962118793E+02  0.40040761375E+02  0.00000000000E+00 0. -1.
</event>
<event>
 7    1  0.6255318E-006  0.8994702E+02  0.7818608E-02  0.1378787E+00
          2   -1    0    0  502    0  0.00000000000E+00  0.00000000000E+00  0.14733200109E+03  0.14733200109E+03  0.00000000000E+00 0. -1.
          1   -1    0    0  501    0 -0.00000000000E+00 -0.00000000000E+00 -0.23130840818E+03  0.23130840818E+03  0.00000000000E+00 0. -1.
         25    2    1    2    0    0  0.86085840931E+02 -0.93554603492E+02  0.37277399130E+01  0.17833087004E+03  0.12499906929E+03 0.  0.
          2    1    1    2  501    0 -0.44801631865E+02  0.71811680162E+02 -0.11760090301E+03  0.14489332632E+03  0.00000000000E+00 0. -1.
          1    1    1    2  502    0 -0.41284209065E+02  0.21742923330E+02  0.29896756003E+02  0.55416212904E+02  0.00000000000E+00 0. -1.
         22    1    3    3    0    0  0.24351424091E+01  0.51638137889E+01  0.42790156711E+02  0.43169345637E+02  0.00000000000E+00 0. -1.
         22    1    3    3    0    0  0.83650698521E+02 -0.98718417281E+02 -0.39062416798E+02  0.13516152441E+03  0.00000000000E+00 0. -1.
</event>
<event>
 7    1  0.6255318E-006  0.1036567E+03  0.7818608E-02  0.1382026E+00
          2   -1    0    0  502    0  0.00000000000E+00  0.00000000000E+00  0.11680090981E+04  0.11680090981E+04  0.00000000000E+00 0. -1.
          1   -1    0    0  501    0 -0.00000000000E+00 -0.00000000000E+00 -0.44516932984E+03  0.44516932984E+03  0.00000000000E+00 0. -1.
         25    2    1    2    0    0 -0.87451115130E+02 -0.21166592174E+02 -0.37122358889E+02  0.15842184461E+03  0.12499475653E+03 0.  0.
          2    1    1    2  501    0  0.87241928816E+02  0.60599984665E+02 -0.33891525238E+03  0.35517187470E+03  0.00000000000E+00 0. -1.
          1    1    1    2  502    0  0.20918631452E+00 -0.39433392491E+02  0.10988773795E+04  0.10995847086E+04  0.00000000000E+00 0. -1.
         22    1    3    3    0    0 -0.95753692910E+02 -0.44172182981E+01  0.20344551750E+02  0.97990725630E+02  0.00000000000E+00 0.  1.
         22    1    3    3    0    0  0.83025777803E+01 -0.16749373876E+02 -0.57466910639E+02  0.60431118982E+02  0.00000000000E+00 0.  1.
</event>
<event>
 7    1  0.6255318E-006  0.4253430E+02  0.7818608E-02  0.1536901E+00
          2   -1    0    0  502    0  0.00000000000E+00  0.00000000000E+00  0.11739495027E+04  0.11739495027E+04  0.00000000000E+00 0. -1.
          1   -1    0    0  501    0 -0.00000000000E+00 -0.00000000000E+00 -0.55889162839E+02  0.55889162839E+02  0.00000000000E+00 0. -1.
         25    2    1    2    0    0  0.30975048077E+02 -0.65645680000E+02  0.31215738625E+03  0.34400051455E+03  0.12500124524E+03 0.  0.
          2    1    1    2  501    0 -0.16904121336E+02  0.37943879786E+02 -0.28806902274E+02  0.50550222057E+02  0.00000000000E+00 0. -1.
          1    1    1    2  502    0 -0.14070926741E+02  0.27701800214E+02  0.83470985592E+03  0.83528792897E+03  0.00000000000E+00 0. -1.
         22    1    3    3    0    0  0.16719695722E+02 -0.10146181732E+03  0.25604774814E+03  0.27592480484E+03  0.00000000000E+00 0. -1.
         22    1    3    3    0    0  0.14255352355E+02  0.35816137318E+02  0.56109638109E+02  0.68075709705E+02  0.00000000000E+00 0. -1.
</event>
<event>
 7    1  0.6255318E-006  0.1763642E+03  0.7818608E-02  0.1304205E+00
          2   -1    0    0  502    0  0.00000000000E+00  0.00000000000E+00  0.31935932556E+03  0.31935932556E+03  0.00000000000E+00 0. -1.
          1   -1    0    0  501    0 -0.00000000000E+00 -0.00000000000E+00 -0.17301598607E+03  0.17301598607E+03  0.00000000000E+00 0. -1.
         25    2    1    2    0    0  0.14009245859E+02 -0.15866779368E+03 -0.17008581054E+02  0.20318970894E+03  0.12500015307E+03 0.  0.
          2    1    1    2  501    0  0.41073098496E+02 -0.19252204580E+02  0.62965278060E+02  0.77603305616E+02  0.00000000000E+00 0. -1.
          1    1    1    2  502    0 -0.55082344355E+02  0.17791999826E+03  0.10038664249E+03  0.21158229707E+03  0.00000000000E+00 0. -1.
         22    1    3    3    0    0 -0.43117095434E+02 -0.97354078214E+02  0.25114370220E+02  0.10939667296E+03  0.00000000000E+00 0. -1.
         22    1    3    3    0    0  0.57126341293E+02 -0.61313715470E+02 -0.42122951275E+02  0.93793035980E+02  0.00000000000E+00 0. -1.
</event>
<event>
 7    1  0.6255318E-006  0.7743618E+02  0.7818608E-02  0.1432767E+00
          2   -1    0    0  502    0  0.00000000000E+00  0.00000000000E+00  0.63092192312E+03  0.63092192312E+03  0.00000000000E+00 0. -1.
          1   -1    0    0  501    0 -0.00000000000E+00 -0.00000000000E+00 -0.30169928929E+03  0.30169928929E+03  0.00000000000E+00 0. -1.
         25    2    1    2    0    0 -0.40683184720E+02 -0.47857148533E+02  0.29387080939E+03  0.32546232550E+03  0.12498097665E+03 0.  0.
          2    1    1    2  501    0  0.71590891850E+02  0.30454819963E+02 -0.27959685562E+03  0.29021914742E+03  0.00000000000E+00 0. -1.
          1    1    1    2  502    0 -0.30907707130E+02  0.17402328569E+02  0.31494868006E+03  0.31693973950E+03  0.00000000000E+00 0. -1.
         22    1    3    3    0    0 -0.30877941243E+02  0.12396124739E+02  0.24504112403E+03  0.24728983730E+03  0.00000000000E+00 0.  1.
         22    1    3    3    0    0 -0.98052434769E+01 -0.60253273272E+02  0.48829685359E+02  0.78172488203E+02  0.00000000000E+00 0.  1.
</event>
<event>
 7    1  0.6255318E-006  0.6962271E+02  0.7818608E-02  0.1370861E+00
          2   -1    0    0  502    0  0.00000000000E+00  0.00000000000E+00  0.79157195252E+02  0.79157195252E+02  0.00000000000E+00 0. -1.
          1   -1    0    0  501    0 -0.00000000000E+00 -0.00000000000E+00 -0.23510051477E+04  0.23510051477E+04  0.00000000000E+00 0. -1.
         25    2    1    2    0    0  0.73026172277E+01  0.20333258806E+01 -0.70693774527E+03  0.71794377265E+03  0.12499928945E+03 0.  0.
          2    1    1    2  501    0  0.62948850132E+02 -0.13298082904E+02 -0.16205936706E+04  0.16218702914E+04  0.00000000000E+00 0. -1.
          1    1    1    2  502    0 -0.70251467360E+02  0.11264757024E+02  0.55683463409E+02  0.90348278978E+02  0.00000000000E+00 0. -1.
         22    1    3    3    0    0  0.52247647394E+02 -0.17439768689E+02 -0.16831864392E+03  0.17710202732E+03  0.00000000000E+00 0.  1.
         22    1    3    3    0    0 -0.44945030166E+02  0.19473094570E+02 -0.53861910135E+03  0.54084174533E+03  0.00000000000E+00 0.  1.
</event>
<event>
 7    1  0.6255318E-006  0.5290185E+02  0.7818608E-02  0.1509883E+00
          2   -1    0    0  502    0  0.00000000000E+00  0.00000000000E+00  0.18535565872E+04  0.18535565872E+04  0.00000000000E+00 0. -1.
          1   -1    0    0  501    0 -0.00000000000E+00 -0.00000000000E+00 -0.10007382203E+04  0.10007382203E+04  0.00000000000E+00 0. -1.
         25    2    1    2    0    0  0.22100586310E+02 -0.81536380241E+01  0.85501734021E+03  0.86442703302E+03  0.12499810247E+03 0.  0.
          2    1    1    2  501    0 -0.51934002645E+02  0.10199596061E+02 -0.99510503217E+03  0.99651151395E+03  0.00000000000E+00 0. -1.
          1    1    1    2  502    0  0.29833416335E+02 -0.20459580369E+01  0.99290605884E+03  0.99335626054E+03  0.00000000000E+00 0. -1.
         22    1    3    3    0    0 -0.10403001927E+02  0.51290647708E+02  0.23713654162E+03  0.24284293765E+03  0.00000000000E+00 0.  1.
         22    1    3    3    0    0  0.32503588237E+02 -0.59444285732E+02  0.61788079859E+03  0.62158409537E+03  0.00000000000E+00 0.  1.
</event>
<event>
 7    1  0.6255318E-006  0.1009486E+03  0.7818608E-02  0.1369824E+00
          2   -1    0    0  502    0  0.00000000000E+00  0.00000000000E+00  0.44462848821E+03  0.44462848821E+03  0.00000000000E+00 0. -1.
          1   -1    0    0  501    0 -0.00000000000E+00 -0.00000000000E+00 -0.16883431482E+03  0.16883431482E+03  0.00000000000E+00 0. -1.
         25    2    1    2    0    0 -0.36799803518E+02 -0.72703635156E+02  0.85293651643E+02  0.17187313638E+03  0.12500129558E+03 0.  0.
          2    1    1    2  501    0 -0.44536833733E+02  0.44175846146E+01 -0.11220147928E+03  0.12079824736E+03  0.00000000000E+00 0. -1.
          1    1    1    2  502    0  0.81336637251E+02  0.68286050542E+02  0.30270200103E+03  0.32079141928E+03  0.00000000000E+00 0. -1.
         22    1    3    3    0    0  0.24051459060E+02 -0.62927279463E+02  0.90282857792E+00  0.67373067935E+02  0.00000000000E+00 0. -1.
         22    1    3    3    0    0 -0.60851262578E+02 -0.97763556929E+01  0.84390823065E+02  0.10450006845E+03  0.00000000000E+00 0. -1.
</event>
<event>
 7    1  0.6255318E-006  0.4258441E+02  0.7818608E-02  0.1492635E+00
          2   -1    0    0  502    0  0.00000000000E+00  0.00000000000E+00  0.69520154825E+02  0.69520154825E+02  0.00000000000E+00 0. -1.
          1   -1    0    0  501    0 -0.00000000000E+00 -0.00000000000E+00 -0.42453065144E+03  0.42453065144E+03  0.00000000000E+00 0. -1.
         25    2    1    2    0    0 -0.14388394485E+02 -0.52844584837E+01 -0.99875532406E+02  0.16073358939E+03  0.12500085355E+03 0.  0.
          2    1    1    2  501    0  0.52746758495E+00  0.44734791637E+02 -0.28074237007E+03  0.28428464284E+03  0.00000000000E+00 0. -1.
          1    1    1    2  502    0  0.13860926900E+02 -0.39450333153E+02  0.25607405865E+02  0.49032574025E+02  0.00000000000E+00 0. -1.
         22    1    3    3    0    0 -0.42830599600E+02  0.45851977042E+02 -0.29862953398E+02  0.69488560543E+02  0.00000000000E+00 0. -1.
         22    1    3    3    0    0  0.28442205115E+02 -0.51136435525E+02 -0.70012579008E+02  0.91245028847E+02  0.00000000000E+00 0. -1.
</event>
<event>
 7    1  0.6255318E-006  0.1491877E+03  0.7818608E-02  0.1316979E+00
          2   -1    0    0  502    0  0.00000000000E+00  0.00000000000E+00  0.36789218591E+03  0.36789218591E+03  0.00000000000E+00 0. -1.
          1   -1    0    0  501    0 -0.00000000000E+00 -0.00000000000E+00 -0.15857224082E+03  0.15857224082E+03  0.00000000000E+00 0. -1.
         25    2    1    2    0    0  0.48146430590E+02  0.11869350817E+03  0.81317781943E+02  0.19658076585E+03  0.12500075271E+03 0.  0.
          2    1    1    2  501    0 -0.24684622616E+02  0.40886819908E+02 -0.63531173028E+02  0.79481271896E+02  0.00000000000E+00 0. -1.
          1    1    1    2  502    0 -0.23461807974E+02 -0.15958032808E+03  0.19153333618E+03  0.25040238899E+03  0.00000000000E+00 0. -1.
         22    1    3    3    0    0  0.43831213473E+02  0.14470437214E+03  0.59970863324E+02  0.16265618659E+03  0.00000000000E+00 0.  1.
         22    1    3    3    0    0  0.43152171170E+01 -0.26010863962E+02  0.21346918619E+02  0.33924579251E+02  0.00000000000E+00 0.  1.
</event>
<event>
 7    1  0.6255318E-006  0.9802218E+02  0.7818608E-02  0.1337635E+00
          2   -1    0    0  502    0  0.00000000000E+00  0.00000000000E+00  0.29982044424E+03  0.29982044424E+03  0.00000000000E+00 0. -1.
          1   -1    0    0  501    0 -0.00000000000E+00 -0.00000000000E+00 -0.41813694614E+03  0.41813694614E+03  0.00000000000E+00 0. -1.
         25    2    1    2    0    0 -0.14466417355E+03 -0.65892199683E+01  0.82911768612E+02  0.20849634167E+03  0.12500088875E+03 0.  0.
          2    1    1    2  501    0  0.56979193558E+02  0.20534652814E+02 -0.33965190713E+03  0.34500973680E+03  0.00000000000E+00 0. -1.
          1    1    1    2  502    0  0.87684979993E+02 -0.13945432846E+02  0.13842363662E+03  0.16445131191E+03  0.00000000000E+00 0. -1.
         22    1    3    3    0    0 -0.30379936309E+02 -0.39795253591E+02 -0.17241372513E+02  0.52951559605E+02  0.00000000000E+00 0. -1.
         22    1    3    3    0    0 -0.11428423724E+03  0.33206033622E+02  0.10015314113E+03  0.15554478207E+03  0.00000000000E+00 0. -1.
</event>
<event>
 7    1  0.6255318E-006  0.9544003E+02  0.7818608E-02  0.1432437E+00
          2   -1    0    0  502    0  0.00000000000E+00  0.00000000000E+00  0.13014701341E+04  0.13014701341E+04  0.00000000000E+00 0. -1.
          1   -1    0    0  501    0 -0.00000000000E+00 -0.00000000000E+00 -0.11212199528E+03  0.11212199528E+03  0.00000000000E+00 0. -1.
         25    2    1    2    0    0  0.67898257496E+02 -0.15639139354E+02  0.19501328511E+02  0.14441664859E+03  0.12498444113E+03 0.  0.
          2    1    1    2  501    0  0.27966813401E+02  0.70871071321E+01 -0.43401382622E+02  0.52115734216E+02  0.00000000000E+00 0. -1.
          1    1    1    2  502    0 -0.95865070897E+02  0.85520322222E+01  0.12132481929E+04  0.12170597466E+04  0.00000000000E+00 0. -1.
         22    1    3    3    0    0  0.78552043498E+02  0.38301472187E+02  0.18989088968E+02  0.89431604085E+02  0.00000000000E+00 0. -1.
         22    1    3    3    0    0 -0.10653786002E+02 -0.53940611542E+02  0.51223954323E+00  0.54985044503E+02  0.00000000000E+00 0. -1.
</event>
<event>
 7    1  0.6255318E-006  0.5132174E+02  0.7818608E-02  0.1500293E+00
          2   -1    0    0  502    0  0.00000000000E+00  0.00000000000E+00  0.15322420321E+04  0.15322420321E+04  0.00000000000E+00 0. -1.
          1   -1    0    0  501    0 -0.00000000000E+00 -0.00000000000E+00 -0.68612698743E+02  0.68612698743E+02  0.00000000000E+00 0. -1.
         25    2    1    2    0    0 -0.59657178029E+02  0.37490137411E+02  0.25260701875E+03  0.29051663201E+03  0.12500047304E+03 0.  0.
          2    1    1    2  501    0  0.50366269125E+02 -0.59200431236E+01 -0.36436431980E+02  0.62445348519E+02  0.00000000000E+00 0. -1.
          1    1    1    2  502    0  0.92909089040E+01 -0.31570094287E+02  0.12474587466E+04  0.12478927503E+04  0.00000000000E+00 0. -1.
         22    1    3    3    0    0  0.10054064185E+01  0.72571673772E+02  0.14414851342E+03  0.16138913408E+03  0.00000000000E+00 0.  1.
         22    1    3    3    0    0 -0.60662584448E+02 -0.35081536361E+02  0.10845850533E+03  0.12912749794E+03  0.00000000000E+00 0.  1.
</event>
<event>
 7    1  0.6255318E-006  0.6755997E+02  0.7818608E-02  0.1379927E+00
          2   -1    0    0  502    0  0.00000000000E+00  0.00000000000E+00  0.54770937734E+03  0.54770937734E+03  0.00000000000E+00 0. -1.
          1   -1    0    0  501    0 -0.00000000000E+00 -0.00000000000E+00 -0.21841740723E+03  0.21841740723E+03  0.00000000000E+00 0. -1.
         25    2    1    2    0    0  0.39420639336E+02 -0.74869158361E+02  0.46254475938E+02  0.15786893102E+03  0.12499498053E+03 0.  0.
          2    1    1    2  501    0 -0.65332518179E+02  0.19043737501E+02 -0.15323463058E+03  0.16766589957E+03  0.00000000000E+00 0. -1.
          1    1    1    2  502    0  0.25911878843E+02  0.55825420860E+02  0.43627212475E+03  0.44059195398E+03  0.00000000000E+00 0. -1.
         22    1    3    3    0    0  0.73989480330E+02 -0.26880208446E+02 -0.59986007705E+01  0.78949173629E+02  0.00000000000E+00 0.  1.
         22    1    3    3    0    0 -0.34568840993E+02 -0.47988949915E+02  0.52253076708E+02  0.78919757394E+02  0.00000000000E+00 0.  1.
</event>
<event>
 7    1  0.6255318E-006  0.2536654E+02  0.7818608E-02  0.1657321E+00
          2   -1    0    0  502    0  0.00000000000E+00  0.00000000000E+00  0.18517592403E+04  0.18517592403E+04  0.00000000000E+00 0. -1.
          1   -1    0    0  501    0 -0.00000000000E+00 -0.00000000000E+00 -0.13101891568E+03  0.13101891568E+03  0.00000000000E+00 0. -1.
         25    2    1    2    0    0 -0.84471103712E+01 -0.11724472704E+02  0.12847866988E+02  0.12648650691E+03  0.12499980724E+03 0.  0.
          2    1    1    2  501    0  0.25022269199E+02 -0.71912162948E+01 -0.71824210274E+02  0.76397282211E+02  0.00000000000E+00 0. -1.
          1    1    1    2  502    0 -0.16575158828E+02  0.18915688999E+02  0.17797166679E+04  0.17798943669E+04  0.00000000000E+00 0. -1.
         22    1    3    3    0    0 -0.21530207148E+02  0.36223687264E+02 -0.37012463062E+02  0.56085896273E+02  0.00000000000E+00 0.  1.
         22    1    3    3    0    0  0.13083096777E+02 -0.47948159969E+02  0.49860330050E+02  0.70400610639E+02  0.00000000000E+00 0.  1.
</event>
<event>
 7    1  0.6255318E-006  0.1161652E+03  0.7818608E-02  0.1373330E+00
          2   -1    0    0  502    0  0.00000000000E+00  0.00000000000E+00  0.72716612453E+02  0.72716612453E+02  0.00000000000E+00 0. -1.
          1   -1    0    0  501    0 -0.00000000000E+00 -0.00000000000E+00 -0.59161270503E+03  0.59161270503E+03  0.00000000000E+00 0. -1.
         25    2    1    2    0    0 -0.53617644782E+02 -0.90245226013E+02 -0.12704837862E+03  0.20684449440E+03  0.12499720679E+03 0.  0.
          2    1    1    2  501    0  0.89697429513E+02  0.79028637457E+02 -0.40114127334E+03  0.41857553151E+03  0.00000000000E+00 0. -1.
          1    1    1    2  502    0 -0.36079784731E+02  0.11216588556E+02  0.92935593800E+01  0.38909291577E+02  0.00000000000E+00 0. -1.
         22    1    3    3    0    0 -0.60672155661E+02  0.93711545013E+01 -0.33161739154E+02  0.69775568453E+02  0.00000000000E+00 0. -1.
         22    1    3    3    0    0  0.70545108788E+01 -0.99616380514E+02 -0.93886639467E+02  0.13706892595E+03  0.00000000000E+00 0. -1.
</event>
<event>
 7    1  0.6255318E-006  0.9843161E+02  0.7818608E-02  0.1359775E+00
          2   -1    0    0  502    0  0.00000000000E+00  0.00000000000E+00  0.19587040705E+04  0.19587040705E+04  0.00000000000E+00 0. -1.
          1   -1    0    0  501    0 -0.00000000000E+00 -0.00000000000E+00 -0.45083240237E+03  0.45083240237E+03  0.00000000000E+00 0. -1.
         25    2    1    2    0    0  0.67745408728E+01 -0.10130439852E+03  0.70398852863E+02  0.17575715435E+03  0.12500441295E+03 0.  0.
          2    1    1    2  501    0 -0.53316285474E+02  0.83268695849E+02 -0.39166901431E+03  0.40395658031E+03  0.00000000000E+00 0. -1.
          1    1    1    2  502    0  0.46541744601E+02  0.18035702670E+02  0.18291418295E+04  0.18298227382E+04  0.00000000000E+00 0. -1.
         22    1    3    3    0    0 -0.43937059013E+02 -0.71864313263E+02  0.12407296221E+00  0.84231585938E+02  0.00000000000E+00 0. -1.
         22    1    3    3    0    0  0.50711599885E+02 -0.29440085256E+02  0.70274779901E+02  0.91525568411E+02  0.00000000000E+00 0. -1.
</event>
<event>
 7    1  0.6255318E-006  0.5706871E+02  0.7818608E-02  0.1540343E+00
          2   -1    0    0  502    0  0.00000000000E+00  0.00000000000E+00  0.43805333022E+04  0.43805333022E+04  0.00000000000E+00 0. -1.
          1   -1    0    0  501    0 -0.00000000000E+00 -0.00000000000E+00 -0.15214311134E+03  0.15214311134E+03  0.00000000000E+00 0. -1.
         25    2    1    2    0    0  0.40265317708E+02  0.45137690578E+02  0.37658420673E+03  0.40137220086E+03  0.12500108775E+03 0.  0.
          2    1    1    2  501    0  0.10907963067E+02 -0.19842980002E+02 -0.13862640815E+03  0.14046354883E+03  0.00000000000E+00 0. -1.
          1    1    1    2  502    0 -0.51173280775E+02 -0.25294710576E+02  0.39904323923E+04  0.39908406639E+04  0.00000000000E+00 0. -1.
         22    1    3    3    0    0  0.64464558912E+02  0.58639194517E+02  0.35689092873E+03  0.36737633226E+03  0.00000000000E+00 0. -1.
         22    1    3    3    0    0 -0.24199241204E+02 -0.13501503939E+02  0.19693277998E+02  0.33995868599E+02  0.00000000000E+00 0. -1.
</event>
<event>
 7    1  0.6255318E-006  0.1036390E+03  0.7818608E-02  0.1278624E+00
          2   -1    0    0  502    0  0.00000000000E+00  0.00000000000E+00  0.97654121419E+03  0.97654121419E+03  0.00000000000E+00 0. -1.
          1   -1    0    0  501    0 -0.00000000000E+00 -0.00000000000E+00 -0.40467549663E+02  0.40467549663E+02  0.00000000000E+00 0. -1.
         25    2    1    2    0    0 -0.69813365307E+02  0.13990921190E+02  0.48751578537E+03  0.50829847988E+03  0.12500420718E+03 0.  0.
          2    1    1    2  501    0  0.11357254197E+03  0.73739044050E+02  0.31640380633E+03  0.34416208037E+03  0.00000000000E+00 0. -1.
          1    1    1    2  502    0 -0.43759176661E+02 -0.87729965240E+02  0.13215407283E+03  0.16454820360E+03  0.00000000000E+00 0. -1.
         22    1    3    3    0    0 -0.73568012352E+02 -0.41747263721E+02  0.34515647672E+03  0.35537034188E+03  0.00000000000E+00 0. -1.
         22    1    3    3    0    0  0.37546470456E+01  0.55738184911E+02  0.14235930865E+03  0.15292813799E+03  0.00000000000E+00 0. -1.
</event>
<event>
 7    1  0.6255318E-006  0.1099800E+03  0.7818608E-02  0.1373347E+00
          2   -1    0    0  502    0  0.00000000000E+00  0.00000000000E+00  0.15273422645E+04  0.15273422645E+04  0.00000000000E+00 0. -1.
          1   -1    0    0  501    0 -0.00000000000E+00 -0.00000000000E+00 -0.21477981869E+03  0.21477981869E+03  0.00000000000E+00 0. -1.
         25    2    1    2    0    0 -0.13052441925E+03  0.25400757892E+02  0.25788253508E+03  0.31592744057E+03  0.12499969312E+03 0.  0.
          2    1    1    2  501    0  0.10864906571E+03  0.79709191884E+01 -0.16943161805E+03  0.20143293730E+03  0.00000000000E+00 0. -1.
          1    1    1    2  502    0  0.21875353534E+02 -0.33371677080E+02  0.12241115287E+04  0.12247617053E+04  0.00000000000E+00 0. -1.
         22    1    3    3    0    0 -0.63114804809E+02 -0.50613302739E+02  0.11384186812E+03  0.13966086043E+03  0.00000000000E+00 0.  1.
         22    1    3    3    0    0 -0.67409614439E+02  0.76014060631E+02  0.14404066697E+03  0.17626658013E+03  0.00000000000E+00 0.  1.
</event>
<event>
 7    1  0.6255318E-006  0.6229000E+02  0.7818608E-02  0.1411614E+00
          2   -1    0    0  502    0  0.00000000000E+00  0.00000000000E+00  0.61237734031E+03  0.61237734031E+03  0.00000000000E+00 0. -1.
          1   -1    0    0  501    0 -0.00000000000E+00 -0.00000000000E+00 -0.63798758460E+03  0.63798758460E+03  0.00000000000E+00 0. -1.
         25    2    1    2    0    0  0.29604030252E+02 -0.22839644267E+02  0.41995982681E+03  0.43976009265E+03  0.12499853998E+03 0.  0.
          2    1    1    2  501    0 -0.59247523458E+02 -0.19710910410E+02 -0.62281098660E+03  0.62593315462E+03  0.00000000000E+00 0. -1.
          1    1    1    2  502    0  0.29643493205E+02  0.42550554678E+02  0.17724091549E+03  0.18467167763E+03  0.00000000000E+00 0. -1.
         22    1    3    3    0    0 -0.38397928601E+02 -0.12636917555E+02  0.28930097696E+03  0.29211153328E+03  0.00000000000E+00 0. -1.
         22    1    3    3    0    0  0.68001958854E+02 -0.10202726712E+02  0.13065884986E+03  0.14764855938E+03  0.00000000000E+00 0. -1.
</event>
<event>
 7    1  0.6255318E-006  0.1126317E+03  0.7818608E-02  0.1306446E+00
          2   -1    0    0  502    0  0.00000000000E+00  0.00000000000E+00  0.18124614700E+02  0.18124614700E+02  0.00000000000E+00 0. -1.
          1   -1    0    0  501    0 -0.00000000000E+00 -0.00000000000E+00 -0.19427514478E+04  0.19427514478E+04  0.00000000000E+00 0. -1.
         25    2    1    2    0    0 -0.74026508251E+02 -0.70976967214E+02 -0.58258650316E+03  0.60460706013E+03  0.12500003881E+03 0.  0.
          2    1    1    2  501    0  0.23303121739E+02  0.11861931352E+03 -0.99530634495E+03  0.10026207146E+04  0.00000000000E+00 0. -1.
          1    1    1    2  502    0  0.50723386512E+02 -0.47642346304E+02 -0.34673398500E+03  0.35364828779E+03  0.00000000000E+00 0. -1.
         22    1    3    3    0    0 -0.44175121466E+02 -0.63137504045E+02 -0.56256559063E+03  0.56781848291E+03  0.00000000000E+00 0. -1.
         22    1    3    3    0    0 -0.29851386785E+02 -0.78394631689E+01 -0.20020912532E+02  0.36788577227E+02  0.00000000000E+00 0. -1.
</event>
<event>
 7    1  0.6255318E-006  0.1512287E+03  0.7818608E-02  0.1376465E+00
          2   -1    0    0  502    0  0.00000000000E+00  0.00000000000E+00  0.68762689348E+02  0.68762689348E+02  0.00000000000E+00 0. -1.
          1   -1    0    0  501    0 -0.00000000000E+00 -0.00000000000E+00 -0.15099965691E+04  0.15099965691E+04  0.00000000000E+00 0. -1.
         25    2    1    2    0    0  0.20287439799E+02 -0.13207059595E+03 -0.27784083342E+03  0.33267620695E+03  0.12499482961E+03 0.  0.
          2    1    1    2  501    0 -0.60509551623E+01 -0.27629716262E+02 -0.10483856845E+04  0.10487671614E+04  0.00000000000E+00 0. -1.
          1    1    1    2  502    0 -0.14236484637E+02  0.15970031221E+03 -0.11500736178E+03  0.19731589008E+03  0.00000000000E+00 0. -1.
         22    1    3    3    0    0  0.21704321044E+02 -0.15406870715E+03 -0.21009899800E+03  0.26143800993E+03  0.00000000000E+00 0.  1.
         22    1    3    3    0    0 -0.14168812445E+01  0.21998111202E+02 -0.67741835418E+02  0.71238197021E+02  0.00000000000E+00 0.  1.
</event>
<event>
 7    1  0.6255318E-006  0.1079304E+03  0.7818608E-02  0.1276524E+00
          2   -1    0    0  502    0  0.00000000000E+00  0.00000000000E+00  0.12342090235E+04  0.12342090235E+04  0.00000000000E+00 0. -1.
          1   -1    0    0  501    0 -0.00000000000E+00 -0.00000000000E+00 -0.70774551312E+03  0.70774551312E+03  0.00000000000E+00 0. -1.
         25    2    1    2    0    0  0.32152140935E+02  0.15462256702E+03  0.13220611110E+03  0.24093332598E+03  0.12501405264E+03 0.  0.
          2    1    1    2  501    0 -0.80237191058E+02 -0.71478822653E+02 -0.64673790559E+03  0.65560441384E+03  0.00000000000E+00 0. -1.
          1    1    1    2  502    0  0.48085050122E+02 -0.83143744368E+02  0.10409953049E+04  0.10454167968E+04  0.00000000000E+00 0. -1.
         22    1    3    3    0    0  0.28361855868E+02  0.36544169279E+02 -0.18171373058E+02  0.49699798545E+02  0.00000000000E+00 0. -1.
         22    1    3    3    0    0  0.37902850672E+01  0.11807839774E+03  0.15037748416E+03  0.19123352743E+03  0.00000000000E+00 0. -1.
</event>
<event>
 7    1  0.6255318E-006  0.3239371E+02  0.7818608E-02  0.1614467E+00
          2   -1    0    0  502    0  0.00000000000E+00  0.00000000000E+00  0.15746324531E+03  0.15746324531E+03  0.00000000000E+00 0. -1.
          1   -1    0    0  501    0 -0.00000000000E+00 -0.00000000000E+00 -0.47860580714E+03  0.47860580714E+03  0.00000000000E+00 0. -1.
         25    2    1    2    0    0 -0.75488424464E+01 -0.27524876365E+02 -0.22551402810E+03  0.25941891241E+03  0.12500796538E+03 0.  0.
          2    1    1    2  501    0 -0.17637732954E+02  0.28209944124E+02 -0.23382274031E+03  0.23617782380E+03  0.00000000000E+00 0. -1.
          1    1    1    2  502    0  0.25186575400E+02 -0.68506775911E+00  0.13819420657E+03  0.14047231623E+03  0.00000000000E+00 0. -1.
         22    1    3    3    0    0  0.16161864431E+02  0.19026763111E+02  0.28764729697E+01  0.25129617448E+02  0.00000000000E+00 0. -1.
         22    1    3    3    0    0 -0.23710706877E+02 -0.46551639476E+02 -0.22839050106E+03  0.23428929496E+03  0.00000000000E+00 0. -1.
</event>
<event>
 7    1  0.6255318E-006  0.6296546E+02  0.7818608E-02  0.1455907E+00
          2   -1    0    0  502    0  0.00000000000E+00  0.00000000000E+00  0.79561292322E+03  0.79561292322E+03  0.00000000000E+00 0. -1.
          1   -1    0    0  501    0 -0.00000000000E+00 -0.00000000000E+00 -0.16682994004E+04  0.16682994004E+04  0.00000000000E+00 0. -1.
         25    2    1    2    0    0 -0.87680593017E+01 -0.93327299801E+02 -0.10006465775E+03  0.18554051417E+03  0.12500193164E+03 0.  0.
          2    1    1    2  501    0 -0.99908180579E+01  0.61744789584E+02 -0.15244070368E+04  0.15256896963E+04  0.00000000000E+00 0. -1.
          1    1    1    2  502    0  0.18758877360E+02  0.31582510218E+02  0.75178521737E+03  0.75268211317E+03  0.00000000000E+00 0. -1.
         22    1    3    3    0    0  0.24564883916E+02 -0.84497060094E+02 -0.11758243098E+03  0.14686325191E+03  0.00000000000E+00 0.  1.
         22    1    3    3    0    0 -0.33332943218E+02 -0.88302397075E+01  0.17517773230E+02  0.38677262258E+02  0.00000000000E+00 0.  1.
</event>
<event>
 7    1  0.6255318E-006  0.6123925E+02  0.7818608E-02  0.1471908E+00
          2   -1    0    0  502    0  0.00000000000E+00  0.00000000000E+00  0.32493455601E+03  0.32493455601E+03  0.00000000000E+00 0. -1.
          1   -1    0    0  501    0 -0.00000000000E+00 -0.00000000000E+00 -0.23946004001E+04  0.23946004001E+04  0.00000000000E+00 0. -1.
         25    2    1    2    0    0  0.80025817066E+02 -0.18440450162E+02  0.18081867849E+02  0.15065061592E+03  0.12499789011E+03 0.  0.
          2    1    1    2  501    0 -0.60506080015E+02 -0.89645899258E+01 -0.23267356916E+04  0.23275395438E+04  0.00000000000E+00 0. -1.
          1    1    1    2  502    0 -0.19519737051E+02  0.27405040088E+02  0.23898797960E+03  0.24134479641E+03  0.00000000000E+00 0. -1.
         22    1    3    3    0    0  0.18193784468E+02  0.37681120899E+02 -0.32534976689E+02  0.53003824141E+02  0.00000000000E+00 0. -1.
         22    1    3    3    0    0  0.61832032598E+02 -0.56121571061E+02  0.50616844537E+02  0.97646791778E+02  0.00000000000E+00 0. -1.
</event>
<event>
 7    1  0.6255318E-006  0.5272063E+02  0.7818608E-02  0.1483193E+00
          2   -1    0    0  502    0  0.00000000000E+00  0.00000000000E+00  0.38692163674E+04  0.38692163674E+04  0.00000000000E+00 0. -1.
          1   -1    0    0  501    0 -0.00000000000E+00 -0.00000000000E+00 -0.66308915088E+01  0.66308915088E+01  0.00000000000E+00 0. -1.
         25    2    1    2    0    0 -0.14868193227E+02 -0.74410265198E+02  0.20641867430E+04  0.20693595884E+04  0.12499698118E+03 0.  0.
          2    1    1    2  501    0 -0.11664132222E+02  0.49963024739E+02  0.16730994404E+03  0.17499992342E+03  0.00000000000E+00 0. -1.
          1    1    1    2  502    0  0.26532325448E+02  0.24447240459E+02  0.16310887888E+04  0.16314877470E+04  0.00000000000E+00 0. -1.
         22    1    3    3    0    0  0.34250498952E+02  0.12629425908E+02  0.27909053494E+03  0.28146780592E+03  0.00000000000E+00 0.  1.
         22    1    3    3    0    0 -0.49118692179E+02 -0.87039691106E+02  0.17850962081E+04  0.17878917825E+04  0.00000000000E+00 0.  1.
</event>
<event>
 7    1  0.6255318E-006  0.6142940E+02  0.7818608E-02  0.1433478E+00
          2   -1    0    0  502    0  0.00000000000E+00  0.00000000000E+00  0.10107739164E+04  0.10107739164E+04  0.00000000000E+00 0. -1.
          1   -1    0    0  501    0 -0.00000000000E+00 -0.00000000000E+00 -0.59151555811E+02  0.59151555811E+02  0.00000000000E+00 0. -1.
         25    2    1    2    0    0  0.33002319532E+02  0.73076618691E+02  0.25906726933E+03  0.29861439488E+03  0.12500144598E+03 0.  0.
          2    1    1    2  501    0  0.18528516336E+02 -0.40429545323E+02 -0.25100504790E+02  0.51067498405E+02  0.00000000000E+00 0. -1.
          1    1    1    2  502    0 -0.51530835868E+02 -0.32647073368E+02  0.71765559605E+03  0.72024357893E+03  0.00000000000E+00 0. -1.
         22    1    3    3    0    0  0.59084985297E+02  0.68085350000E+02  0.25656404841E+03  0.27194073125E+03  0.00000000000E+00 0.  1.
         22    1    3    3    0    0 -0.26082665765E+02  0.49912686908E+01  0.25032209149E+01  0.26673663631E+02  0.00000000000E+00 0.  1.
</event>
<event>
 7    1  0.6255318E-006  0.1265693E+03  0.7818608E-02  0.1310292E+00
          2   -1    0    0  502    0  0.00000000000E+00  0.00000000000E+00  0.20842541737E+04  0.20842541737E+04  0.00000000000E+00 0. -1.
          1   -1    0    0  501    0 -0.00000000000E+00 -0.00000000000E+00 -0.10875955838E+03  0.10875955838E+03  0.00000000000E+00 0. -1.
         25    2    1    2    0    0  0.10446956665E+03  0.14087513817E+03  0.22722208831E+03  0.31307090472E+03  0.12499527614E+03 0.  0.
          2    1    1    2  501    0 -0.60457397988E+02 -0.10039555735E+03 -0.12768180922E+02  0.11788719757E+03  0.00000000000E+00 0. -1.
          1    1    1    2  502    0 -0.44012168661E+02 -0.40479580821E+02  0.17610407080E+04  0.17620556298E+04  0.00000000000E+00 0. -1.
         22    1    3    3    0    0  0.80667254167E+02  0.12186559426E+03  0.88084752692E+02  0.17063807493E+03  0.00000000000E+00 0.  1.
         22    1    3    3    0    0  0.23802312482E+02  0.19009543911E+02  0.13913733562E+03  0.14243282979E+03  0.00000000000E+00 0.  1.
</event>
<event>
 7    1  0.6255318E-006  0.1954302E+03  0.7818608E-02  0.1249686E+00
          2   -1    0    0  502    0  0.00000000000E+00  0.00000000000E+00  0.28056569333E+04  0.28056569333E+04  0.00000000000E+00 0. -1.
          1   -1    0    0  501    0 -0.00000000000E+00 -0.00000000000E+00 -0.84667520204E+03  0.84667520204E+03  0.00000000000E+00 0. -1.
         25    2    1    2    0    0  0.23145457935E+03  0.10145172966E+03  0.35593597427E+02  0.28417187665E+03  0.12499230195E+03 0.  0.
          2    1    1    2  501    0 -0.16249755680E+03 -0.10052846124E+03 -0.70929090815E+03  0.73457812374E+03  0.00000000000E+00 0. -1.
          1    1    1    2  502    0 -0.68957022551E+02 -0.92326841293E+00  0.26326790420E+04  0.26335821350E+04  0.00000000000E+00 0. -1.
         22    1    3    3    0    0  0.86942670802E+02  0.29654511203E+02 -0.46682829855E+02  0.10304224689E+03  0.00000000000E+00 0. -1.
         22    1    3    3    0    0  0.14451190855E+03  0.71797218452E+02  0.82276427282E+02  0.18112962976E+03  0.00000000000E+00 0. -1.
</event>
<event>
 7    1  0.6255318E-006  0.6903068E+02  0.7818608E-02  0.1383589E+00
          2   -1    0    0  502    0  0.00000000000E+00  0.00000000000E+00  0.55844384517E+03  0.55844384517E+03  0.00000000000E+00 0. -1.
          1   -1    0    0  501    0 -0.00000000000E+00 -0.00000000000E+00 -0.11986220971E+04  0.11986220971E+04  0.00000000000E+00 0. -1.
         25    2    1    2    0    0 -0.38122315819E+02  0.18186024300E+02  0.19424974801E+02  0.13337363758E+03  0.12500862015E+03 0.  0.
          2    1    1    2  501    0 -0.23566704897E+02 -0.53507236465E+02 -0.11382727127E+04  0.11397733031E+04  0.00000000000E+00 0. -1.
          1    1    1    2  502    0  0.61689020716E+02  0.35321212165E+02  0.47866948598E+03  0.48391900160E+03  0.00000000000E+00 0. -1.
         22    1    3    3    0    0 -0.26390505096E+02  0.37930736153E+02  0.66509696348E+02  0.80986043320E+02  0.00000000000E+00 0.  1.
         22    1    3    3    0    0 -0.11731810723E+02 -0.19744711853E+02 -0.47084721547E+02  0.52387594258E+02  0.00000000000E+00 0.  1.
</event>
<event>
 7    1  0.6255318E-006  0.1214318E+03  0.7818608E-02  0.1417913E+00
          2   -1    0    0  502    0  0.00000000000E+00  0.00000000000E+00  0.14286425082E+04  0.14286425082E+04  0.00000000000E+00 0. -1.
          1   -1    0    0  501    0 -0.00000000000E+00 -0.00000000000E+00 -0.76367667388E+02  0.76367667388E+02  0.00000000000E+00 0. -1.
         25    2    1    2    0    0  0.34341160299E+02 -0.97098665262E+02  0.77043408376E+02  0.17935405591E+03  0.12499889805E+03 0.  0.
          2    1    1    2  501    0  0.22630714757E+02 -0.11387096605E+02 -0.15117703004E+02  0.29501867121E+02  0.00000000000E+00 0. -1.
          1    1    1    2  502    0 -0.56971875056E+02  0.10848576187E+03  0.12903491354E+04  0.12961542526E+04  0.00000000000E+00 0. -1.
         22    1    3    3    0    0  0.45977304116E+02  0.10906239808E+02  0.19460490986E+01  0.47293188385E+02  0.00000000000E+00 0.  1.
         22    1    3    3    0    0 -0.11636143818E+02 -0.10800490507E+03  0.75097359277E+02  0.13206086753E+03  0.00000000000E+00 0.  1.
</event>
<event>
 7    1  0.6255318E-006  0.3646257E+02  0.7818608E-02  0.1613396E+00
          2   -1    0    0  502    0  0.00000000000E+00  0.00000000000E+00  0.15318279498E+03  0.15318279498E+03  0.00000000000E+00 0. -1.
          1   -1    0    0  501    0 -0.00000000000E+00 -0.00000000000E+00 -0.11464611442E+04  0.11464611442E+04  0.00000000000E+00 0. -1.
         25    2    1    2    0    0  0.42440017292E+02 -0.29696202157E+02 -0.24199376689E+03  0.27725220135E+03  0.12499912178E+03 0.  0.
          2    1    1    2  501    0 -0.22515268020E+02 -0.70985250599E+00 -0.88425486364E+03  0.88454174863E+03  0.00000000000E+00 0. -1.
          1    1    1    2  502    0 -0.19924749272E+02  0.30406054663E+02  0.13297028135E+03  0.13784998917E+03  0.00000000000E+00 0. -1.
         22    1    3    3    0    0  0.51377315728E+02 -0.70935798655E+02 -0.19685830544E+03  0.21546393787E+03  0.00000000000E+00 0. -1.
         22    1    3    3    0    0 -0.89372984358E+01  0.41239596499E+02 -0.45135461455E+02  0.61788263477E+02  0.00000000000E+00 0. -1.
</event>
<event>
 7    1  0.6255318E-006  0.1155457E+03  0.7818608E-02  0.1271279E+00
          2   -1    0    0  502    0  0.00000000000E+00  0.00000000000E+00  0.23529670692E+03  0.23529670692E+03  0.00000000000E+00 0. -1.
          1   -1    0    0  501    0 -0.00000000000E+00 -0.00000000000E+00 -0.61278281927E+03  0.61278281927E+03  0.00000000000E+00 0. -1.
         25    2    1    2    0    0 -0.93720211715E+02 -0.10971390180E+03 -0.27164255477E+03  0.33201711700E+03  0.12500028036E+03 0.  0.
          2    1    1    2  501    0 -0.53268095215E+00  0.11409667149E+03 -0.28862768639E+03  0.31036152394E+03  0.00000000000E+00 0. -1.
          1    1    1    2  502    0  0.94252892667E+02 -0.43827696915E+01  0.18278412881E+03  0.20570088525E+03  0.00000000000E+00 0. -1.
         22    1    3    3    0    0 -0.77821821177E+02  0.16903414119E+01 -0.99002080370E+02  0.12593849699E+03  0.00000000000E+00 0. -1.
         22    1    3    3    0    0 -0.15898390538E+02 -0.11140424321E+03 -0.17264047440E+03  0.20607862002E+03  0.00000000000E+00 0. -1.
</event>
<event>
 7    1  0.6255318E-006  0.7037749E+02  0.7818608E-02  0.1375969E+00
          2   -1    0    0  502    0  0.00000000000E+00  0.00000000000E+00  0.10233871433E+04  0.10233871433E+04  0.00000000000E+00 0. -1.
          1   -1    0    0  501    0 -0.00000000000E+00 -0.00000000000E+00 -0.88971105299E+02  0.88971105299E+02  0.00000000000E+00 0. -1.
         25    2    1    2    0    0 -0.63868156926E+02  0.92498730613E+02  0.36874381505E+03  0.40525578939E+03  0.12500038824E+03 0.  0.
          2    1    1    2  501    0  0.44994954385E+01 -0.60860006962E+02 -0.55385410822E+02  0.82411950824E+02  0.00000000000E+00 0. -1.
          1    1    1    2  502    0  0.59368661488E+02 -0.31638723651E+02  0.62105763379E+03  0.62469050840E+03  0.00000000000E+00 0. -1.
         22    1    3    3    0    0 -0.29898652598E+01  0.29835877635E+02  0.27681473519E+03  0.27843404337E+03  0.00000000000E+00 0. -1.
         22    1    3    3    0    0 -0.60878291666E+02  0.62662852978E+02  0.91929079862E+02  0.12682174602E+03  0.00000000000E+00 0. -1.
</event>
<event>
 7    1  0.6255318E-006  0.4955328E+02  0.7818608E-02  0.1453990E+00
          2   -1    0    0  502    0  0.00000000000E+00  0.00000000000E+00  0.35332792393E+03  0.35332792393E+03  0.00000000000E+00 0. -1.
          1   -1    0    0  501    0 -0.00000000000E+00 -0.00000000000E+00 -0.14277462234E+04  0.14277462234E+04  0.00000000000E+00 0. -1.
         25    2    1    2    0    0  0.90487609977E+02 -0.30254522420E+02 -0.51453978521E+03  0.53803398799E+03  0.12500415184E+03 0.  0.
          2    1    1    2  501    0 -0.41720870666E+02  0.22360131111E+02 -0.89904726358E+03  0.90029250173E+03  0.00000000000E+00 0. -1.
          1    1    1    2  502    0 -0.48766739311E+02  0.78943913092E+01  0.33916874933E+03  0.34274765761E+03  0.00000000000E+00 0. -1.
         22    1    3    3    0    0  0.49563289830E+02  0.22465522074E+02 -0.70764991435E+02  0.89268714529E+02  0.00000000000E+00 0. -1.
         22    1    3    3    0    0  0.40924320147E+02 -0.52720044494E+02 -0.44377479377E+03  0.44876527346E+03  0.00000000000E+00 0. -1.
</event>
<event>
 7    1  0.6255318E-006  0.4125935E+02  0.7818608E-02  0.1515097E+00
          2   -1    0    0  502    0  0.00000000000E+00  0.00000000000E+00  0.20986995727E+04  0.20986995727E+04  0.00000000000E+00 0. -1.
          1   -1    0    0  501    0 -0.00000000000E+00 -0.00000000000E+00 -0.21774718950E+02  0.21774718950E+02  0.00000000000E+00 0. -1.
         25    2    1    2    0    0 -0.23052294779E+01 -0.82789375560E+01  0.75985156842E+03  0.77011214264E+03  0.12499780527E+03 0.  0.
          2    1    1    2  501    0  0.17125668402E+02 -0.32814791607E+02  0.47573396342E+01  0.37319316002E+02  0.00000000000E+00 0. -1.
          1    1    1    2  502    0 -0.14820438924E+02  0.41093729163E+02  0.13123159457E+04  0.13130428330E+04  0.00000000000E+00 0. -1.
         22    1    3    3    0    0  0.71840558378E+01 -0.63466528574E+02  0.51461240251E+03  0.51856102411E+03  0.00000000000E+00 0. -1.
         22    1    3    3    0    0 -0.94892853157E+01  0.55187591018E+02  0.24523916592E+03  0.25155111854E+03  0.00000000000E+00 0. -1.
</event>
<event>
 7    1  0.6255318E-006  0.1030269E+03  0.7818608E-02  0.1355257E+00
          2   -1    0    0  502    0  0.00000000000E+00  0.00000000000E+00  0.38880051952E+03  0.38880051952E+03  0.00000000000E+00 0. -1.
          1   -1    0    0  501    0 -0.00000000000E+00 -0.00000000000E+00 -0.18208743723E+04  0.18208743723E+04  0.00000000000E+00 0. -1.
         25    2    1    2    0    0 -0.20422813926E+02 -0.15010502970E+03 -0.36263633479E+03  0.41240469051E+03  0.12499562463E+03 0.  0.
          2    1    1    2  501    0  0.10127770248E+02  0.48493921216E+02 -0.14257495062E+04  0.14266099280E+04  0.00000000000E+00 0. -1.
          1    1    1    2  502    0  0.10295043678E+02  0.10161110848E+03  0.35631198822E+03  0.37066027335E+03  0.00000000000E+00 0. -1.
         22    1    3    3    0    0 -0.39353804924E+02 -0.91740875357E+02 -0.94928303678E+02  0.13775519232E+03  0.00000000000E+00 0.  1.
         22    1    3    3    0    0  0.18930990998E+02 -0.58364154340E+02 -0.26770803112E+03  0.27464949819E+03  0.00000000000E+00 0.  1.
</event>
<event>
 7    1  0.6255318E-006  0.8309434E+02  0.7818608E-02  0.1348401E+00
          2   -1    0    0  502    0  0.00000000000E+00  0.00000000000E+00  0.12044938055E+04  0.12044938055E+04  0.00000000000E+00 0. -1.
          1   -1    0    0  501    0 -0.00000000000E+00 -0.00000000000E+00 -0.51211559170E+03  0.51211559170E+03  0.00000000000E+00 0. -1.
         25    2    1    2    0    0  0.13253879508E+02 -0.13783978651E+02  0.18641618404E+03  0.22525765591E+03  0.12499741791E+03 0.  0.
          2    1    1    2  501    0 -0.55887495525E+02  0.62998685408E+02 -0.48802315676E+03  0.49523615382E+03  0.00000000000E+00 0. -1.
          1    1    1    2  502    0  0.42633616017E+02 -0.49214706757E+02  0.99398518650E+03  0.99611558745E+03  0.00000000000E+00 0. -1.
         22    1    3    3    0    0  0.51964543309E+02 -0.15320820901E+02  0.17739062508E+03  0.18547904243E+03  0.00000000000E+00 0.  1.
         22    1    3    3    0    0 -0.38710663801E+02  0.15368422501E+01  0.90255589644E+01  0.39778613483E+02  0.00000000000E+00 0.  1.
</event>
<event>
 7    1  0.6255318E-006  0.9725990E+02  0.7818608E-02  0.1295818E+00
          2   -1    0    0  502    0  0.00000000000E+00  0.00000000000E+00  0.71708844844E+03  0.71708844844E+03  0.00000000000E+00 0. -1.
          1   -1    0    0  501    0 -0.00000000000E+00 -0.00000000000E+00 -0.14698865936E+03  0.14698865936E+03  0.00000000000E+00 0. -1.
         25    2    1    2    0    0 -0.63764336320E+02 -0.82261154669E+01  0.32982676053E+02  0.14438712105E+03  0.12500489688E+03 0.  0.
          2    1    1    2  501    0  0.10234346764E+01  0.88861011557E+02 -0.64278869577E+02  0.10967725319E+03  0.00000000000E+00 0. -1.
          1    1    1    2  502    0  0.62740901644E+02 -0.80634896090E+02  0.60139598261E+03  0.61001273356E+03  0.00000000000E+00 0. -1.
         22    1    3    3    0    0  0.18042886148E+02  0.13802727163E+02 -0.30848997389E+02  0.38310855611E+02  0.00000000000E+00 0. -1.
         22    1    3    3    0    0 -0.81807222469E+02 -0.22028842630E+02  0.63831673442E+02  0.10607626544E+03  0.00000000000E+00 0. -1.
</event>
<event>
 7    1  0.6255318E-006  0.1354340E+03  0.7818608E-02  0.1325872E+00
          2   -1    0    0  502    0  0.00000000000E+00  0.00000000000E+00  0.18600545063E+04  0.18600545063E+04  0.00000000000E+00 0. -1.
          1   -1    0    0  501    0 -0.00000000000E+00 -0.00000000000E+00 -0.21491294029E+04  0.21491294029E+04  0.00000000000E+00 0. -1.
         25    2    1    2    0    0  0.10811145511E+03  0.97363106146E+02  0.98802266556E+03  0.10064688741E+04  0.12499258275E+03 0.  0.
          2    1    1    2  501    0  0.14455575785E+02 -0.46401691240E+02 -0.21345227008E+04  0.21350759332E+04  0.00000000000E+00 0. -1.
          1    1    1    2  502    0 -0.12256703090E+03 -0.50961414906E+02  0.85742513858E+03  0.86763910189E+03  0.00000000000E+00 0. -1.
         22    1    3    3    0    0 -0.17134788010E+02  0.40495507478E+02  0.12399796631E+03  0.13156360718E+03  0.00000000000E+00 0.  1.
         22    1    3    3    0    0  0.12524624312E+03  0.56867598668E+02  0.86402469925E+03  0.87490526694E+03  0.00000000000E+00 0.  1.
</event>
<event>
 7    1  0.6255318E-006  0.7011534E+02  0.7818608E-02  0.1417966E+00
          2   -1    0    0  502    0  0.00000000000E+00  0.00000000000E+00  0.76224681540E+02  0.76224681540E+02  0.00000000000E+00 0. -1.
          1   -1    0    0  501    0 -0.00000000000E+00 -0.00000000000E+00 -0.16267625211E+04  0.16267625211E+04  0.00000000000E+00 0. -1.
         25    2    1    2    0    0 -0.48088977370E+02 -0.82306967325E+02 -0.23550781442E+03  0.28315716969E+03  0.12500826164E+03 0.  0.
          2    1    1    2  501    0 -0.81993391570E+01  0.43084507520E+02 -0.13444621700E+04  0.13451773231E+04  0.00000000000E+00 0. -1.
          1    1    1    2  502    0  0.56288316527E+02  0.39222459805E+02  0.29432144912E+02  0.74652709828E+02  0.00000000000E+00 0. -1.
         22    1    3    3    0    0 -0.52081016219E+02 -0.50101306372E+02 -0.35467551278E+02  0.80501679139E+02  0.00000000000E+00 0.  1.
         22    1    3    3    0    0  0.39920388492E+01 -0.32205660953E+02 -0.20004026314E+03  0.20265549055E+03  0.00000000000E+00 0.  1.
</event>
<event>
 7    1  0.6255318E-006  0.9130694E+02  0.7818608E-02  0.1365518E+00
          2   -1    0    0  502    0  0.00000000000E+00  0.00000000000E+00  0.42286241366E+02  0.42286241366E+02  0.00000000000E+00 0. -1.
          1   -1    0    0  501    0 -0.00000000000E+00 -0.00000000000E+00 -0.14857301434E+04  0.14857301434E+04  0.00000000000E+00 0. -1.
         25    2    1    2    0    0  0.45579339004E+02 -0.12235737410E+03 -0.56888303985E+03  0.59690944309E+03  0.12499666826E+03 0.  0.
          2    1    1    2  501    0 -0.36804357060E+02  0.35713139959E+02 -0.83305909559E+03  0.83463611581E+03  0.00000000000E+00 0. -1.
          1    1    1    2  502    0 -0.87749819440E+01  0.86644234143E+02 -0.41501766634E+02  0.96470825912E+02  0.00000000000E+00 0. -1.
         22    1    3    3    0    0 -0.26626658121E+02 -0.92702536853E+02 -0.23499882214E+03  0.25402201808E+03  0.00000000000E+00 0. -1.
         22    1    3    3    0    0  0.72205997125E+02 -0.29654837250E+02 -0.33388421772E+03  0.34288742501E+03  0.00000000000E+00 0. -1.
</event>
<event>
 7    1  0.6255318E-006  0.3839175E+02  0.7818608E-02  0.1559473E+00
          2   -1    0    0  502    0  0.00000000000E+00  0.00000000000E+00  0.14281930589E+02  0.14281930589E+02  0.00000000000E+00 0. -1.
          1   -1    0    0  501    0 -0.00000000000E+00 -0.00000000000E+00 -0.13204049797E+04  0.13204049797E+04  0.00000000000E+00 0. -1.
         25    2    1    2    0    0  0.55765195377E+01 -0.11249443465E+02 -0.31508908623E+03  0.33920974094E+03  0.12499787414E+03 0.  0.
          2    1    1    2  501    0  0.48625540772E+01  0.39125770743E+02 -0.86794632117E+03  0.86884134731E+03  0.00000000000E+00 0. -1.
          1    1    1    2  502    0 -0.10439073615E+02 -0.27876327279E+02 -0.12308764169E+03  0.12663582201E+03  0.00000000000E+00 0. -1.
         22    1    3    3    0    0  0.32759432258E+01 -0.51050225518E+01  0.11262576407E+02  0.12792133778E+02  0.00000000000E+00 0.  1.
         22    1    3    3    0    0  0.23005763119E+01 -0.61444209130E+01 -0.32635166264E+03  0.32641760716E+03  0.00000000000E+00 0.  1.
</event>
<event>
 7    1  0.6255318E-006  0.1463900E+03  0.7818608E-02  0.1266500E+00
          2   -1    0    0  502    0  0.00000000000E+00  0.00000000000E+00  0.16076828281E+04  0.16076828281E+04  0.00000000000E+00 0. -1.
          1   -1    0    0  501    0 -0.00000000000E+00 -0.00000000000E+00 -0.65438471485E+03  0.65438471485E+03  0.00000000000E+00 0. -1.
         25    2    1    2    0    0  0.21128480792E+01 -0.69744389949E+02 -0.28476080342E+03  0.31872001152E+03  0.12499994607E+03 0.  0.
          2    1    1    2  501    0  0.15352786207E+02 -0.76477050477E+02 -0.34487108971E+03  0.35358240314E+03  0.00000000000E+00 0. -1.
          1    1    1    2  502    0 -0.17465634286E+02  0.14622144043E+03  0.15829300063E+04  0.15897651283E+04  0.00000000000E+00 0. -1.
         22    1    3    3    0    0  0.19081141348E+01  0.97199944896E+01 -0.20799888744E+03  0.20823461857E+03  0.00000000000E+00 0.  1.
         22    1    3    3    0    0  0.20473394440E+00 -0.79464384438E+02 -0.76761915982E+02  0.11048539295E+03  0.00000000000E+00 0.  1.
</event>
<event>
 7    1  0.6255318E-006  0.1681915E+03  0.7818608E-02  0.1260883E+00
          2   -1    0    0  502    0  0.00000000000E+00  0.00000000000E+00  0.20929880938E+03  0.20929880938E+03  0.00000000000E+00 0. -1.
          1   -1    0    0  501    0 -0.00000000000E+00 -0.00000000000E+00 -0.59279991181E+03  0.59279991181E+03  0.00000000000E+00 0. -1.
         25    2    1    2    0    0  0.36984459911E+01 -0.19396855882E+03 -0.45633871524E+03  0.51137776569E+03  0.12499886358E+03 0.  0.
          2    1    1    2  501    0 -0.29183982148E+02  0.12692846472E+03 -0.57175409823E+02  0.14223771461E+03  0.00000000000E+00 0. -1.
          1    1    1    2  502    0  0.25485536157E+02  0.67040094109E+02  0.13001302264E+03  0.14848324090E+03  0.00000000000E+00 0. -1.
         22    1    3    3    0    0  0.21408958819E+02  0.17607221406E+01 -0.11935872967E+03  0.12127633738E+03  0.00000000000E+00 0.  1.
         22    1    3    3    0    0 -0.17710512828E+02 -0.19572928097E+03 -0.33697998557E+03  0.39010142831E+03  0.00000000000E+00 0.  1.
</event>
<event>
 7    1  0.6255318E-006  0.1364178E+03  0.7818608E-02  0.1342885E+00
          2   -1    0    0  502    0  0.00000000000E+00  0.00000000000E+00  0.61037205718E+03  0.61037205718E+03  0.00000000000E+00 0. -1.
          1   -1    0    0  501    0 -0.00000000000E+00 -0.00000000000E+00 -0.52646004526E+03  0.52646004526E+03  0.00000000000E+00 0. -1.
         25    2    1    2    0    0  0.16478729843E+03  0.14934769376E+02  0.16566188893E+03  0.26541755650E+03  0.12499886718E+03 0.  0.
          2    1    1    2  501    0 -0.34586058330E+02 -0.23090292155E+02 -0.46485260115E+03  0.46670900764E+03  0.00000000000E+00 0. -1.
          1    1    1    2  502    0 -0.13020124010E+03  0.81555227795E+01  0.38310272414E+03  0.40470553829E+03  0.00000000000E+00 0. -1.
         22    1    3    3    0    0  0.13385646160E+03 -0.80484541007E+01  0.49353854545E+02  0.14289203226E+03  0.00000000000E+00 0.  1.
         22    1    3    3    0    0  0.30930836829E+02  0.22983223477E+02  0.11630803438E+03  0.12252552424E+03  0.00000000000E+00 0.  1.
</event>
<event>
 7    1  0.6255318E-006  0.3747705E+03  0.7818608E-02  0.1241380E+00
          2   -1    0    0  502    0  0.00000000000E+00  0.00000000000E+00  0.11424193258E+04  0.11424193258E+04  0.00000000000E+00 0. -1.
          1   -1    0    0  501    0 -0.00000000000E+00 -0.00000000000E+00 -0.17159809578E+04  0.17159809578E+04  0.00000000000E+00 0. -1.
         25    2    1    2    0    0  0.34253183237E+03  0.27651266924E+01 -0.29073222938E+02  0.36579542173E+03  0.12500134461E+03 0.  0.
          2    1    1    2  501    0  0.38295870039E+02 -0.78733566963E+01 -0.14810490329E+04  0.14815649838E+04  0.00000000000E+00 0. -1.
          1    1    1    2  502    0 -0.38082770241E+03  0.51082300039E+01  0.93656062381E+03  0.10110398781E+04  0.00000000000E+00 0. -1.
         22    1    3    3    0    0  0.24825660532E+02  0.87273100678E+00  0.33775664953E+02  0.41926967733E+02  0.00000000000E+00 0.  1.
         22    1    3    3    0    0  0.31770617184E+03  0.18923956857E+01 -0.62848887891E+02  0.32386845400E+03  0.00000000000E+00 0.  1.
</event>
<event>
 7    1  0.6255318E-006  0.9008531E+02  0.7818608E-02  0.1387894E+00
          2   -1    0    0  502    0  0.00000000000E+00  0.00000000000E+00  0.42638565430E+03  0.42638565430E+03  0.00000000000E+00 0. -1.
          1   -1    0    0  501    0 -0.00000000000E+00 -0.00000000000E+00 -0.35914566691E+03  0.35914566691E+03  0.00000000000E+00 0. -1.
         25    2    1    2    0    0  0.76667747882E+02  0.10285197451E+03 -0.13147820437E+03  0.22218761492E+03  0.12499738307E+03 0.  0.
          2    1    1    2  501    0 -0.12158700012E+02 -0.41526002967E+02 -0.17443527646E+03  0.17972175322E+03  0.00000000000E+00 0. -1.
          1    1    1    2  502    0 -0.64509047870E+02 -0.61325971541E+02  0.37315346821E+03  0.38362195308E+03  0.00000000000E+00 0. -1.
         22    1    3    3    0    0  0.33032208813E+02  0.32061837435E+02 -0.13118657877E+03  0.13902879805E+03  0.00000000000E+00 0.  1.
         22    1    3    3    0    0  0.43635539069E+02  0.70790137073E+02 -0.29162559601E+00  0.83158816864E+02  0.00000000000E+00 0.  1.
</event>
<event>
 7    1  0.6255318E-006  0.3113966E+02  0.7818608E-02  0.1635102E+00
          2   -1    0    0  502    0  0.00000000000E+00  0.00000000000E+00  0.19757118851E+03  0.19757118851E+03  0.00000000000E+00 0. -1.
          1   -1    0    0  501    0 -0.00000000000E+00 -0.00000000000E+00 -0.16330478743E+03  0.16330478743E+03  0.00000000000E+00 0. -1.
         25    2    1    2    0    0  0.31891826753E+02  0.38916673127E+02  0.55523375285E+02  0.14573622137E+03  0.12499841981E+03 0.  0.
          2    1    1    2  501    0 -0.66531623377E+01 -0.22267484404E+02 -0.11464618270E+03  0.11697800066E+03  0.00000000000E+00 0. -1.
          1    1    1    2  502    0 -0.25238664416E+02 -0.16649188723E+02  0.93389208493E+02  0.98161753904E+02  0.00000000000E+00 0. -1.
         22    1    3    3    0    0  0.80259725961E+02  0.21247885459E+02  0.38350369338E+02  0.91454070856E+02  0.00000000000E+00 0. -1.
         22    1    3    3    0    0 -0.48367899208E+02  0.17668787668E+02  0.17173005947E+02  0.54282150516E+02  0.00000000000E+00 0. -1.
</event>
<event>
 7    1  0.6255318E-006  0.4904709E+02  0.7818608E-02  0.1503363E+00
          2   -1    0    0  502    0  0.00000000000E+00  0.00000000000E+00  0.18144339887E+04  0.18144339887E+04  0.00000000000E+00 0. -1.
          1   -1    0    0  501    0 -0.00000000000E+00 -0.00000000000E+00 -0.33883573031E+03  0.33883573031E+03  0.00000000000E+00 0. -1.
         25    2    1    2    0    0 -0.62256218994E+01 -0.55040925027E+02  0.45233881168E+02  0.14401207017E+03  0.12500044221E+03 0.  0.
          2    1    1    2  501    0 -0.24998789321E+02  0.42315464936E+02 -0.28719363474E+03  0.29136870435E+03  0.00000000000E+00 0. -1.
          1    1    1    2  502    0  0.31224411220E+02  0.12725460091E+02  0.17175580120E+04  0.17178889445E+04  0.00000000000E+00 0. -1.
         22    1    3    3    0    0  0.14553221217E+02 -0.89960920307E+02  0.48524823525E+02  0.10324447650E+03  0.00000000000E+00 0.  1.
         22    1    3    3    0    0 -0.20778843117E+02  0.34919995280E+02 -0.32909423571E+01  0.40767593664E+02  0.00000000000E+00 0.  1.
</event>
<event>
 7    1  0.6255318E-006  0.1032803E+03  0.7818608E-02  0.1431395E+00
          2   -1    0    0  502    0  0.00000000000E+00  0.00000000000E+00  0.10884637939E+04  0.10884637939E+04  0.00000000000E+00 0. -1.
          1   -1    0    0  501    0 -0.00000000000E+00 -0.00000000000E+00 -0.10038580093E+04  0.10038580093E+04  0.00000000000E+00 0. -1.
         25    2    1    2    0    0  0.10134762607E+03 -0.74774349742E+02  0.21838345290E+03  0.28138932704E+03  0.12500430465E+03 0.  0.
          2    1    1    2  501    0 -0.25786763193E+02  0.75573696600E+01 -0.96911907843E+03  0.96949154672E+03  0.00000000000E+00 0. -1.
          1    1    1    2  502    0 -0.75560862878E+02  0.67216980082E+02  0.83534141005E+03  0.84144092945E+03  0.00000000000E+00 0. -1.
         22    1    3    3    0    0  0.38521689748E+02 -0.85711882190E+02  0.18921410920E+03  0.21126387871E+03  0.00000000000E+00 0. -1.
         22    1    3    3    0    0  0.62825936323E+02  0.10937532448E+02  0.29169343705E+02  0.70125448327E+02  0.00000000000E+00 0. -1.
</event>
<event>
 7    1  0.6255318E-006  0.4584516E+02  0.7818608E-02  0.1488366E+00
          2   -1    0    0  502    0  0.00000000000E+00  0.00000000000E+00  0.58096538644E+03  0.58096538644E+03  0.00000000000E+00 0. -1.
          1   -1    0    0  501    0 -0.00000000000E+00 -0.00000000000E+00 -0.59354936235E+02  0.59354936235E+02  0.00000000000E+00 0. -1.
         25    2    1    2    0    0  0.85391332285E+01 -0.70929550387E+01  0.17641462847E+03  0.21649658904E+03  0.12500170046E+03 0.  0.
          2    1    1    2  501    0 -0.13724838100E+02  0.46767334842E+02 -0.22694291006E+02  0.53764166815E+02  0.00000000000E+00 0. -1.
          1    1    1    2  502    0  0.51857048711E+01 -0.39674379803E+02  0.36789011274E+03  0.37005956682E+03  0.00000000000E+00 0. -1.
         22    1    3    3    0    0  0.56812159997E+02  0.19168433227E+02  0.13489820780E+03  0.14762309041E+03  0.00000000000E+00 0.  1.
         22    1    3    3    0    0 -0.48273026768E+02 -0.26261388265E+02  0.41516420675E+02  0.68873498624E+02  0.00000000000E+00 0.  1.
</event>
<event>
 7    1  0.6255318E-006  0.2923894E+02  0.7818608E-02  0.1658915E+00
          2   -1    0    0  502    0  0.00000000000E+00  0.00000000000E+00  0.58484433698E+03  0.58484433698E+03  0.00000000000E+00 0. -1.
          1   -1    0    0  501    0 -0.00000000000E+00 -0.00000000000E+00 -0.33388013163E+03  0.33388013163E+03  0.00000000000E+00 0. -1.
         25    2    1    2    0    0 -0.19545599647E+02  0.10125984119E+02 -0.27082245093E+03  0.29908834234E+03  0.12499788229E+03 0.  0.
          2    1    1    2  501    0  0.13726211355E+02 -0.30954115289E+02 -0.42834015049E+02  0.54601455811E+02  0.00000000000E+00 0. -1.
          1    1    1    2  502    0  0.58193882928E+01  0.20828131171E+02  0.56462067132E+03  0.56503467045E+03  0.00000000000E+00 0. -1.
         22    1    3    3    0    0  0.88893925141E+01 -0.48909560074E+01 -0.26644140535E+03  0.26663451621E+03  0.00000000000E+00 0. -1.
         22    1    3    3    0    0 -0.28434992161E+02  0.15016940126E+02 -0.43810455737E+01  0.32453826127E+02  0.00000000000E+00 0. -1.
</event>
<event>
 7    1  0.6255318E-006  0.3182843E+02  0.7818608E-02  0.1598724E+00
          2   -1    0    0  502    0  0.00000000000E+00  0.00000000000E+00  0.67794394292E+03  0.67794394292E+03  0.00000000000E+00 0. -1.
          1   -1    0    0  501    0 -0.00000000000E+00 -0.00000000000E+00 -0.15026090046E+03  0.15026090046E+03  0.00000000000E+00 0. -1.
         25    2    1    2    0    0  0.16223964788E+02  0.90901287265E+01 -0.21539689611E+02  0.12816297799E+03  0.12496376765E+03 0.  0.
          2    1    1    2  501    0  0.10906308693E+02 -0.25971535903E+02 -0.72354251780E+02  0.77644098276E+02  0.00000000000E+00 0. -1.
          1    1    1    2  502    0 -0.27130273481E+02  0.16881407176E+02  0.62157698385E+03  0.62239776711E+03  0.00000000000E+00 0. -1.
         22    1    3    3    0    0 -0.28741209761E+02 -0.20318118289E+02  0.35369155776E+02  0.49898499473E+02  0.00000000000E+00 0.  1.
         22    1    3    3    0    0  0.44965174549E+02  0.29408247016E+02 -0.56908845386E+02  0.78264478519E+02  0.00000000000E+00 0.  1.
</event>
<event>
 7    1  0.6255318E-006  0.5124960E+02  0.7818608E-02  0.1519759E+00
          2   -1    0    0  502    0  0.00000000000E+00  0.00000000000E+00  0.12003388486E+04  0.12003388486E+04  0.00000000000E+00 0. -1.
          1   -1    0    0  501    0 -0.00000000000E+00 -0.00000000000E+00 -0.24324567033E+03  0.24324567033E+03  0.00000000000E+00 0. -1.
         25    2    1    2    0    0 -0.18053231389E+02 -0.25026967950E+02  0.66446179607E+02  0.14488827423E+03  0.12500099574E+03 0.  0.
          2    1    1    2  501    0  0.46833357327E+02  0.22607579783E+02 -0.20051653871E+03  0.20715054506E+03  0.00000000000E+00 0. -1.
          1    1    1    2  502    0 -0.28780125938E+02  0.24193881668E+01  0.10911635374E+04  0.10915456997E+04  0.00000000000E+00 0. -1.
         22    1    3    3    0    0 -0.17457741905E+02  0.45652283719E+02  0.54496274727E+02  0.73203467953E+02  0.00000000000E+00 0.  1.
         22    1    3    3    0    0 -0.59548948462E+00 -0.70679251669E+02  0.11949904880E+02  0.71684806277E+02  0.00000000000E+00 0.  1.
</event>
<event>
 7    1  0.6255319E-006  0.9318238E+02  0.7818608E-02  0.1314891E+00
          2   -1    0    0  502    0  0.00000000000E+00  0.00000000000E+00  0.11867680012E+04  0.11867680012E+04  0.00000000000E+00 0. -1.
          1   -1    0    0  501    0 -0.00000000000E+00 -0.00000000000E+00 -0.95843602562E+03  0.95843602562E+03  0.00000000000E+00 0. -1.
         25    2    1    2    0    0  0.14079304685E+03  0.68242682618E+01 -0.96806328466E+02  0.21181750845E+03  0.12500375586E+03 0.  0.
          2    1    1    2  501    0 -0.59049483393E+02 -0.50831838909E+02 -0.80032100690E+03  0.80410473908E+03  0.00000000000E+00 0. -1.
          1    1    1    2  502    0 -0.81743563455E+02  0.44007570647E+02  0.11254593109E+04  0.11292817793E+04  0.00000000000E+00 0. -1.
         22    1    3    3    0    0  0.59202968101E+02 -0.57999561016E+02 -0.55376526547E+02  0.99676979300E+02  0.00000000000E+00 0.  1.
         22    1    3    3    0    0  0.81590078747E+02  0.64823829277E+02 -0.41429801919E+02  0.11214052915E+03  0.00000000000E+00 0.  1.
</event>
<event>
 7    1  0.6255318E-006  0.4536689E+02  0.7818608E-02  0.1473856E+00
          2   -1    0    0  502    0  0.00000000000E+00  0.00000000000E+00  0.86910297857E+03  0.86910297857E+03  0.00000000000E+00 0. -1.
          1   -1    0    0  501    0 -0.00000000000E+00 -0.00000000000E+00 -0.13030393107E+03  0.13030393107E+03  0.00000000000E+00 0. -1.
         25    2    1    2    0    0  0.11425184500E+02  0.37771695877E+02 -0.18961164235E+02  0.13244329952E+03  0.12499786393E+03 0.  0.
          2    1    1    2  501    0 -0.48108453710E+02 -0.11079149319E+02 -0.42667694026E+02  0.65251076478E+02  0.00000000000E+00 0. -1.
          1    1    1    2  502    0  0.36683269210E+02 -0.26692546558E+02  0.80042790576E+03  0.80171253364E+03  0.00000000000E+00 0. -1.
         22    1    3    3    0    0 -0.32160005751E+02  0.14032230133E+02  0.41418801286E+02  0.54283391128E+02  0.00000000000E+00 0. -1.
         22    1    3    3    0    0  0.43585190251E+02  0.23739465744E+02 -0.60379965521E+02  0.78159908389E+02  0.00000000000E+00 0. -1.
</event>
<event>
 7    1  0.7354835E-006  0.7945153E+02  0.7818608E-02  0.1377975E+00
          2   -1    0    0  502    0  0.00000000000E+00  0.00000000000E+00  0.14196329867E+04  0.14196329867E+04  0.00000000000E+00 0. -1.
          1   -1    0    0  501    0 -0.00000000000E+00 -0.00000000000E+00 -0.25350949492E+04  0.25350949492E+04  0.00000000000E+00 0. -1.
         25    2    1    2    0    0 -0.30518345984E+02  0.17544207526E+01 -0.12508005803E+03  0.17945585670E+03  0.12499974462E+03 0.  0.
          2    1    1    2  501    0 -0.44469501628E+02 -0.29156878372E+02 -0.23813855318E+04  0.23819791584E+04  0.00000000000E+00 0. -1.
          1    1    1    2  502    0  0.74987847612E+02  0.27402457620E+02  0.13910036273E+04  0.13932929208E+04  0.00000000000E+00 0. -1.
         22    1    3    3    0    0  0.38118743256E+02 -0.33252093473E+02 -0.60980593479E+02  0.79229874977E+02  0.00000000000E+00 0. -1.
         22    1    3    3    0    0 -0.68637089240E+02  0.35006514225E+02 -0.64099464551E+02  0.10022598173E+03  0.00000000000E+00 0. -1.
</event>
<event>
 7    1  0.6255318E-006  0.5032870E+02  0.7818608E-02  0.1518955E+00
          2   -1    0    0  502    0  0.00000000000E+00  0.00000000000E+00  0.87737732720E+03  0.87737732720E+03  0.00000000000E+00 0. -1.
          1   -1    0    0  501    0 -0.00000000000E+00 -0.00000000000E+00 -0.79399215005E+02  0.79399215005E+02  0.00000000000E+00 0. -1.
         25    2    1    2    0    0  0.75304903013E+02  0.92137724033E+01  0.28138544629E+02  0.14890821085E+03  0.12500462210E+03 0.  0.
          2    1    1    2  501    0 -0.28413378805E+02  0.81845487790E+01 -0.62058278207E+01  0.30212898451E+02  0.00000000000E+00 0. -1.
          1    1    1    2  502    0 -0.46891524208E+02 -0.17398321182E+02  0.77604539538E+03  0.77765543290E+03  0.00000000000E+00 0. -1.
         22    1    3    3    0    0  0.63723980600E+02 -0.53033308743E+02  0.16563230234E+02  0.84543587194E+02  0.00000000000E+00 0. -1.
         22    1    3    3    0    0  0.11580922413E+02  0.62247081147E+02  0.11575314395E+02  0.64364623657E+02  0.00000000000E+00 0. -1.
</event>
<event>
 7    1  0.6255318E-006  0.9950659E+02  0.7818608E-02  0.1355465E+00
          2   -1    0    0  502    0  0.00000000000E+00  0.00000000000E+00  0.14523518983E+03  0.14523518983E+03  0.00000000000E+00 0. -1.
          1   -1    0    0  501    0 -0.00000000000E+00 -0.00000000000E+00 -0.62071483341E+03  0.62071483341E+03  0.00000000000E+00 0. -1.
         25    2    1    2    0    0  0.75195320510E+02  0.11439493356E+02 -0.43802716416E+03  0.46182246334E+03  0.12500797122E+03 0.  0.
          2    1    1    2  501    0  0.19100625873E+02 -0.47506362453E+02 -0.14669723989E+03  0.15537621624E+03  0.00000000000E+00 0. -1.
          1    1    1    2  502    0 -0.94295946383E+02  0.36066869097E+02  0.10924476047E+03  0.14875134366E+03  0.00000000000E+00 0. -1.
         22    1    3    3    0    0  0.26148102577E+02  0.66776416957E+02 -0.19360334553E+03  0.20645839418E+03  0.00000000000E+00 0. -1.
         22    1    3    3    0    0  0.49047217933E+02 -0.55336923601E+02 -0.24442381863E+03  0.25536406916E+03  0.00000000000E+00 0. -1.
</event>
<event>
 7    1  0.6255318E-006  0.2921385E+03  0.7818608E-02  0.1230035E+00
          2   -1    0    0  502    0  0.00000000000E+00  0.00000000000E+00  0.16774559522E+04  0.16774559522E+04  0.00000000000E+00 0. -1.
          1   -1    0    0  501    0 -0.00000000000E+00 -0.00000000000E+00 -0.84020690580E+03  0.84020690580E+03  0.00000000000E+00 0. -1.
         25    2    1    2    0    0  0.27889216625E+03  0.39365278138E-02  0.61537019730E+03  0.68708546726E+03  0.12500047669E+03 0.  0.
          2    1    1    2  501    0 -0.28754560049E+03  0.55653323934E+02 -0.77686819457E+03  0.83024331166E+03  0.00000000000E+00 0. -1.
          1    1    1    2  502    0  0.86534342347E+01 -0.55657260462E+02  0.99874704364E+03  0.10003340791E+04  0.00000000000E+00 0. -1.
         22    1    3    3    0    0  0.16568762910E+03  0.53597820316E+02  0.42403982173E+03  0.45840471986E+03  0.00000000000E+00 0.  1.
         22    1    3    3    0    0  0.11320453715E+03 -0.53593883788E+02  0.19133037558E+03  0.22868074740E+03  0.00000000000E+00 0.  1.
</event>
<event>
 7    1  0.6255318E-006  0.6857782E+02  0.7818608E-02  0.1378203E+00
          2   -1    0    0  502    0  0.00000000000E+00  0.00000000000E+00  0.39561833918E+04  0.39561833918E+04  0.00000000000E+00 0. -1.
          1   -1    0    0  501    0 -0.00000000000E+00 -0.00000000000E+00 -0.22273278126E+03  0.22273278126E+03  0.00000000000E+00 0. -1.
         25    2    1    2    0    0 -0.72317426866E+02  0.25936071445E+02  0.11710314219E+04  0.11801897532E+04  0.12502308774E+03 0.  0.
          2    1    1    2  501    0  0.59533415088E+02  0.34212490257E+02 -0.21240154581E+03  0.22322441323E+03  0.00000000000E+00 0. -1.
          1    1    1    2  502    0  0.12784011777E+02 -0.60148561702E+02  0.27748207345E+04  0.27755020067E+04  0.00000000000E+00 0. -1.
         22    1    3    3    0    0 -0.25778332131E+02  0.45640246127E+02  0.10112195867E+04  0.10125772104E+04  0.00000000000E+00 0. -1.
         22    1    3    3    0    0 -0.46539094735E+02 -0.19704174681E+02  0.15981183511E+03  0.16761254273E+03  0.00000000000E+00 0. -1.
</event>
<event>
 7    1  0.6255318E-006  0.9630648E+02  0.7818608E-02  0.1341370E+00
          2   -1    0    0  502    0  0.00000000000E+00  0.00000000000E+00  0.42129174838E+03  0.42129174838E+03  0.00000000000E+00 0. -1.
          1   -1    0    0  501    0 -0.00000000000E+00 -0.00000000000E+00 -0.95149566848E+03  0.95149566848E+03  0.00000000000E+00 0. -1.
         25    2    1    2    0    0  0.17733156212E+02  0.66291384039E+02 -0.11484085627E+03  0.18310641915E+03  0.12502210220E+03 0.  0.
          2    1    1    2  501    0  0.59398793431E+02 -0.58007073937E+01 -0.79518133618E+03  0.79741784672E+03  0.00000000000E+00 0. -1.
          1    1    1    2  502    0 -0.77131949644E+02 -0.60490676645E+02  0.37981827235E+03  0.39226315099E+03  0.00000000000E+00 0. -1.
         22    1    3    3    0    0 -0.10925878746E+02  0.22079786858E+01 -0.11230909483E+03  0.11286090013E+03  0.00000000000E+00 0.  1.
         22    1    3    3    0    0  0.28659034958E+02  0.64083405353E+02 -0.25317614392E+01  0.70245519020E+02  0.00000000000E+00 0.  1.
</event>
<event>
 7    1  0.6255318E-006  0.8788881E+02  0.7818608E-02  0.1345144E+00
          2   -1    0    0  502    0  0.00000000000E+00  0.00000000000E+00  0.10299189308E+04  0.10299189308E+04  0.00000000000E+00 0. -1.
          1   -1    0    0  501    0 -0.00000000000E+00 -0.00000000000E+00 -0.11191303571E+04  0.11191303571E+04  0.00000000000E+00 0. -1.
         25    2    1    2    0    0 -0.60173278526E+02 -0.87796084740E+02 -0.60143006708E+03  0.62343559056E+03  0.12499933621E+03 0.  0.
          2    1    1    2  501    0  0.81943904113E+02  0.28353110909E+02 -0.50199377178E+03  0.50942757014E+03  0.00000000000E+00 0. -1.
          1    1    1    2  502    0 -0.21770625586E+02  0.59442973831E+02  0.10142124126E+04  0.10161861272E+04  0.00000000000E+00 0. -1.
         22    1    3    3    0    0 -0.72755892198E+02 -0.10006105976E+03 -0.58914744642E+03  0.60199696772E+03  0.00000000000E+00 0.  1.
         22    1    3    3    0    0  0.12582613671E+02  0.12264975018E+02 -0.12282620661E+02  0.21438622840E+02  0.00000000000E+00 0.  1.
</event>
<event>
 7    1  0.6255318E-006  0.8500745E+02  0.7818608E-02  0.1390346E+00
          2   -1    0    0  502    0  0.00000000000E+00  0.00000000000E+00  0.17060512387E+03  0.17060512387E+03  0.00000000000E+00 0. -1.
          1   -1    0    0  501    0 -0.00000000000E+00 -0.00000000000E+00 -0.51518880757E+03  0.51518880757E+03  0.00000000000E+00 0. -1.
         25    2    1    2    0    0  0.34272014007E+02  0.11494881951E+03  0.22758324923E+02  0.17472902994E+03  0.12499796198E+03 0.  0.
          2    1    1    2  501    0 -0.64308943662E+01 -0.44495956560E+02 -0.41769173591E+03  0.42010431181E+03  0.00000000000E+00 0. -1.
          1    1    1    2  502    0 -0.27841119640E+02 -0.70452862951E+02  0.50349727286E+02  0.90960589700E+02  0.00000000000E+00 0. -1.
         22    1    3    3    0    0  0.36113693674E+02 -0.23000430241E+01  0.42496464104E+02  0.55816113534E+02  0.00000000000E+00 0. -1.
         22    1    3    3    0    0 -0.18416796671E+01  0.11724886253E+03 -0.19738139180E+02  0.11891291641E+03  0.00000000000E+00 0. -1.
</event>
<event>
 7    1  0.6255318E-006  0.6129359E+02  0.7818608E-02  0.1393244E+00
          2   -1    0    0  502    0  0.00000000000E+00  0.00000000000E+00  0.30442614730E+03  0.30442614730E+03  0.00000000000E+00 0. -1.
          1   -1    0    0  501    0 -0.00000000000E+00 -0.00000000000E+00 -0.17407324832E+04  0.17407324832E+04  0.00000000000E+00 0. -1.
         25    2    1    2    0    0 -0.37249052741E+02 -0.86468208597E+02 -0.53131565198E+03  0.55388158787E+03  0.12499699323E+03 0.  0.
          2    1    1    2  501    0 -0.17187250937E+02  0.58446463573E+02 -0.11941520432E+04  0.11957050192E+04  0.00000000000E+00 0. -1.
          1    1    1    2  502    0  0.54436303679E+02  0.28021745024E+02  0.28916135926E+03  0.29557202344E+03  0.00000000000E+00 0. -1.
         22    1    3    3    0    0  0.14925196254E+02  0.19291045343E+02 -0.21355828440E+03  0.21494661372E+03  0.00000000000E+00 0. -1.
         22    1    3    3    0    0 -0.52174248995E+02 -0.10575925394E+03 -0.31775736759E+03  0.33893497416E+03  0.00000000000E+00 0. -1.
</event>
<event>
 7    1  0.6255318E-006  0.6222462E+02  0.7818608E-02  0.1428700E+00
          2   -1    0    0  502    0  0.00000000000E+00  0.00000000000E+00  0.17718164435E+04  0.17718164435E+04  0.00000000000E+00 0. -1.
          1   -1    0    0  501    0 -0.00000000000E+00 -0.00000000000E+00 -0.94391077213E+02  0.94391077213E+02  0.00000000000E+00 0. -1.
         25    2    1    2    0    0 -0.47652523595E+02 -0.73115734502E+02  0.12297962271E+03  0.19587737798E+03  0.12500914353E+03 0.  0.
          2    1    1    2  501    0 -0.75491124308E+01  0.44891117826E+02 -0.48308591993E+02  0.66377116678E+02  0.00000000000E+00 0. -1.
          1    1    1    2  502    0  0.55201636026E+02  0.28224616676E+02  0.16027543356E+04  0.16039530261E+04  0.00000000000E+00 0. -1.
         22    1    3    3    0    0  0.38082572947E+02 -0.10464300013E+02  0.61756074803E+02  0.73304820524E+02  0.00000000000E+00 0.  1.
         22    1    3    3    0    0 -0.85735096542E+02 -0.62651434489E+02  0.61223547907E+02  0.12257255745E+03  0.00000000000E+00 0.  1.
</event>
<event>
 7    1  0.6255318E-006  0.5859315E+02  0.7818608E-02  0.1411305E+00
          2   -1    0    0  502    0  0.00000000000E+00  0.00000000000E+00  0.68520910442E+02  0.68520910442E+02  0.00000000000E+00 0. -1.
          1   -1    0    0  501    0 -0.00000000000E+00 -0.00000000000E+00 -0.91071377916E+03  0.91071377916E+03  0.00000000000E+00 0. -1.
         25    2    1    2    0    0  0.12453139033E+02  0.29965931799E+01 -0.20491181920E+03  0.24036797022E+03  0.12499538878E+03 0.  0.
          2    1    1    2  501    0 -0.50834818157E+02  0.36763241208E+02 -0.67113360333E+03  0.67405936546E+03  0.00000000000E+00 0. -1.
          1    1    1    2  502    0  0.38381679123E+02 -0.39759834388E+02  0.33852553814E+02  0.64807353924E+02  0.00000000000E+00 0. -1.
         22    1    3    3    0    0  0.19182224425E+02  0.91722488989E+01 -0.22091822627E+03  0.22193906952E+03  0.00000000000E+00 0. -1.
         22    1    3    3    0    0 -0.67290853913E+01 -0.61756557191E+01  0.16006407066E+02  0.18428900697E+02  0.00000000000E+00 0. -1.
</event>
<event>
 7    1  0.6255318E-006  0.8991927E+02  0.7818608E-02  0.1378947E+00
          2   -1    0    0  502    0  0.00000000000E+00  0.00000000000E+00  0.18241850474E+04  0.18241850474E+04  0.00000000000E+00 0. -1.
          1   -1    0    0  501    0 -0.00000000000E+00 -0.00000000000E+00 -0.13864447429E+03  0.13864447429E+03  0.00000000000E+00 0. -1.
         25    2    1    2    0    0 -0.69140513374E+02  0.34018581216E+02  0.24366741699E+02  0.14885039200E+03  0.12500010656E+03 0.  0.
          2    1    1    2  501    0  0.97029830262E+02  0.33311272836E+01 -0.45112531937E+02  0.10705617641E+03  0.00000000000E+00 0. -1.
          1    1    1    2  502    0 -0.27889316887E+02 -0.37349708500E+02  0.17062863633E+04  0.17069229532E+04  0.00000000000E+00 0. -1.
         22    1    3    3    0    0 -0.76070561686E+02  0.73374337252E+02  0.91352606905E+01  0.10608476191E+03  0.00000000000E+00 0.  1.
         22    1    3    3    0    0  0.69300483119E+01 -0.39355756036E+02  0.15231481009E+02  0.42765630084E+02  0.00000000000E+00 0.  1.
</event>
<event>
 7    1  0.6255318E-006  0.3474070E+02  0.7818608E-02  0.1553589E+00
          2   -1    0    0  502    0  0.00000000000E+00  0.00000000000E+00  0.21212482165E+04  0.21212482165E+04  0.00000000000E+00 0. -1.
          1   -1    0    0  501    0 -0.00000000000E+00 -0.00000000000E+00 -0.46400898664E+02  0.46400898664E+02  0.00000000000E+00 0. -1.
         25    2    1    2    0    0 -0.30162464815E+02 -0.16960305856E+01  0.77740990902E+03  0.78797287785E+03  0.12498975469E+03 0.  0.
          2    1    1    2  501    0  0.15121286759E+02 -0.30620840764E+02 -0.33748582300E+02  0.48013081651E+02  0.00000000000E+00 0. -1.
          1    1    1    2  502    0  0.15041178056E+02  0.32316871350E+02  0.13311859911E+04  0.13316631556E+04  0.00000000000E+00 0. -1.
         22    1    3    3    0    0 -0.48118410441E+02 -0.54049331046E+02  0.39427171863E+03  0.40085770508E+03  0.00000000000E+00 0. -1.
         22    1    3    3    0    0  0.17955945626E+02  0.52353300461E+02  0.38313819039E+03  0.38711517277E+03  0.00000000000E+00 0. -1.
</event>
<event>
 7    1  0.7531194E-006  0.1107160E+03  0.7818608E-02  0.1278077E+00
          2   -1    0    0  502    0  0.00000000000E+00  0.00000000000E+00  0.26047025988E+04  0.26047025988E+04  0.00000000000E+00 0. -1.
          1   -1    0    0  501    0 -0.00000000000E+00 -0.00000000000E+00 -0.75027252317E+03  0.75027252317E+03  0.00000000000E+00 0. -1.
         25    2    1    2    0    0  0.10489119555E+01 -0.26405374327E+02  0.15001728976E+02  0.12864396485E+03  0.12500349520E+03 0.  0.
          2    1    1    2  501    0  0.67017276869E+02 -0.63395332624E+02 -0.68912299673E+03  0.69527029867E+03  0.00000000000E+00 0. -1.
          1    1    1    2  502    0 -0.68066188824E+02  0.89800706951E+02  0.25285513434E+04  0.25310608585E+04  0.00000000000E+00 0. -1.
         22    1    3    3    0    0 -0.43475457250E+02  0.18314491158E+01  0.49291919154E+02  0.65750763363E+02  0.00000000000E+00 0. -1.
         22    1    3    3    0    0  0.44524369205E+02 -0.28236823443E+02 -0.34290190177E+02  0.62893201490E+02  0.00000000000E+00 0. -1.
</event>
<event>
 7    1  0.6255318E-006  0.7272949E+02  0.7818608E-02  0.1450664E+00
          2   -1    0    0  502    0  0.00000000000E+00  0.00000000000E+00  0.13263815234E+04  0.13263815234E+04  0.00000000000E+00 0. -1.
          1   -1    0    0  501    0 -0.00000000000E+00 -0.00000000000E+00 -0.22275956023E+04  0.22275956023E+04  0.00000000000E+00 0. -1.
         25    2    1    2    0    0 -0.39971805174E+02  0.72715478871E+01  0.15769761253E+03  0.20529095417E+03  0.12500087300E+03 0.  0.
          2    1    1    2  501    0  0.72767303303E+02 -0.31899527591E+01 -0.22029584141E+04  0.22041622060E+04  0.00000000000E+00 0. -1.
          1    1    1    2  502    0 -0.32795498128E+02 -0.40815951280E+01  0.11440467226E+04  0.11445239655E+04  0.00000000000E+00 0. -1.
         22    1    3    3    0    0 -0.70385018606E+02 -0.12613090164E+02  0.15269849139E+03  0.16861189211E+03  0.00000000000E+00 0.  1.
         22    1    3    3    0    0  0.30413213432E+02  0.19884638051E+02  0.49991211367E+01  0.36679062063E+02  0.00000000000E+00 0.  1.
</event>
<event>
 7    1  0.6255318E-006  0.7700640E+02  0.7818608E-02  0.1488193E+00
          2   -1    0    0  502    0  0.00000000000E+00  0.00000000000E+00  0.61823906636E+03  0.61823906636E+03  0.00000000000E+00 0. -1.
          1   -1    0    0  501    0 -0.00000000000E+00 -0.00000000000E+00 -0.16928837584E+04  0.16928837584E+04  0.00000000000E+00 0. -1.
         25    2    1    2    0    0  0.79871436245E+02  0.23689365541E+02  0.38268608991E+03  0.41111194061E+03  0.12499500765E+03 0.  0.
          2    1    1    2  501    0 -0.64555533170E+02 -0.41971217940E+02 -0.16771424753E+04  0.16789091347E+04  0.00000000000E+00 0. -1.
          1    1    1    2  502    0 -0.15315903075E+02  0.18281852398E+02  0.21981169344E+03  0.22110174940E+03  0.00000000000E+00 0. -1.
         22    1    3    3    0    0  0.83305049681E+02  0.38728587408E+02  0.38473425888E+03  0.39555035677E+03  0.00000000000E+00 0. -1.
         22    1    3    3    0    0 -0.34336134364E+01 -0.15039221866E+02 -0.20481689722E+01  0.15561583843E+02  0.00000000000E+00 0. -1.
</event>
<event>
 7    1  0.6255318E-006  0.7190687E+02  0.7818608E-02  0.1464925E+00
          2   -1    0    0  502    0  0.00000000000E+00  0.00000000000E+00  0.14055908368E+04  0.14055908368E+04  0.00000000000E+00 0. -1.
          1   -1    0    0  501    0 -0.00000000000E+00 -0.00000000000E+00 -0.87098142378E+03  0.87098142378E+03  0.00000000000E+00 0. -1.
         25    2    1    2    0    0 -0.34184941793E+02 -0.70387938554E+02  0.88120768933E+02  0.17178331366E+03  0.12498465824E+03 0.  0.
          2    1    1    2  501    0  0.30095366993E+02 -0.13913620574E+01 -0.82786290460E+03  0.82841092208E+03  0.00000000000E+00 0. -1.
          1    1    1    2  502    0  0.40895748003E+01  0.71779300612E+02  0.12743515487E+04  0.12763780248E+04  0.00000000000E+00 0. -1.
         22    1    3    3    0    0 -0.46725103205E+02 -0.64205577988E+02  0.11601092769E+03  0.14058494534E+03  0.00000000000E+00 0. -1.
         22    1    3    3    0    0  0.12540161412E+02 -0.61823605666E+01 -0.27890158754E+02  0.31198368318E+02  0.00000000000E+00 0. -1.
</event>
<event>
 7    1  0.6255318E-006  0.1209909E+03  0.7818608E-02  0.1268704E+00
          2   -1    0    0  502    0  0.00000000000E+00  0.00000000000E+00  0.25110185448E+04  0.25110185448E+04  0.00000000000E+00 0. -1.
          1   -1    0    0  501    0 -0.00000000000E+00 -0.00000000000E+00 -0.15406295650E+04  0.15406295650E+04  0.00000000000E+00 0. -1.
         25    2    1    2    0    0  0.18793700429E+03 -0.21952681066E+02  0.28499893144E+02  0.22856014808E+03  0.12500103837E+03 0.  0.
          2    1    1    2  501    0 -0.84011596795E+02 -0.38420211516E+02 -0.14376001549E+04  0.14405652594E+04  0.00000000000E+00 0. -1.
          1    1    1    2  502    0 -0.10392540749E+03  0.60372892582E+02  0.23794892416E+04  0.23825227023E+04  0.00000000000E+00 0. -1.
         22    1    3    3    0    0  0.29196022465E+02 -0.50666507566E+02  0.33067278284E+02  0.67178475793E+02  0.00000000000E+00 0.  1.
         22    1    3    3    0    0  0.15874098182E+03  0.28713826500E+02 -0.45673851408E+01  0.16138167228E+03  0.00000000000E+00 0.  1.
</event>
<event>
 7    1  0.6255318E-006  0.1524598E+03  0.7818608E-02  0.1299971E+00
          2   -1    0    0  502    0  0.00000000000E+00  0.00000000000E+00  0.13187408186E+04  0.13187408186E+04  0.00000000000E+00 0. -1.
          1   -1    0    0  501    0 -0.00000000000E+00 -0.00000000000E+00 -0.31240500820E+03  0.31240500820E+03  0.00000000000E+00 0. -1.
         25    2    1    2    0    0  0.10934728624E+03 -0.99549471094E+02  0.79340655867E+02  0.20925167695E+03  0.12499759370E+03 0.  0.
          2    1    1    2  501    0  0.33414057672E+02  0.43125173299E+02 -0.23935092029E+03  0.24548959828E+03  0.00000000000E+00 0. -1.
          1    1    1    2  502    0 -0.14276134391E+03  0.56424297795E+02  0.11663460748E+04  0.11764045515E+04  0.00000000000E+00 0. -1.
         22    1    3    3    0    0  0.23304637229E+02  0.29663814144E+02  0.22554475442E+02  0.43951704727E+02  0.00000000000E+00 0. -1.
         22    1    3    3    0    0  0.86042649012E+02 -0.12921328524E+03  0.56786180424E+02  0.16529997223E+03  0.00000000000E+00 0. -1.
</event>
<event>
 7    1  0.6255318E-006  0.2150531E+03  0.7818608E-02  0.1193074E+00
          2   -1    0    0  502    0  0.00000000000E+00  0.00000000000E+00  0.61269143098E+02  0.61269143098E+02  0.00000000000E+00 0. -1.
          1   -1    0    0  501    0 -0.00000000000E+00 -0.00000000000E+00 -0.22502031963E+04  0.22502031963E+04  0.00000000000E+00 0. -1.
         25    2    1    2    0    0 -0.20073610585E+01 -0.83905116433E+00 -0.46232923024E+03  0.47893532194E+03  0.12500396778E+03 0.  0.
          2    1    1    2  501    0  0.21538034957E+03  0.27667832065E+02 -0.15162128057E+04  0.15316838695E+04  0.00000000000E+00 0. -1.
          1    1    1    2  502    0 -0.21337298851E+03 -0.26828780901E+02 -0.21039201727E+03  0.30085314797E+03  0.00000000000E+00 0. -1.
         22    1    3    3    0    0  0.18183244249E+02 -0.51556765604E+02 -0.11489021281E+03  0.12723400273E+03  0.00000000000E+00 0.  1.
         22    1    3    3    0    0 -0.20190605307E+02  0.50717714440E+02 -0.34743901744E+03  0.35170131922E+03  0.00000000000E+00 0.  1.
</event>
<event>
 7    1  0.6255318E-006  0.1557003E+03  0.7818608E-02  0.1305435E+00
          2   -1    0    0  502    0  0.00000000000E+00  0.00000000000E+00  0.16618597243E+04  0.16618597243E+04  0.00000000000E+00 0. -1.
          1   -1    0    0  501    0 -0.00000000000E+00 -0.00000000000E+00 -0.63812304345E+03  0.63812304345E+03  0.00000000000E+00 0. -1.
         25    2    1    2    0    0  0.15660307612E+03 -0.91067919104E+02  0.18693180471E+03  0.28875986793E+03  0.12498348839E+03 0.  0.
          2    1    1    2  501    0 -0.47588170517E+02 -0.17796104666E+02 -0.58193189646E+03  0.58414558753E+03  0.00000000000E+00 0. -1.
          1    1    1    2  502    0 -0.10901490561E+03  0.10886402377E+03  0.14187367726E+04  0.14270773123E+04  0.00000000000E+00 0. -1.
         22    1    3    3    0    0  0.17821331502E+03 -0.83662003104E+02  0.17237181727E+03  0.26167032656E+03  0.00000000000E+00 0.  1.
         22    1    3    3    0    0 -0.21610238898E+02 -0.74059159998E+01  0.14559987442E+02  0.27089541365E+02  0.00000000000E+00 0.  1.
</event>
<event>
 7    1  0.6255318E-006  0.2319052E+03  0.7818608E-02  0.1338689E+00
          2   -1    0    0  502    0  0.00000000000E+00  0.00000000000E+00  0.68757270367E+03  0.68757270367E+03  0.00000000000E+00 0. -1.
          1   -1    0    0  501    0 -0.00000000000E+00 -0.00000000000E+00 -0.95007979944E+03  0.95007979944E+03  0.00000000000E+00 0. -1.
         25    2    1    2    0    0  0.11322014904E+03 -0.17930199577E+03 -0.56901822660E+02  0.25264918455E+03  0.12500314074E+03 0.  0.
          2    1    1    2  501    0  0.23301059728E+01 -0.25259657444E+02 -0.77168697665E+03  0.77210379459E+03  0.00000000000E+00 0. -1.
          1    1    1    2  502    0 -0.11555025501E+03  0.20456165322E+03  0.56608170354E+03  0.61289952397E+03  0.00000000000E+00 0. -1.
         22    1    3    3    0    0  0.52619304376E+02 -0.33638355919E+02  0.33445431452E+02  0.70844386277E+02  0.00000000000E+00 0.  1.
         22    1    3    3    0    0  0.60600844664E+02 -0.14566363985E+03 -0.90347254112E+02  0.18180479827E+03  0.00000000000E+00 0.  1.
</event>
<event>
 7    1  0.6255318E-006  0.1760789E+03  0.7818608E-02  0.1377325E+00
          2   -1    0    0  502    0  0.00000000000E+00  0.00000000000E+00  0.87760840540E+03  0.87760840540E+03  0.00000000000E+00 0. -1.
          1   -1    0    0  501    0 -0.00000000000E+00 -0.00000000000E+00 -0.16194328893E+03  0.16194328893E+03  0.00000000000E+00 0. -1.
         25    2    1    2    0    0 -0.18121683616E+03  0.71101626765E+02  0.42035460972E+03  0.47981854303E+03  0.12503140918E+03 0.  0.
          2    1    1    2  501    0  0.15725844134E+03 -0.73908699400E+02 -0.74556500033E+02  0.18908036629E+03  0.00000000000E+00 0. -1.
          1    1    1    2  502    0  0.23958394821E+02  0.28070726356E+01  0.36986700677E+03  0.37065278501E+03  0.00000000000E+00 0. -1.
         22    1    3    3    0    0  0.17018463979E+01 -0.24769065501E+02  0.43522556962E+02  0.50106046056E+02  0.00000000000E+00 0.  1.
         22    1    3    3    0    0 -0.18291868256E+03  0.95870692265E+02  0.37683205276E+03  0.42971249697E+03  0.00000000000E+00 0.  1.
</event>
<event>
 7    1  0.6255318E-006  0.3546673E+02  0.7818608E-02  0.1571192E+00
          2   -1    0    0  502    0  0.00000000000E+00  0.00000000000E+00  0.61376735886E+03  0.61376735886E+03  0.00000000000E+00 0. -1.
          1   -1    0    0  501    0 -0.00000000000E+00 -0.00000000000E+00 -0.88614925412E+03  0.88614925412E+03  0.00000000000E+00 0. -1.
         25    2    1    2    0    0  0.15463870275E+02  0.36160514112E+02 -0.39349783000E+03  0.41474488867E+03  0.12500426550E+03 0.  0.
          2    1    1    2  501    0 -0.29705103127E+02 -0.36665307960E+01 -0.48104065679E+03  0.48197090170E+03  0.00000000000E+00 0. -1.
          1    1    1    2  502    0  0.14241232852E+02 -0.32493983316E+02  0.60215659154E+03  0.60320082261E+03  0.00000000000E+00 0. -1.
         22    1    3    3    0    0 -0.45284639447E+02  0.42478904522E+02 -0.12736093524E+03  0.14168967402E+03  0.00000000000E+00 0. -1.
         22    1    3    3    0    0  0.60748509722E+02 -0.63183904092E+01 -0.26613689477E+03  0.27305521465E+03  0.00000000000E+00 0. -1.
</event>
<event>
 7    1  0.6255318E-006  0.1129581E+03  0.7818608E-02  0.1383049E+00
          2   -1    0    0  502    0  0.00000000000E+00  0.00000000000E+00  0.28530072234E+04  0.28530072234E+04  0.00000000000E+00 0. -1.
          1   -1    0    0  501    0 -0.00000000000E+00 -0.00000000000E+00 -0.74995623868E+03  0.74995623868E+03  0.00000000000E+00 0. -1.
         25    2    1    2    0    0  0.14297233476E+03 -0.63137913058E+01  0.46162520746E+03  0.49920335878E+03  0.12500083516E+03 0.  0.
          2    1    1    2  501    0 -0.32399166109E+02  0.15433013897E+02 -0.72942872660E+03  0.73031099613E+03  0.00000000000E+00 0. -1.
          1    1    1    2  502    0 -0.11057316865E+03 -0.91192225913E+01  0.23708545039E+04  0.23734491072E+04  0.00000000000E+00 0. -1.
         22    1    3    3    0    0  0.42891331430E+02  0.28676043011E+02  0.30954207282E+03  0.31381248637E+03  0.00000000000E+00 0. -1.
         22    1    3    3    0    0  0.10008100333E+03 -0.34989834317E+02  0.15208313464E+03  0.18539087241E+03  0.00000000000E+00 0. -1.
</event>
<event>
 7    1  0.6255318E-006  0.1064537E+03  0.7818608E-02  0.1269433E+00
          2   -1    0    0  502    0  0.00000000000E+00  0.00000000000E+00  0.57914023386E+03  0.57914023386E+03  0.00000000000E+00 0. -1.
          1   -1    0    0  501    0 -0.00000000000E+00 -0.00000000000E+00 -0.49153022384E+03  0.49153022384E+03  0.00000000000E+00 0. -1.
         25    2    1    2    0    0 -0.74919380841E+01  0.65110384787E+01  0.14774052927E+03  0.19378049898E+03  0.12500038016E+03 0.  0.
          2    1    1    2  501    0  0.10886414793E+03  0.17840058061E+02 -0.45515827920E+03  0.46833612876E+03  0.00000000000E+00 0. -1.
          1    1    1    2  502    0 -0.10137220984E+03 -0.24351096539E+02  0.39502775996E+03  0.40855382996E+03  0.00000000000E+00 0. -1.
         22    1    3    3    0    0 -0.46734183086E+02 -0.27325597489E+02  0.12683693293E+03  0.13790714159E+03  0.00000000000E+00 0. -1.
         22    1    3    3    0    0  0.39242245002E+02  0.33836635968E+02  0.20903596337E+02  0.55873357392E+02  0.00000000000E+00 0. -1.
</event>
<event>
 7    1  0.6255318E-006  0.1121899E+03  0.7818608E-02  0.1302155E+00
          2   -1    0    0  502    0  0.00000000000E+00  0.00000000000E+00  0.22271395633E+04  0.22271395633E+04  0.00000000000E+00 0. -1.
          1   -1    0    0  501    0 -0.00000000000E+00 -0.00000000000E+00 -0.18900903138E+03  0.18900903138E+03  0.00000000000E+00 0. -1.
         25    2    1    2    0    0 -0.80608603645E+02 -0.12533985900E+02  0.31690810115E+03  0.35030087520E+03  0.12500044322E+03 0.  0.
          2    1    1    2  501    0  0.99473767975E+02 -0.57636976556E+02 -0.15235372343E+03  0.19086306249E+03  0.00000000000E+00 0. -1.
          1    1    1    2  502    0 -0.18865164329E+02  0.70170962456E+02  0.18735761542E+04  0.18749846570E+04  0.00000000000E+00 0. -1.
         22    1    3    3    0    0 -0.16632325180E+01  0.17916255958E+02 -0.39936275947E+01  0.18431159251E+02  0.00000000000E+00 0.  1.
         22    1    3    3    0    0 -0.78945371127E+02 -0.30450241858E+02  0.32090172875E+03  0.33186971595E+03  0.00000000000E+00 0.  1.
</event>
<event>
 7    1  0.6255318E-006  0.1152209E+03  0.7818608E-02  0.1424337E+00
          2   -1    0    0  502    0  0.00000000000E+00  0.00000000000E+00  0.63293046767E+02  0.63293046767E+02  0.00000000000E+00 0. -1.
          1   -1    0    0  501    0 -0.00000000000E+00 -0.00000000000E+00 -0.42875693251E+03  0.42875693251E+03  0.00000000000E+00 0. -1.
         25    2    1    2    0    0  0.12079685802E+03  0.17475423135E+02 -0.26403210206E+03  0.31659792493E+03  0.12499609524E+03 0.  0.
          2    1    1    2  501    0 -0.10382124390E+03 -0.36389160298E+02 -0.10201098722E+03  0.15003087411E+03  0.00000000000E+00 0. -1.
          1    1    1    2  502    0 -0.16975614126E+02  0.18913737164E+02  0.57920353664E+00  0.25421180247E+02  0.00000000000E+00 0. -1.
         22    1    3    3    0    0  0.13164511476E+03  0.49089675737E+02 -0.20076310127E+03  0.24504296631E+03  0.00000000000E+00 0.  1.
         22    1    3    3    0    0 -0.10848256736E+02 -0.31614252603E+02 -0.63269000791E+02  0.71554958618E+02  0.00000000000E+00 0.  1.
</event>
<event>
 7    1  0.6255318E-006  0.5443843E+02  0.7818608E-02  0.1460772E+00
          2   -1    0    0  502    0  0.00000000000E+00  0.00000000000E+00  0.10739367037E+03  0.10739367037E+03  0.00000000000E+00 0. -1.
          1   -1    0    0  501    0 -0.00000000000E+00 -0.00000000000E+00 -0.45010059630E+03  0.45010059630E+03  0.00000000000E+00 0. -1.
         25    2    1    2    0    0  0.49691270473E+02 -0.12054377890E+02 -0.11043312187E+03  0.17445270193E+03  0.12499496157E+03 0.  0.
          2    1    1    2  501    0 -0.29209025754E+02  0.47581763755E+02 -0.29930128899E+03  0.30446420647E+03  0.00000000000E+00 0. -1.
          1    1    1    2  502    0 -0.20482244719E+02 -0.35527385865E+02  0.67027484935E+02  0.78577358265E+02  0.00000000000E+00 0. -1.
         22    1    3    3    0    0  0.12830996636E+02 -0.56588150158E+02 -0.10447199526E+02  0.58957588069E+02  0.00000000000E+00 0.  1.
         22    1    3    3    0    0  0.36860273837E+02  0.44533772268E+02 -0.99985922343E+02  0.11549511386E+03  0.00000000000E+00 0.  1.
</event>
<event>
 7    1  0.6255318E-006  0.1128588E+03  0.7818608E-02  0.1431877E+00
          2   -1    0    0  502    0  0.00000000000E+00  0.00000000000E+00  0.19567984761E+04  0.19567984761E+04  0.00000000000E+00 0. -1.
          1   -1    0    0  501    0 -0.00000000000E+00 -0.00000000000E+00 -0.12734718035E+03  0.12734718035E+03  0.00000000000E+00 0. -1.
         25    2    1    2    0    0 -0.89548589354E+02 -0.75349342767E+00  0.55128737110E+03  0.57233014849E+03  0.12499806288E+03 0.  0.
          2    1    1    2  501    0  0.11401271723E+03 -0.59518227258E+00 -0.88872250726E+02  0.14455978307E+03  0.00000000000E+00 0. -1.
          1    1    1    2  502    0 -0.24464127874E+02  0.13486757002E+01  0.13670361754E+04  0.13672557249E+04  0.00000000000E+00 0. -1.
         22    1    3    3    0    0  0.24475302837E+02  0.34273277203E+01  0.30833208071E+02  0.39515487397E+02  0.00000000000E+00 0. -1.
         22    1    3    3    0    0 -0.11402389219E+03 -0.41808211480E+01  0.52045416303E+03  0.53281466109E+03  0.00000000000E+00 0. -1.
</event>
<event>
 7    1  0.6255318E-006  0.8458647E+02  0.7818608E-02  0.1369270E+00
          2   -1    0    0  502    0  0.00000000000E+00  0.00000000000E+00  0.79451901696E+03  0.79451901696E+03  0.00000000000E+00 0. -1.
          1   -1    0    0  501    0 -0.00000000000E+00 -0.00000000000E+00 -0.10233832841E+04  0.10233832841E+04  0.00000000000E+00 0. -1.
         25    2    1    2    0    0  0.40514594573E+02  0.49050467066E+02 -0.15675370394E+03  0.21034671650E+03  0.12500654683E+03 0.  0.
          2    1    1    2  501    0  0.42854602844E+02 -0.32291301801E+02 -0.83661614626E+03  0.83833514858E+03  0.00000000000E+00 0. -1.
          1    1    1    2  502    0 -0.83369197417E+02 -0.16759165265E+02  0.76450558303E+03  0.76922043601E+03  0.00000000000E+00 0. -1.
         22    1    3    3    0    0  0.79398869956E+02  0.59854556908E+02 -0.10343431542E+03  0.14347615182E+03  0.00000000000E+00 0. -1.
         22    1    3    3    0    0 -0.38884275382E+02 -0.10804089842E+02 -0.53319388514E+02  0.66870564681E+02  0.00000000000E+00 0. -1.
</event>
<event>
 7    1  0.6255318E-006  0.1487583E+03  0.7818608E-02  0.1225475E+00
          2   -1    0    0  502    0  0.00000000000E+00  0.00000000000E+00  0.74152077748E+03  0.74152077748E+03  0.00000000000E+00 0. -1.
          1   -1    0    0  501    0 -0.00000000000E+00 -0.00000000000E+00 -0.71897349313E+03  0.71897349313E+03  0.00000000000E+00 0. -1.
         25    2    1    2    0    0  0.33769772409E+02  0.33730853606E+02  0.10968944607E+03  0.17301480001E+03  0.12499671367E+03 0.  0.
          2    1    1    2  501    0 -0.43298946043E+02 -0.14930716735E+03 -0.67276088849E+03  0.69048869798E+03  0.00000000000E+00 0. -1.
          1    1    1    2  502    0  0.95291736338E+01  0.11557631375E+03  0.58561872677E+03  0.59699077262E+03  0.00000000000E+00 0. -1.
         22    1    3    3    0    0  0.36141820647E+02 -0.35188135817E+02  0.86732331745E+02  0.10033410921E+03  0.00000000000E+00 0. -1.
         22    1    3    3    0    0 -0.23720482378E+01  0.68918989423E+02  0.22957114323E+02  0.72680690792E+02  0.00000000000E+00 0. -1.
</event>
<event>
 7    1  0.6255318E-006  0.1263897E+03  0.7818608E-02  0.1428646E+00
          2   -1    0    0  502    0  0.00000000000E+00  0.00000000000E+00  0.28126818203E+04  0.28126818203E+04  0.00000000000E+00 0. -1.
          1   -1    0    0  501    0 -0.00000000000E+00 -0.00000000000E+00 -0.97595463085E+03  0.97595463085E+03  0.00000000000E+00 0. -1.
         25    2    1    2    0    0 -0.46173611600E+02  0.12305408735E+03 -0.14804829172E+03  0.23413098667E+03  0.12499884566E+03 0.  0.
          2    1    1    2  501    0 -0.17561231739E+02 -0.13938571131E+02 -0.78326312490E+03  0.78358394793E+03  0.00000000000E+00 0. -1.
          1    1    1    2  502    0  0.63734843339E+02 -0.10911551622E+03  0.27680386061E+04  0.27709215166E+04  0.00000000000E+00 0. -1.
         22    1    3    3    0    0 -0.34171766861E+02 -0.14448985909E+02 -0.89333637680E+01  0.38161339499E+02  0.00000000000E+00 0. -1.
         22    1    3    3    0    0 -0.12001844740E+02  0.13750307326E+03 -0.13911492795E+03  0.19596964717E+03  0.00000000000E+00 0. -1.
</event>
<event>
 7    1  0.6255318E-006  0.1830507E+03  0.7818608E-02  0.1275789E+00
          2   -1    0    0  502    0  0.00000000000E+00  0.00000000000E+00  0.13426049664E+04  0.13426049664E+04  0.00000000000E+00 0. -1.
          1   -1    0    0  501    0 -0.00000000000E+00 -0.00000000000E+00 -0.29483679931E+03  0.29483679931E+03  0.00000000000E+00 0. -1.
         25    2    1    2    0    0  0.32507676725E+02 -0.12682924783E+03  0.36029750365E+03  0.40321409570E+03  0.12499963474E+03 0.  0.
          2    1    1    2  501    0 -0.37798610455E+02  0.18361435907E+03 -0.24026193613E+03  0.30474377067E+03  0.00000000000E+00 0. -1.
          1    1    1    2  502    0  0.52909337308E+01 -0.56785111239E+02  0.92773259956E+03  0.92948389933E+03  0.00000000000E+00 0. -1.
         22    1    3    3    0    0 -0.53284293874E+01  0.23834969717E+02  0.34413974131E+02  0.42199757779E+02  0.00000000000E+00 0.  1.
         22    1    3    3    0    0  0.37836106112E+02 -0.15066421755E+03  0.32588352952E+03  0.36101433792E+03  0.00000000000E+00 0.  1.
</event>
<event>
 7    1  0.6255318E-006  0.8593379E+02  0.7818608E-02  0.1344476E+00
          2   -1    0    0  502    0  0.00000000000E+00  0.00000000000E+00  0.98720905016E+03  0.98720905016E+03  0.00000000000E+00 0. -1.
          1   -1    0    0  501    0 -0.00000000000E+00 -0.00000000000E+00 -0.20634874526E+03  0.20634874526E+03  0.00000000000E+00 0. -1.
         25    2    1    2    0    0  0.18897185474E+02 -0.29642769842E+02  0.21760266888E+03  0.25339844917E+03  0.12499622041E+03 0.  0.
          2    1    1    2  501    0 -0.83994057198E+02  0.27997158528E+02 -0.17654211832E+03  0.19749927106E+03  0.00000000000E+00 0. -1.
          1    1    1    2  502    0  0.65096871724E+02  0.16456113133E+01  0.73979975434E+03  0.74266007518E+03  0.00000000000E+00 0. -1.
         22    1    3    3    0    0  0.81120837699E+01  0.30048720160E+02  0.40364349134E+01  0.31385096673E+02  0.00000000000E+00 0. -1.
         22    1    3    3    0    0  0.10785101704E+02 -0.59691490002E+02  0.21356623396E+03  0.22201335250E+03  0.00000000000E+00 0. -1.
</event>
<event>
 7    1  0.6255318E-006  0.6129030E+02  0.7818608E-02  0.1398962E+00
          2   -1    0    0  502    0  0.00000000000E+00  0.00000000000E+00  0.43244619927E+03  0.43244619927E+03  0.00000000000E+00 0. -1.
          1   -1    0    0  501    0 -0.00000000000E+00 -0.00000000000E+00 -0.13050741304E+04  0.13050741304E+04  0.00000000000E+00 0. -1.
         25    2    1    2    0    0 -0.10871834662E+00 -0.14055551896E+02  0.92420782794E+02  0.15609007657E+03  0.12499976221E+03 0.  0.
          2    1    1    2  501    0 -0.48120391895E+02 -0.32758053448E+02 -0.12688996633E+04  0.12702342373E+04  0.00000000000E+00 0. -1.
          1    1    1    2  502    0  0.48229110242E+02  0.46813605344E+02  0.30385094943E+03  0.31119601570E+03  0.00000000000E+00 0. -1.
         22    1    3    3    0    0  0.60944515648E+02  0.17502378003E+01  0.32472592764E+02  0.69077974788E+02  0.00000000000E+00 0.  1.
         22    1    3    3    0    0 -0.61053233995E+02 -0.15805789696E+02  0.59948190031E+02  0.87012101786E+02  0.00000000000E+00 0.  1.
</event>
<event>
 7    1  0.6255318E-006  0.9599478E+02  0.7818608E-02  0.1378903E+00
          2   -1    0    0  502    0  0.00000000000E+00  0.00000000000E+00  0.42123395973E+03  0.42123395973E+03  0.00000000000E+00 0. -1.
          1   -1    0    0  501    0 -0.00000000000E+00 -0.00000000000E+00 -0.98304011754E+03  0.98304011754E+03  0.00000000000E+00 0. -1.
         25    2    1    2    0    0 -0.77997787176E+02  0.71560342554E+02  0.23044016066E+03  0.28272360717E+03  0.12500173188E+03 0.  0.
          2    1    1    2  501    0  0.41060538270E+02  0.14895477950E+02 -0.94293082597E+03  0.94394193975E+03  0.00000000000E+00 0. -1.
          1    1    1    2  502    0  0.36937248906E+02 -0.86455820505E+02  0.15068450749E+03  0.17760853035E+03  0.00000000000E+00 0. -1.
         22    1    3    3    0    0 -0.78511168282E+01  0.75038809495E+02  0.53893154197E+02  0.92719658299E+02  0.00000000000E+00 0. -1.
         22    1    3    3    0    0 -0.70146670348E+02 -0.34784669403E+01  0.17654700646E+03  0.19000394887E+03  0.00000000000E+00 0. -1.
</event>
<event>
 7    1  0.6255318E-006  0.1027576E+03  0.7818608E-02  0.1318612E+00
          2   -1    0    0  502    0  0.00000000000E+00  0.00000000000E+00  0.23768596798E+03  0.23768596798E+03  0.00000000000E+00 0. -1.
          1   -1    0    0  501    0 -0.00000000000E+00 -0.00000000000E+00 -0.13927378777E+04  0.13927378777E+04  0.00000000000E+00 0. -1.
         25    2    1    2    0    0  0.77244621625E+02 -0.66423557950E+02 -0.11927905972E+03  0.20057316290E+03  0.12499311568E+03 0.  0.
          2    1    1    2  501    0 -0.10390676034E+03  0.35068546698E+01 -0.12246177227E+04  0.12290229777E+04  0.00000000000E+00 0. -1.
          1    1    1    2  502    0  0.26662138713E+02  0.62916703281E+02  0.18884487271E+03  0.20082770511E+03  0.00000000000E+00 0. -1.
         22    1    3    3    0    0  0.48924062781E+02  0.27313742031E+02 -0.16043859513E+02  0.58283872991E+02  0.00000000000E+00 0. -1.
         22    1    3    3    0    0  0.28320558844E+02 -0.93737299982E+02 -0.10323520021E+03  0.14228928991E+03  0.00000000000E+00 0. -1.
</event>
<event>
 7    1  0.6255318E-006  0.6779022E+02  0.7818608E-02  0.1409450E+00
          2   -1    0    0  502    0  0.00000000000E+00  0.00000000000E+00  0.93556185894E+03  0.93556185894E+03  0.00000000000E+00 0. -1.
          1   -1    0    0  501    0 -0.00000000000E+00 -0.00000000000E+00 -0.68103474876E+03  0.68103474876E+03  0.00000000000E+00 0. -1.
         25    2    1    2    0    0  0.44763523309E+02  0.14032307795E+02 -0.19158587260E+03  0.23352259294E+03  0.12500790436E+03 0.  0.
          2    1    1    2  501    0  0.15251552826E+02 -0.45998929630E+02 -0.46595826182E+03  0.46847157134E+03  0.00000000000E+00 0. -1.
          1    1    1    2  502    0 -0.60015076134E+02  0.31966621836E+02  0.91207124461E+03  0.91460244342E+03  0.00000000000E+00 0. -1.
         22    1    3    3    0    0  0.84146374252E+02  0.26453757311E+02 -0.10181919053E+03  0.13471288408E+03  0.00000000000E+00 0.  1.
         22    1    3    3    0    0 -0.39382850944E+02 -0.12421449516E+02 -0.89766682067E+02  0.98809708864E+02  0.00000000000E+00 0.  1.
</event>
<event>
 7    1  0.6255318E-006  0.2604619E+03  0.7818608E-02  0.1239149E+00
          2   -1    0    0  502    0  0.00000000000E+00  0.00000000000E+00  0.14960224953E+04  0.14960224953E+04  0.00000000000E+00 0. -1.
          1   -1    0    0  501    0 -0.00000000000E+00 -0.00000000000E+00 -0.38727043375E+03  0.38727043375E+03  0.00000000000E+00 0. -1.
         25    2    1    2    0    0  0.20102363358E+03  0.12578729544E+03 -0.19927468090E+02  0.26879244188E+03  0.12497730944E+03 0.  0.
          2    1    1    2  501    0 -0.20738140477E+03 -0.18297889018E+03 -0.16334129983E+03  0.32119885044E+03  0.00000000000E+00 0. -1.
          1    1    1    2  502    0  0.63577711846E+01  0.57191594739E+02  0.12920208295E+04  0.12933016367E+04  0.00000000000E+00 0. -1.
         22    1    3    3    0    0  0.15992166940E+03  0.14782041480E+03  0.75699490960E+00  0.21777600514E+03  0.00000000000E+00 0. -1.
         22    1    3    3    0    0  0.41101964183E+02 -0.22033119355E+02 -0.20684462999E+02  0.51016436742E+02  0.00000000000E+00 0. -1.
</event>
<event>
 7    1  0.6255318E-006  0.1156366E+03  0.7818608E-02  0.1317930E+00
          2   -1    0    0  502    0  0.00000000000E+00  0.00000000000E+00  0.10828430793E+04  0.10828430793E+04  0.00000000000E+00 0. -1.
          1   -1    0    0  501    0 -0.00000000000E+00 -0.00000000000E+00 -0.43481477468E+03  0.43481477468E+03  0.00000000000E+00 0. -1.
         25    2    1    2    0    0 -0.13978407839E+03 -0.84574436891E+02  0.55098843099E+03  0.58813739184E+03  0.12499966662E+03 0.  0.
          2    1    1    2  501    0  0.54061993762E+02  0.28458010841E+02 -0.40883488472E+03  0.41337455233E+03  0.00000000000E+00 0. -1.
          1    1    1    2  502    0  0.85722084628E+02  0.56116426050E+02  0.50587475831E+03  0.51614590976E+03  0.00000000000E+00 0. -1.
         22    1    3    3    0    0 -0.37513064953E+02  0.32890772081E+02  0.14052164143E+03  0.14911527300E+03  0.00000000000E+00 0. -1.
         22    1    3    3    0    0 -0.10227101344E+03 -0.11746520897E+03  0.41046678956E+03  0.43902211885E+03  0.00000000000E+00 0. -1.
</event>
<event>
 7    1  0.6255318E-006  0.5168468E+02  0.7818608E-02  0.1556052E+00
          2   -1    0    0  502    0  0.00000000000E+00  0.00000000000E+00  0.32246954839E+04  0.32246954839E+04  0.00000000000E+00 0. -1.
          1   -1    0    0  501    0 -0.00000000000E+00 -0.00000000000E+00 -0.37852688978E+03  0.37852688978E+03  0.00000000000E+00 0. -1.
         25    2    1    2    0    0  0.20607587146E+02  0.24036076135E+02  0.18519737104E+03  0.22567583731E+03  0.12501644573E+03 0.  0.
          2    1    1    2  501    0  0.24883315658E+01  0.22459725347E+02 -0.35770793449E+03  0.35842097797E+03  0.00000000000E+00 0. -1.
          1    1    1    2  502    0 -0.23095918711E+02 -0.46495801482E+02  0.30186791576E+04  0.30191255584E+04  0.00000000000E+00 0. -1.
         22    1    3    3    0    0  0.64037599867E+02  0.41067559893E+02  0.78948457288E+02  0.10963675287E+03  0.00000000000E+00 0. -1.
         22    1    3    3    0    0 -0.43430012722E+02 -0.17031483758E+02  0.10624891375E+03  0.11603908444E+03  0.00000000000E+00 0. -1.
</event>
<event>
 7    1  0.6255318E-006  0.1258374E+03  0.7818608E-02  0.1298864E+00
          2   -1    0    0  502    0  0.00000000000E+00  0.00000000000E+00  0.37626376820E+03  0.37626376820E+03  0.00000000000E+00 0. -1.
          1   -1    0    0  501    0 -0.00000000000E+00 -0.00000000000E+00 -0.83233187178E+03  0.83233187178E+03  0.00000000000E+00 0. -1.
         25    2    1    2    0    0  0.11195996295E+03 -0.32263056700E+02 -0.20630654932E+03  0.26788658942E+03  0.12499957747E+03 0.  0.
          2    1    1    2  501    0 -0.90138040153E+02  0.95372025648E+02 -0.58466623155E+03  0.59921222607E+03  0.00000000000E+00 0. -1.
          1    1    1    2  502    0 -0.21821922793E+02 -0.63108968948E+02  0.33490467728E+03  0.34149682449E+03  0.00000000000E+00 0. -1.
         22    1    3    3    0    0  0.86341232714E+02 -0.59839527506E+02 -0.20485344410E+03  0.23021839865E+03  0.00000000000E+00 0.  1.
         22    1    3    3    0    0  0.25618730232E+02  0.27576470806E+02 -0.14531052178E+01  0.37668190766E+02  0.00000000000E+00 0.  1.
</event>
<event>
 7    1  0.6255318E-006  0.5894867E+02  0.7818608E-02  0.1402699E+00
          2   -1    0    0  502    0  0.00000000000E+00  0.00000000000E+00  0.60893088927E+03  0.60893088927E+03  0.00000000000E+00 0. -1.
          1   -1    0    0  501    0 -0.00000000000E+00 -0.00000000000E+00 -0.30026507136E+02  0.30026507136E+02  0.00000000000E+00 0. -1.
         25    2    1    2    0    0 -0.78711776339E+01  0.13238182182E+02  0.24767155674E+03  0.27785112434E+03  0.12499136921E+03 0.  0.
          2    1    1    2  501    0 -0.28221788625E+02  0.51754003465E+02  0.81778913525E+02  0.10081040088E+03  0.00000000000E+00 0. -1.
          1    1    1    2  502    0  0.36092966259E+02 -0.64992185647E+02  0.24945391188E+03  0.26029587119E+03  0.00000000000E+00 0. -1.
         22    1    3    3    0    0 -0.56723009745E+02  0.13664165473E+02  0.20448360693E+03  0.21264466783E+03  0.00000000000E+00 0.  1.
         22    1    3    3    0    0  0.48851832111E+02 -0.42598329121E+00  0.43187949802E+02  0.65206456509E+02  0.00000000000E+00 0.  1.
</event>
<event>
 7    1  0.6255318E-006  0.6805097E+02  0.7818608E-02  0.1497111E+00
          2   -1    0    0  502    0  0.00000000000E+00  0.00000000000E+00  0.32794287023E+04  0.32794287023E+04  0.00000000000E+00 0. -1.
          1   -1    0    0  501    0 -0.00000000000E+00 -0.00000000000E+00 -0.77371318794E+03  0.77371318794E+03  0.00000000000E+00 0. -1.
         25    2    1    2    0    0  0.18721158703E+02  0.46682629096E+02  0.13834444273E+04  0.13899903075E+04  0.12499928781E+03 0.  0.
          2    1    1    2  501    0  0.21957155434E+02  0.12705602307E+02 -0.76954673494E+03  0.76996475651E+03  0.00000000000E+00 0. -1.
          1    1    1    2  502    0 -0.40678314137E+02 -0.59388231403E+02  0.18918178220E+04  0.18931868262E+04  0.00000000000E+00 0. -1.
         22    1    3    3    0    0 -0.33015018761E+02 -0.27151660192E+02  0.34458961504E+03  0.34723076896E+03  0.00000000000E+00 0.  1.
         22    1    3    3    0    0  0.51736177464E+02  0.73834289288E+02  0.10388548123E+04  0.10427595386E+04  0.00000000000E+00 0.  1.
</event>
<event>
 7    1  0.6255318E-006  0.4529165E+02  0.7818608E-02  0.1500272E+00
          2   -1    0    0  502    0  0.00000000000E+00  0.00000000000E+00  0.27117057637E+04  0.27117057637E+04  0.00000000000E+00 0. -1.
          1   -1    0    0  501    0 -0.00000000000E+00 -0.00000000000E+00 -0.92781483045E+03  0.92781483045E+03  0.00000000000E+00 0. -1.
         25    2    1    2    0    0  0.25302157109E+02 -0.12581033606E+02  0.21439346671E+04  0.21477614844E+04  0.12500022120E+03 0.  0.
          2    1    1    2  501    0 -0.39694582915E+02 -0.21825605628E+02 -0.92473185593E+03  0.92584071111E+03  0.00000000000E+00 0. -1.
          1    1    1    2  502    0  0.14392425806E+02  0.34406639234E+02  0.56468812209E+03  0.56591839869E+03  0.00000000000E+00 0. -1.
         22    1    3    3    0    0  0.45583488959E+02  0.60594653268E+01  0.20308359659E+04  0.20313565152E+04  0.00000000000E+00 0.  1.
         22    1    3    3    0    0 -0.20281331850E+02 -0.18640498933E+02  0.11309870124E+03  0.11640496915E+03  0.00000000000E+00 0.  1.
</event>
<event>
 7    1  0.6255318E-006  0.6820765E+02  0.7818608E-02  0.1432650E+00
          2   -1    0    0  502    0  0.00000000000E+00  0.00000000000E+00  0.15790991802E+03  0.15790991802E+03  0.00000000000E+00 0. -1.
          1   -1    0    0  501    0 -0.00000000000E+00 -0.00000000000E+00 -0.94843409823E+03  0.94843409823E+03  0.00000000000E+00 0. -1.
         25    2    1    2    0    0  0.20792662939E+01  0.77099699476E+02 -0.48375074871E+02  0.15464226748E+03  0.12500158404E+03 0.  0.
          2    1    1    2  501    0 -0.36137373428E+02 -0.17848415451E+02 -0.83524317190E+03  0.83621506318E+03  0.00000000000E+00 0. -1.
          1    1    1    2  502    0  0.34058107134E+02 -0.59251284025E+02  0.93094066561E+02  0.11548668559E+03  0.00000000000E+00 0. -1.
         22    1    3    3    0    0 -0.55691610870E+02  0.74361200406E+01 -0.14681316339E+02  0.58072303657E+02  0.00000000000E+00 0. -1.
         22    1    3    3    0    0  0.57770877164E+02  0.69663579435E+02 -0.33693758532E+02  0.96569963819E+02  0.00000000000E+00 0. -1.
</event>
<event>
 7    1  0.6255318E-006  0.9015904E+02  0.7818608E-02  0.1411555E+00
          2   -1    0    0  502    0  0.00000000000E+00  0.00000000000E+00  0.97071367917E+03  0.97071367917E+03  0.00000000000E+00 0. -1.
          1   -1    0    0  501    0 -0.00000000000E+00 -0.00000000000E+00 -0.10541022085E+03  0.10541022085E+03  0.00000000000E+00 0. -1.
         25    2    1    2    0    0 -0.14553959913E+02  0.11174480833E+03  0.11647419877E+03  0.20467116482E+03  0.12500130716E+03 0.  0.
          2    1    1    2  501    0 -0.20129386593E+02 -0.29658790579E+02 -0.53386002235E+02  0.64303198194E+02  0.00000000000E+00 0. -1.
          1    1    1    2  502    0  0.34683346506E+02 -0.82086017752E+02  0.80221526179E+03  0.80714953701E+03  0.00000000000E+00 0. -1.
         22    1    3    3    0    0 -0.10443252432E+02  0.71149896106E+02  0.14013165350E+03  0.15750634765E+03  0.00000000000E+00 0.  1.
         22    1    3    3    0    0 -0.41107074807E+01  0.40594912226E+02 -0.23657454730E+02  0.47164817172E+02  0.00000000000E+00 0.  1.
</event>
<event>
 7    1  0.6255318E-006  0.6256615E+02  0.7818608E-02  0.1518127E+00
          2   -1    0    0  502    0  0.00000000000E+00  0.00000000000E+00  0.12154815250E+04  0.12154815250E+04  0.00000000000E+00 0. -1.
          1   -1    0    0  501    0 -0.00000000000E+00 -0.00000000000E+00 -0.23895388190E+04  0.23895388190E+04  0.00000000000E+00 0. -1.
         25    2    1    2    0    0 -0.48118539055E+02 -0.12994714978E+02 -0.73551493005E+03  0.74772721522E+03  0.12501807723E+03 0.  0.
          2    1    1    2  501    0  0.52770790143E+02  0.36455572574E+02 -0.16471753009E+04  0.16484235612E+04  0.00000000000E+00 0. -1.
          1    1    1    2  502    0 -0.46522510878E+01 -0.23460857596E+02  0.12086329370E+04  0.12088695676E+04  0.00000000000E+00 0. -1.
         22    1    3    3    0    0 -0.89280816081E+02 -0.17906067560E+02 -0.44042671299E+03  0.44974146005E+03  0.00000000000E+00 0. -1.
         22    1    3    3    0    0  0.41162277026E+02  0.49113525813E+01 -0.29508821706E+03  0.29798575517E+03  0.00000000000E+00 0. -1.
</event>
<event>
 7    1  0.6255318E-006  0.9424969E+02  0.7818608E-02  0.1380079E+00
          2   -1    0    0  502    0  0.00000000000E+00  0.00000000000E+00  0.12676427050E+03  0.12676427050E+03  0.00000000000E+00 0. -1.
          1   -1    0    0  501    0 -0.00000000000E+00 -0.00000000000E+00 -0.17384757882E+04  0.17384757882E+04  0.00000000000E+00 0. -1.
         25    2    1    2    0    0 -0.74056002012E+02 -0.43570131525E+00 -0.10825559320E+04  0.10922633237E+04  0.12500936444E+03 0.  0.
          2    1    1    2  501    0  0.11538249604E+03  0.15721262489E+02 -0.64166543083E+03  0.65214630538E+03  0.00000000000E+00 0. -1.
          1    1    1    2  502    0 -0.41326494032E+02 -0.15285561173E+02  0.11250984508E+03  0.12083042965E+03  0.00000000000E+00 0. -1.
         22    1    3    3    0    0 -0.77029625265E+02 -0.47162596825E+02 -0.86636208103E+03  0.87105747752E+03  0.00000000000E+00 0.  1.
         22    1    3    3    0    0  0.29736232536E+01  0.46726895510E+02 -0.21619385096E+03  0.22120584620E+03  0.00000000000E+00 0.  1.
</event>
<event>
 7    1  0.6255318E-006  0.4550537E+02  0.7818608E-02  0.1477497E+00
          2   -1    0    0  502    0  0.00000000000E+00  0.00000000000E+00  0.13559800615E+04  0.13559800615E+04  0.00000000000E+00 0. -1.
          1   -1    0    0  501    0 -0.00000000000E+00 -0.00000000000E+00 -0.60214154795E+03  0.60214154795E+03  0.00000000000E+00 0. -1.
         25    2    1    2    0    0 -0.29610265494E+02 -0.53357715997E+01 -0.17611772616E+03  0.21805473677E+03  0.12500070592E+03 0.  0.
          2    1    1    2  501    0  0.19224604927E+02 -0.39036636306E+02 -0.40349631275E+03  0.40583582741E+03  0.00000000000E+00 0. -1.
          1    1    1    2  502    0  0.10385660567E+02  0.44372407906E+02  0.13334525525E+04  0.13342310453E+04  0.00000000000E+00 0. -1.
         22    1    3    3    0    0  0.19309712701E+02 -0.54938916551E+02 -0.91332161747E+02  0.10831765011E+03  0.00000000000E+00 0.  1.
         22    1    3    3    0    0 -0.48919978195E+02  0.49603144952E+02 -0.84785564414E+02  0.10973708666E+03  0.00000000000E+00 0.  1.
</event>
<event>
 7    1  0.6255318E-006  0.1222841E+03  0.7818608E-02  0.1253388E+00
          2   -1    0    0  502    0  0.00000000000E+00  0.00000000000E+00  0.41529818532E+04  0.41529818532E+04  0.00000000000E+00 0. -1.
          1   -1    0    0  501    0 -0.00000000000E+00 -0.00000000000E+00 -0.46435807760E+02  0.46435807760E+02  0.00000000000E+00 0. -1.
         25    2    1    2    0    0  0.52688962376E+02  0.22211596252E+02  0.70654233954E+03  0.71978064770E+03  0.12495047615E+03 0.  0.
          2    1    1    2  501    0 -0.45558818200E+02 -0.12819488137E+03  0.79783197956E+02  0.15771776121E+03  0.00000000000E+00 0. -1.
          1    1    1    2  502    0 -0.71301441758E+01  0.10598328512E+03  0.33202205080E+04  0.33219192521E+04  0.00000000000E+00 0. -1.
         22    1    3    3    0    0 -0.28254703774E+02 -0.22017134688E+02  0.99099402893E+02  0.10537444737E+03  0.00000000000E+00 0.  1.
         22    1    3    3    0    0  0.80943666150E+02  0.44228730940E+02  0.60744293664E+03  0.61440620033E+03  0.00000000000E+00 0.  1.
</event>
<event>
 7    1  0.6255318E-006  0.2039096E+03  0.7818608E-02  0.1167708E+00
          2   -1    0    0  502    0  0.00000000000E+00  0.00000000000E+00  0.22931471824E+04  0.22931471824E+04  0.00000000000E+00 0. -1.
          1   -1    0    0  501    0 -0.00000000000E+00 -0.00000000000E+00 -0.12908779675E+03  0.12908779675E+03  0.00000000000E+00 0. -1.
         25    2    1    2    0    0  0.27974563792E+01 -0.79682420958E+02  0.43700972644E+03  0.46147521188E+03  0.12499902481E+03 0.  0.
          2    1    1    2  501    0  0.32634239317E+00  0.23871961761E+03  0.12711826774E+02  0.23905805335E+03  0.00000000000E+00 0. -1.
          1    1    1    2  502    0 -0.31237987723E+01 -0.15903719665E+03  0.17143378324E+04  0.17217017139E+04  0.00000000000E+00 0. -1.
         22    1    3    3    0    0  0.43275747642E+02 -0.37879534279E+02  0.73446161222E+02  0.93284446986E+02  0.00000000000E+00 0.  1.
         22    1    3    3    0    0 -0.40478291263E+02 -0.41802886680E+02  0.36356356522E+03  0.36819076489E+03  0.00000000000E+00 0.  1.
</event>
<event>
 7    1  0.6255318E-006  0.8427645E+02  0.7818608E-02  0.1448101E+00
          2   -1    0    0  502    0  0.00000000000E+00  0.00000000000E+00  0.51211171743E+03  0.51211171743E+03  0.00000000000E+00 0. -1.
          1   -1    0    0  501    0 -0.00000000000E+00 -0.00000000000E+00 -0.28362638396E+03  0.28362638396E+03  0.00000000000E+00 0. -1.
         25    2    1    2    0    0 -0.23383484625E+02 -0.51633054043E+02 -0.88532050055E+02  0.16332323460E+03  0.12499518171E+03 0.  0.
          2    1    1    2  501    0 -0.18285392624E+02 -0.22591908526E+02 -0.15249941328E+03  0.15524439109E+03  0.00000000000E+00 0. -1.
          1    1    1    2  502    0  0.41668877249E+02  0.74224962570E+02  0.46951679680E+03  0.47717047570E+03  0.00000000000E+00 0. -1.
         22    1    3    3    0    0 -0.29642159263E+02 -0.91802949470E+02 -0.59108472042E+02  0.11313819251E+03  0.00000000000E+00 0. -1.
         22    1    3    3    0    0  0.62586746381E+01  0.40169895427E+02 -0.29423578013E+02  0.50185042094E+02  0.00000000000E+00 0. -1.
</event>
<event>
 7    1  0.6255318E-006  0.1093061E+03  0.7818608E-02  0.1313608E+00
          2   -1    0    0  502    0  0.00000000000E+00  0.00000000000E+00  0.22389332448E+04  0.22389332448E+04  0.00000000000E+00 0. -1.
          1   -1    0    0  501    0 -0.00000000000E+00 -0.00000000000E+00 -0.12195812859E+03  0.12195812859E+03  0.00000000000E+00 0. -1.
         25    2    1    2    0    0  0.40458940113E+02 -0.14096749797E+03 -0.71677612596E+01  0.19283010767E+03  0.12499324904E+03 0.  0.
          2    1    1    2  501    0 -0.24803472569E+02  0.75622246916E+02  0.52530158459E+02  0.95359079420E+02  0.00000000000E+00 0. -1.
          1    1    1    2  502    0 -0.15655467544E+02  0.65345251050E+02  0.20716127191E+04  0.20727021863E+04  0.00000000000E+00 0. -1.
         22    1    3    3    0    0  0.66799591695E+02 -0.22773120850E+02  0.69491678995E+01  0.70916087162E+02  0.00000000000E+00 0. -1.
         22    1    3    3    0    0 -0.26340651582E+02 -0.11819437712E+03 -0.14116929159E+02  0.12191402051E+03  0.00000000000E+00 0. -1.
</event>
<event>
 7    1  0.6255318E-006  0.9814780E+02  0.7818608E-02  0.1419484E+00
          2   -1    0    0  502    0  0.00000000000E+00  0.00000000000E+00  0.40514860653E+03  0.40514860653E+03  0.00000000000E+00 0. -1.
          1   -1    0    0  501    0 -0.00000000000E+00 -0.00000000000E+00 -0.20672556204E+03  0.20672556204E+03  0.00000000000E+00 0. -1.
         25    2    1    2    0    0 -0.42308632876E+02 -0.66747381441E+02 -0.74088940550E+01  0.14809190957E+03  0.12502435213E+03 0.  0.
          2    1    1    2  501    0  0.72038711334E+02  0.75412170256E+02 -0.10700228790E+03  0.14941907833E+03  0.00000000000E+00 0. -1.
          1    1    1    2  502    0 -0.29730078457E+02 -0.86647888153E+01  0.31283422644E+03  0.31436318067E+03  0.00000000000E+00 0. -1.
         22    1    3    3    0    0 -0.15641425586E+02 -0.86451944325E+02 -0.44381498940E+02  0.98429214770E+02  0.00000000000E+00 0.  1.
         22    1    3    3    0    0 -0.26667207290E+02  0.19704562885E+02  0.36972604885E+02  0.49662694803E+02  0.00000000000E+00 0.  1.
</event>
<event>
 7    1  0.6255318E-006  0.2528626E+03  0.7818608E-02  0.1203084E+00
          2   -1    0    0  502    0  0.00000000000E+00  0.00000000000E+00  0.57711853254E+03  0.57711853254E+03  0.00000000000E+00 0. -1.
          1   -1    0    0  501    0 -0.00000000000E+00 -0.00000000000E+00 -0.11578392488E+04  0.11578392488E+04  0.00000000000E+00 0. -1.
         25    2    1    2    0    0  0.85544480510E+02 -0.32305122518E+03 -0.44455903053E+03  0.57003301004E+03  0.12499979468E+03 0.  0.
          2    1    1    2  501    0 -0.28668873358E+02  0.81612364788E+02 -0.61744838994E+03  0.62347814447E+03  0.00000000000E+00 0. -1.
          1    1    1    2  502    0 -0.56875607151E+02  0.24143886039E+03  0.48128670424E+03  0.54144662680E+03  0.00000000000E+00 0. -1.
         22    1    3    3    0    0  0.11132293473E+03 -0.29840295393E+03 -0.37607299929E+03  0.49281641562E+03  0.00000000000E+00 0. -1.
         22    1    3    3    0    0 -0.25778454223E+02 -0.24648271247E+02 -0.68486031247E+02  0.77216594418E+02  0.00000000000E+00 0. -1.
</event>
<event>
 7    1  0.6255318E-006  0.3939966E+02  0.7818608E-02  0.1546894E+00
          2   -1    0    0  502    0  0.00000000000E+00  0.00000000000E+00  0.83827279311E+03  0.83827279311E+03  0.00000000000E+00 0. -1.
          1   -1    0    0  501    0 -0.00000000000E+00 -0.00000000000E+00 -0.17055849567E+04  0.17055849567E+04  0.00000000000E+00 0. -1.
         25    2    1    2    0    0  0.28895449737E+02  0.87157329473E+01  0.36857197187E+02  0.13377072914E+03  0.12500097589E+03 0.  0.
          2    1    1    2  501    0 -0.14163609050E+02  0.28063667783E+02 -0.16564577664E+04  0.16567560198E+04  0.00000000000E+00 0. -1.
          1    1    1    2  502    0 -0.14731840687E+02 -0.36779400730E+02  0.75228840568E+03  0.75333100080E+03  0.00000000000E+00 0. -1.
         22    1    3    3    0    0  0.60824772531E+02 -0.99359984107E+01 -0.20996270346E+02  0.65109295698E+02  0.00000000000E+00 0.  1.
         22    1    3    3    0    0 -0.31929322794E+02  0.18651731358E+02  0.57853467533E+02  0.68661433442E+02  0.00000000000E+00 0.  1.
</event>
<event>
 7    1  0.6255318E-006  0.1120087E+03  0.7818608E-02  0.1367729E+00
          2   -1    0    0  502    0  0.00000000000E+00  0.00000000000E+00  0.48327070582E+03  0.48327070582E+03  0.00000000000E+00 0. -1.
          1   -1    0    0  501    0 -0.00000000000E+00 -0.00000000000E+00 -0.91634779271E+03  0.91634779271E+03  0.00000000000E+00 0. -1.
         25    2    1    2    0    0  0.32409498609E+02  0.13833835725E+03  0.46544852046E+02  0.19488319469E+03  0.12500063854E+03 0.  0.
          2    1    1    2  501    0 -0.16392534832E+01 -0.11117723421E+03 -0.83733007432E+03  0.84468024596E+03  0.00000000000E+00 0. -1.
          1    1    1    2  502    0 -0.30770245125E+02 -0.27161123042E+02  0.35770813538E+03  0.36005505788E+03  0.00000000000E+00 0. -1.
         22    1    3    3    0    0  0.70737737018E+02  0.10166180889E+03  0.63512912887E+02  0.13918635324E+03  0.00000000000E+00 0. -1.
         22    1    3    3    0    0 -0.38328238409E+02  0.36676548361E+02 -0.16968060841E+02  0.55696841454E+02  0.00000000000E+00 0. -1.
</event>
<event>
 7    1  0.6255318E-006  0.9525858E+02  0.7818608E-02  0.1357496E+00
          2   -1    0    0  502    0  0.00000000000E+00  0.00000000000E+00  0.10760258461E+03  0.10760258461E+03  0.00000000000E+00 0. -1.
          1   -1    0    0  501    0 -0.00000000000E+00 -0.00000000000E+00 -0.20044101024E+04  0.20044101024E+04  0.00000000000E+00 0. -1.
         25    2    1    2    0    0  0.51740970254E+02 -0.64850996123E+02 -0.39758572547E+02  0.15517681477E+03  0.12496527538E+03 0.  0.
          2    1    1    2  501    0 -0.33702263816E+02 -0.40353020595E+02 -0.18490499458E+04  0.18497972622E+04  0.00000000000E+00 0. -1.
          1    1    1    2  502    0 -0.18038706438E+02  0.10520401672E+03 -0.79989994390E+01  0.10703861012E+03  0.00000000000E+00 0. -1.
         22    1    3    3    0    0  0.14246809746E+02 -0.59033450273E+02 -0.79625242573E+02  0.10014039691E+03  0.00000000000E+00 0. -1.
         22    1    3    3    0    0  0.37494160507E+02 -0.58175458501E+01  0.39866670026E+02  0.55036417860E+02  0.00000000000E+00 0. -1.
</event>
<event>
 7    1  0.6255318E-006  0.8144928E+02  0.7818608E-02  0.1425188E+00
          2   -1    0    0  502    0  0.00000000000E+00  0.00000000000E+00  0.31950463324E+04  0.31950463324E+04  0.00000000000E+00 0. -1.
          1   -1    0    0  501    0 -0.00000000000E+00 -0.00000000000E+00 -0.20765204593E+02  0.20765204593E+02  0.00000000000E+00 0. -1.
         25    2    1    2    0    0 -0.46505417048E+02  0.35199659399E+02  0.50057147468E+03  0.51922812503E+03  0.12499709887E+03 0.  0.
          2    1    1    2  501    0 -0.33581119818E+02 -0.12173527652E+02  0.18797397512E+02  0.40363703212E+02  0.00000000000E+00 0. -1.
          1    1    1    2  502    0  0.80086536866E+02 -0.23026131747E+02  0.26549122556E+04  0.26562197087E+04  0.00000000000E+00 0. -1.
         22    1    3    3    0    0 -0.95791055561E+01 -0.45452196461E+02  0.12578781372E+03  0.13409040051E+03  0.00000000000E+00 0. -1.
         22    1    3    3    0    0 -0.36926311492E+02  0.80651855860E+02  0.37478366095E+03  0.38513772453E+03  0.00000000000E+00 0. -1.
</event>
<event>
 7    1  0.6255318E-006  0.8348057E+02  0.7818608E-02  0.1368542E+00
          2   -1    0    0  502    0  0.00000000000E+00  0.00000000000E+00  0.50303980958E+03  0.50303980958E+03  0.00000000000E+00 0. -1.
          1   -1    0    0  501    0 -0.00000000000E+00 -0.00000000000E+00 -0.28790392210E+03  0.28790392210E+03  0.00000000000E+00 0. -1.
         25    2    1    2    0    0 -0.15778697863E+02  0.50246176159E+02 -0.61741848399E+02  0.14903355836E+03  0.12500120059E+03 0.  0.
          2    1    1    2  501    0  0.46275787195E+02  0.29163240177E+02 -0.17435281521E+03  0.18273162624E+03  0.00000000000E+00 0. -1.
          1    1    1    2  502    0 -0.30497089332E+02 -0.79409416336E+02  0.45123055109E+03  0.45917854708E+03  0.00000000000E+00 0. -1.
         22    1    3    3    0    0 -0.12973265657E+02  0.34883859796E+02  0.34969727910E+02  0.51069278105E+02  0.00000000000E+00 0.  1.
         22    1    3    3    0    0 -0.28054322062E+01  0.15362316363E+02 -0.96711576309E+02  0.97964280256E+02  0.00000000000E+00 0.  1.
</event>
<event>
 7    1  0.6255318E-006  0.7340665E+02  0.7818608E-02  0.1477648E+00
          2   -1    0    0  502    0  0.00000000000E+00  0.00000000000E+00  0.94399588055E+03  0.94399588055E+03  0.00000000000E+00 0. -1.
          1   -1    0    0  501    0 -0.00000000000E+00 -0.00000000000E+00 -0.64391240653E+02  0.64391240653E+02  0.00000000000E+00 0. -1.
         25    2    1    2    0    0 -0.40335137960E+02 -0.41610408481E+02  0.11046704250E+03  0.17659750117E+03  0.12500144196E+03 0.  0.
          2    1    1    2  501    0  0.67277515135E+02  0.42042412866E+02  0.19535690295E+02  0.81703560006E+02  0.00000000000E+00 0. -1.
          1    1    1    2  502    0 -0.26942377175E+02 -0.43200438481E+00  0.74960190711E+03  0.75008606003E+03  0.00000000000E+00 0. -1.
         22    1    3    3    0    0 -0.14882202392E+02 -0.60204140292E+01  0.12833469317E+03  0.12933490946E+03  0.00000000000E+00 0. -1.
         22    1    3    3    0    0 -0.25452935569E+02 -0.35589994452E+02 -0.17867650676E+02  0.47262591707E+02  0.00000000000E+00 0. -1.
</event>
<event>
 7    1  0.6255318E-006  0.5492887E+02  0.7818608E-02  0.1515852E+00
          2   -1    0    0  502    0  0.00000000000E+00  0.00000000000E+00  0.21510877690E+03  0.21510877690E+03  0.00000000000E+00 0. -1.
          1   -1    0    0  501    0 -0.00000000000E+00 -0.00000000000E+00 -0.11128270959E+04  0.11128270959E+04  0.00000000000E+00 0. -1.
         25    2    1    2    0    0  0.13151383705E+02 -0.60664817577E+02 -0.21653445981E+02  0.14122894598E+03  0.12499425776E+03 0.  0.
          2    1    1    2  501    0  0.21143749911E+02  0.17836725209E+02 -0.10263482714E+04  0.10267209851E+04  0.00000000000E+00 0. -1.
          1    1    1    2  502    0 -0.34295133616E+02  0.42828092367E+02  0.15028339847E+03  0.15998594170E+03  0.00000000000E+00 0. -1.
         22    1    3    3    0    0 -0.40160229632E+02 -0.45958212250E+01 -0.44927763494E+02  0.60435664548E+02  0.00000000000E+00 0. -1.
         22    1    3    3    0    0  0.53311613337E+02 -0.56068996352E+02  0.23274317513E+02  0.80793281430E+02  0.00000000000E+00 0. -1.
</event>
<event>
 7    1  0.6255318E-006  0.1131585E+03  0.7818608E-02  0.1353112E+00
          2   -1    0    0  502    0  0.00000000000E+00  0.00000000000E+00  0.22533362586E+03  0.22533362586E+03  0.00000000000E+00 0. -1.
          1   -1    0    0  501    0 -0.00000000000E+00 -0.00000000000E+00 -0.54231197463E+03  0.54231197463E+03  0.00000000000E+00 0. -1.
         25    2    1    2    0    0 -0.13213824219E+03  0.39880252622E+02  0.68287140730E+02  0.19833438736E+03  0.12498978368E+03 0.  0.
          2    1    1    2  501    0  0.29048782594E+02 -0.35579863489E+02 -0.44681421402E+03  0.44916889953E+03  0.00000000000E+00 0. -1.
          1    1    1    2  502    0  0.10308945960E+03 -0.43003891323E+01  0.61548724522E+02  0.12014231360E+03  0.00000000000E+00 0. -1.
         22    1    3    3    0    0  0.17341353984E+02 -0.18814775733E+02  0.10621844951E+02  0.27704547173E+02  0.00000000000E+00 0. -1.
         22    1    3    3    0    0 -0.14947959617E+03  0.58695028355E+02  0.57665295779E+02  0.17062984019E+03  0.00000000000E+00 0. -1.
</event>
<event>
 7    1  0.6255318E-006  0.1752182E+03  0.7818608E-02  0.1267320E+00
          2   -1    0    0  502    0  0.00000000000E+00  0.00000000000E+00  0.13151801487E+03  0.13151801487E+03  0.00000000000E+00 0. -1.
          1   -1    0    0  501    0 -0.00000000000E+00 -0.00000000000E+00 -0.16935395739E+04  0.16935395739E+04  0.00000000000E+00 0. -1.
         25    2    1    2    0    0  0.11784647603E+03  0.80207462030E+02 -0.90401401974E+02  0.21004395184E+03  0.12500007739E+03 0.  0.
          2    1    1    2  501    0 -0.10615156988E+03 -0.14379280507E+03 -0.15223678348E+04  0.15328236529E+04  0.00000000000E+00 0. -1.
          1    1    1    2  502    0 -0.11694906153E+02  0.63585343043E+02  0.50747677714E+02  0.82189984020E+02  0.00000000000E+00 0. -1.
         22    1    3    3    0    0  0.61981532630E+02 -0.15788226516E+02  0.42699270135E+01  0.64103125980E+02  0.00000000000E+00 0. -1.
         22    1    3    3    0    0  0.55864943399E+02  0.95995688546E+02 -0.94671328988E+02  0.14594082586E+03  0.00000000000E+00 0. -1.
</event>
<event>
 7    1  0.6255318E-006  0.6314382E+02  0.7818608E-02  0.1486423E+00
          2   -1    0    0  502    0  0.00000000000E+00  0.00000000000E+00  0.15150305791E+03  0.15150305791E+03  0.00000000000E+00 0. -1.
          1   -1    0    0  501    0 -0.00000000000E+00 -0.00000000000E+00 -0.73870777036E+03  0.73870777036E+03  0.00000000000E+00 0. -1.
         25    2    1    2    0    0  0.34215899727E+02  0.53054785980E+02 -0.53505199927E+03  0.55307413764E+03  0.12499928675E+03 0.  0.
          2    1    1    2  501    0  0.20417747617E+02 -0.21219980831E+02 -0.18641661521E+03  0.18872818134E+03  0.00000000000E+00 0. -1.
          1    1    1    2  502    0 -0.54633647344E+02 -0.31834805149E+02  0.13426390204E+03  0.14840850930E+03  0.00000000000E+00 0. -1.
         22    1    3    3    0    0  0.69520033252E+02 -0.35568774145E+01 -0.33611074043E+03  0.34324352322E+03  0.00000000000E+00 0.  1.
         22    1    3    3    0    0 -0.35304133525E+02  0.56611663394E+02 -0.19894125884E+03  0.20983061442E+03  0.00000000000E+00 0.  1.
</event>
<event>
 7    1  0.6255318E-006  0.4752422E+02  0.7818608E-02  0.1519151E+00
          2   -1    0    0  502    0  0.00000000000E+00  0.00000000000E+00  0.31150570862E+04  0.31150570862E+04  0.00000000000E+00 0. -1.
          1   -1    0    0  501    0 -0.00000000000E+00 -0.00000000000E+00 -0.29260083553E+02  0.29260083553E+02  0.00000000000E+00 0. -1.
         25    2    1    2    0    0  0.71417022348E+02  0.28623426223E+02  0.11187282847E+04  0.11283164585E+04  0.12500145539E+03 0.  0.
          2    1    1    2  501    0 -0.29995782667E+02 -0.88446199553E+01 -0.14097191826E+02  0.34303135387E+02  0.00000000000E+00 0. -1.
          1    1    1    2  502    0 -0.41421239681E+02 -0.19778806267E+02  0.19811659098E+04  0.19816975759E+04  0.00000000000E+00 0. -1.
         22    1    3    3    0    0  0.16049979390E+02  0.54103819992E+02  0.20705184942E+03  0.21460497087E+03  0.00000000000E+00 0.  1.
         22    1    3    3    0    0  0.55367042958E+02 -0.25480393769E+02  0.91167643528E+03  0.91371148759E+03  0.00000000000E+00 0.  1.
</event>
<event>
 7    1  0.6255318E-006  0.5052221E+03  0.7818608E-02  0.1169702E+00
          2   -1    0    0  502    0  0.00000000000E+00  0.00000000000E+00  0.94671240373E+03  0.94671240373E+03  0.00000000000E+00 0. -1.
          1   -1    0    0  501    0 -0.00000000000E+00 -0.00000000000E+00 -0.68907240365E+03  0.68907240365E+03  0.00000000000E+00 0. -1.
         25    2    1    2    0    0 -0.29206497182E+03  0.35823468210E+03  0.12021039276E+03  0.49367018540E+03  0.12500271275E+03 0.  0.
          2    1    1    2  501    0  0.33760705203E+03 -0.40140226556E+03 -0.36293695967E+03  0.63782876783E+03  0.00000000000E+00 0. -1.
          1    1    1    2  502    0 -0.45542080209E+02  0.43167583455E+02  0.50036656700E+03  0.50428585415E+03  0.00000000000E+00 0. -1.
         22    1    3    3    0    0 -0.16457388810E+03  0.20036468143E+03  0.29501944502E+01  0.25930536797E+03  0.00000000000E+00 0.  1.
         22    1    3    3    0    0 -0.12749108372E+03  0.15787000067E+03  0.11726019831E+03  0.23436481743E+03  0.00000000000E+00 0.  1.
</event>
<event>
 7    1  0.6255318E-006  0.1055618E+03  0.7818608E-02  0.1462451E+00
          2   -1    0    0  502    0  0.00000000000E+00  0.00000000000E+00  0.37409135643E+03  0.37409135643E+03  0.00000000000E+00 0. -1.
          1   -1    0    0  501    0 -0.00000000000E+00 -0.00000000000E+00 -0.95811062392E+03  0.95811062392E+03  0.00000000000E+00 0. -1.
         25    2    1    2    0    0 -0.12140517329E+03  0.28217658707E+02  0.12702818471E+03  0.21747912667E+03  0.12500223384E+03 0.  0.
          2    1    1    2  501    0  0.10065845971E+03 -0.30681609324E+02 -0.90930187066E+03  0.91537062365E+03  0.00000000000E+00 0. -1.
          1    1    1    2  502    0  0.20746713576E+02  0.24639506170E+01  0.19825441845E+03  0.19935223002E+03  0.00000000000E+00 0. -1.
         22    1    3    3    0    0 -0.44394822959E+02 -0.31756023133E+02  0.10359802997E+03  0.11709781007E+03  0.00000000000E+00 0. -1.
         22    1    3    3    0    0 -0.77010350326E+02  0.59973681840E+02  0.23430154744E+02  0.10038131660E+03  0.00000000000E+00 0. -1.
</event>
<event>
 7    1  0.6255318E-006  0.5646262E+02  0.7818608E-02  0.1467334E+00
          2   -1    0    0  502    0  0.00000000000E+00  0.00000000000E+00  0.10935462339E+04  0.10935462339E+04  0.00000000000E+00 0. -1.
          1   -1    0    0  501    0 -0.00000000000E+00 -0.00000000000E+00 -0.78121176122E+03  0.78121176122E+03  0.00000000000E+00 0. -1.
         25    2    1    2    0    0  0.47985858310E+02  0.45494908167E+02  0.71221711009E+03  0.72612011428E+03  0.12499911674E+03 0.  0.
          2    1    1    2  501    0 -0.55805854079E+02 -0.86064654719E+01 -0.77227736716E+03  0.77433887699E+03  0.00000000000E+00 0. -1.
          1    1    1    2  502    0  0.78199957698E+01 -0.36888442695E+02  0.37239472973E+03  0.37429900383E+03  0.00000000000E+00 0. -1.
         22    1    3    3    0    0  0.10552431528E+02 -0.15867361849E+02  0.12655586057E+02  0.22875551177E+02  0.00000000000E+00 0.  1.
         22    1    3    3    0    0  0.37433426781E+02  0.61362270017E+02  0.69956152404E+03  0.70324456311E+03  0.00000000000E+00 0.  1.
</event>
<event>
 7    1  0.6255318E-006  0.9262741E+02  0.7818608E-02  0.1338988E+00
          2   -1    0    0  502    0  0.00000000000E+00  0.00000000000E+00  0.38792378778E+03  0.38792378778E+03  0.00000000000E+00 0. -1.
          1   -1    0    0  501    0 -0.00000000000E+00 -0.00000000000E+00 -0.55539425513E+03  0.55539425513E+03  0.00000000000E+00 0. -1.
         25    2    1    2    0    0  0.82297360632E+02  0.73051597513E+02 -0.44640344910E+02  0.17240784195E+03  0.12498924796E+03 0.  0.
          2    1    1    2  501    0 -0.92115960717E+02 -0.10472305087E+02 -0.43888494777E+03  0.44856996865E+03  0.00000000000E+00 0. -1.
          1    1    1    2  502    0  0.98186000851E+01 -0.62579292426E+02  0.31605482534E+03  0.32234023231E+03  0.00000000000E+00 0. -1.
         22    1    3    3    0    0  0.47376210096E+01 -0.70431959511E+01 -0.59345312193E+02  0.59949293085E+02  0.00000000000E+00 0. -1.
         22    1    3    3    0    0  0.77559739622E+02  0.80094793464E+02  0.14704967284E+02  0.11245854887E+03  0.00000000000E+00 0. -1.
</event>
<event>
 7    1  0.6255318E-006  0.6408971E+02  0.7818608E-02  0.1387672E+00
          2   -1    0    0  502    0  0.00000000000E+00  0.00000000000E+00  0.62305028969E+02  0.62305028969E+02  0.00000000000E+00 0. -1.
          1   -1    0    0  501    0 -0.00000000000E+00 -0.00000000000E+00 -0.38355389456E+03  0.38355389456E+03  0.00000000000E+00 0. -1.
         25    2    1    2    0    0  0.50963220287E+02 -0.26415681001E+02 -0.20356160597E+03  0.24567737741E+03  0.12500003327E+03 0.  0.
          2    1    1    2  501    0  0.26520427209E+01  0.64034817368E+02 -0.11845401080E+03  0.13468052509E+03  0.00000000000E+00 0. -1.
          1    1    1    2  502    0 -0.53615263008E+02 -0.37619136366E+02  0.76675117788E+00  0.65501021028E+02  0.00000000000E+00 0. -1.
         22    1    3    3    0    0 -0.19735327888E+02 -0.53541943408E+02 -0.56702070715E+02  0.80444687171E+02  0.00000000000E+00 0.  1.
         22    1    3    3    0    0  0.70698548174E+02  0.27126262407E+02 -0.14685953526E+03  0.16523269023E+03  0.00000000000E+00 0.  1.
</event>
<event>
 7    1  0.6255318E-006  0.4105803E+02  0.7818608E-02  0.1545103E+00
          2   -1    0    0  502    0  0.00000000000E+00  0.00000000000E+00  0.23658277913E+04  0.23658277913E+04  0.00000000000E+00 0. -1.
          1   -1    0    0  501    0 -0.00000000000E+00 -0.00000000000E+00 -0.41297194350E+03  0.41297194350E+03  0.00000000000E+00 0. -1.
         25    2    1    2    0    0  0.46483379091E+02  0.53776280627E+02  0.48635859480E+02  0.15180053378E+03  0.12500144934E+03 0.  0.
          2    1    1    2  501    0 -0.24850453811E+02 -0.32252407454E+02 -0.36013966992E+03  0.36243391769E+03  0.00000000000E+00 0. -1.
          1    1    1    2  502    0 -0.21632925280E+02 -0.21523873173E+02  0.22643596582E+04  0.22645652833E+04  0.00000000000E+00 0. -1.
         22    1    3    3    0    0 -0.16473727227E+02  0.44572170734E+02 -0.25642837604E+02  0.53996455560E+02  0.00000000000E+00 0. -1.
         22    1    3    3    0    0  0.62957106318E+02  0.92041098939E+01  0.74278697085E+02  0.97804078215E+02  0.00000000000E+00 0. -1.
</event>
<event>
 7    1  0.6255318E-006  0.5718116E+02  0.7818608E-02  0.1460655E+00
          2   -1    0    0  502    0  0.00000000000E+00  0.00000000000E+00  0.59003975033E+02  0.59003975033E+02  0.00000000000E+00 0. -1.
          1   -1    0    0  501    0 -0.00000000000E+00 -0.00000000000E+00 -0.11727025871E+04  0.11727025871E+04  0.00000000000E+00 0. -1.
         25    2    1    2    0    0  0.18075748782E+02  0.23273001818E+02 -0.13648218643E+03  0.18740379210E+03  0.12499771507E+03 0.  0.
          2    1    1    2  501    0  0.38950587224E+02  0.31136746404E+01 -0.98059842441E+03  0.98137664185E+03  0.00000000000E+00 0. -1.
          1    1    1    2  502    0 -0.57026336006E+02 -0.26386676458E+02  0.33819987722E+01  0.62926128186E+02  0.00000000000E+00 0. -1.
         22    1    3    3    0    0  0.12113517857E+02 -0.11342457670E+01  0.22965246750E+02  0.25988966633E+02  0.00000000000E+00 0. -1.
         22    1    3    3    0    0  0.59622309253E+01  0.24407247585E+02 -0.15944743318E+03  0.16141482546E+03  0.00000000000E+00 0. -1.
</event>
<event>
 7    1  0.6255318E-006  0.5859336E+02  0.7818608E-02  0.1471058E+00
          2   -1    0    0  502    0  0.00000000000E+00  0.00000000000E+00  0.18280643085E+04  0.18280643085E+04  0.00000000000E+00 0. -1.
          1   -1    0    0  501    0 -0.00000000000E+00 -0.00000000000E+00 -0.18178943295E+03  0.18178943295E+03  0.00000000000E+00 0. -1.
         25    2    1    2    0    0 -0.86644007355E+02  0.19141117577E+02 -0.24693161066E+02  0.15527018256E+03  0.12500204397E+03 0.  0.
          2    1    1    2  501    0  0.51267826036E+02 -0.19635186527E+02 -0.83406255315E+02  0.99852561119E+02  0.00000000000E+00 0. -1.
          1    1    1    2  502    0  0.35376181319E+02  0.49406895041E+00  0.17543742919E+04  0.17547309977E+04  0.00000000000E+00 0. -1.
         22    1    3    3    0    0 -0.85771259838E+02  0.55418857761E+02  0.13007642777E+02  0.10294249647E+03  0.00000000000E+00 0.  1.
         22    1    3    3    0    0 -0.87274751714E+00 -0.36277740185E+02 -0.37700803843E+02  0.52327686090E+02  0.00000000000E+00 0.  1.
</event>
<event>
 7    1  0.6255318E-006  0.6225427E+02  0.7818608E-02  0.1409038E+00
          2   -1    0    0  502    0  0.00000000000E+00  0.00000000000E+00  0.64819510887E+03  0.64819510887E+03  0.00000000000E+00 0. -1.
          1   -1    0    0  501    0 -0.00000000000E+00 -0.00000000000E+00 -0.70323962803E+02  0.70323962803E+02  0.00000000000E+00 0. -1.
         25    2    1    2    0    0  0.36346919101E+02 -0.30792361384E+02  0.33258795427E+03  0.35848168721E+03  0.12500041876E+03 0.  0.
          2    1    1    2  501    0  0.49740664825E+01  0.63887652830E+02 -0.36213536952E+02  0.73605664049E+02  0.00000000000E+00 0. -1.
          1    1    1    2  502    0 -0.41320985583E+02 -0.33095291446E+02  0.28149672875E+03  0.28643172042E+03  0.00000000000E+00 0. -1.
         22    1    3    3    0    0  0.38135160354E+02 -0.14314027073E+02  0.33845618229E+03  0.34089847338E+03  0.00000000000E+00 0.  1.
         22    1    3    3    0    0 -0.17882412527E+01 -0.16478334311E+02 -0.58682280141E+01  0.17583213827E+02  0.00000000000E+00 0.  1.
</event>
<event>
 7    1  0.6255318E-006  0.4817851E+02  0.7818608E-02  0.1458377E+00
          2   -1    0    0  502    0  0.00000000000E+00  0.00000000000E+00  0.22026254472E+03  0.22026254472E+03  0.00000000000E+00 0. -1.
          1   -1    0    0  501    0 -0.00000000000E+00 -0.00000000000E+00 -0.16067394976E+04  0.16067394976E+04  0.00000000000E+00 0. -1.
         25    2    1    2    0    0 -0.46678026390E+02 -0.64515313787E+02 -0.36391925016E+03  0.39294174610E+03  0.12499972534E+03 0.  0.
          2    1    1    2  501    0  0.44251072575E+02  0.17427204004E+02 -0.12251402545E+04  0.12260630115E+04  0.00000000000E+00 0. -1.
          1    1    1    2  502    0  0.24269538149E+01  0.47088109783E+02  0.20258255177E+03  0.20799728477E+03  0.00000000000E+00 0. -1.
         22    1    3    3    0    0 -0.41775235556E+02 -0.95501955890E+02 -0.19478983975E+03  0.22092730830E+03  0.00000000000E+00 0.  1.
         22    1    3    3    0    0 -0.49027908344E+01  0.30986642103E+02 -0.16912941041E+03  0.17201443780E+03  0.00000000000E+00 0.  1.
</event>
<event>
 7    1  0.6255318E-006  0.3758517E+02  0.7818608E-02  0.1627883E+00
          2   -1    0    0  502    0  0.00000000000E+00  0.00000000000E+00  0.12569261029E+03  0.12569261029E+03  0.00000000000E+00 0. -1.
          1   -1    0    0  501    0 -0.00000000000E+00 -0.00000000000E+00 -0.66598289006E+03  0.66598289006E+03  0.00000000000E+00 0. -1.
         25    2    1    2    0    0  0.96601520840E+01 -0.15820642579E+02 -0.26213361463E+02  0.12905599108E+03  0.12499878897E+03 0.  0.
          2    1    1    2  501    0 -0.26051537553E+02  0.27410621162E+02 -0.58637140731E+03  0.58758952685E+03  0.00000000000E+00 0. -1.
          1    1    1    2  502    0  0.16391385469E+02 -0.11589978584E+02  0.72294489004E+02  0.75029982418E+02  0.00000000000E+00 0. -1.
         22    1    3    3    0    0 -0.29103536529E+02 -0.18902035008E+02 -0.65282578626E+02  0.73933198483E+02  0.00000000000E+00 0. -1.
         22    1    3    3    0    0  0.38763688613E+02  0.30813924293E+01  0.39069217163E+02  0.55122792599E+02  0.00000000000E+00 0. -1.
</event>
<event>
 7    1  0.6255318E-006  0.8123089E+02  0.7818608E-02  0.1434091E+00
          2   -1    0    0  502    0  0.00000000000E+00  0.00000000000E+00  0.92604589264E+03  0.92604589264E+03  0.00000000000E+00 0. -1.
          1   -1    0    0  501    0 -0.00000000000E+00 -0.00000000000E+00 -0.95154721361E+03  0.95154721361E+03  0.00000000000E+00 0. -1.
         25    2    1    2    0    0 -0.68835877782E+02  0.47782653389E+01  0.20409729191E+03  0.24908231050E+03  0.12500033179E+03 0.  0.
          2    1    1    2  501    0 -0.97009621844E+01 -0.32040484509E+02 -0.92628103342E+03  0.92688578271E+03  0.00000000000E+00 0. -1.
          1    1    1    2  502    0  0.78536839967E+02  0.27262219170E+02  0.69668242055E+03  0.70162501304E+03  0.00000000000E+00 0. -1.
         22    1    3    3    0    0 -0.51677866182E+02 -0.30101192449E+02  0.23349361921E+02  0.64201840644E+02  0.00000000000E+00 0. -1.
         22    1    3    3    0    0 -0.17158011600E+02  0.34879457788E+02  0.18074792999E+03  0.18488046985E+03  0.00000000000E+00 0. -1.
</event>
<event>
 7    1  0.6255318E-006  0.1140194E+03  0.7818608E-02  0.1318649E+00
          2   -1    0    0  502    0  0.00000000000E+00  0.00000000000E+00  0.34971244303E+04  0.34971244303E+04  0.00000000000E+00 0. -1.
          1   -1    0    0  501    0 -0.00000000000E+00 -0.00000000000E+00 -0.62008581724E+03  0.62008581724E+03  0.00000000000E+00 0. -1.
         25    2    1    2    0    0 -0.12130927295E+03  0.17869284032E+02 -0.16652586774E+03  0.24164418985E+03  0.12500319535E+03 0.  0.
          2    1    1    2  501    0  0.10707784309E+03  0.42026738921E+02 -0.40776916836E+03  0.42368337934E+03  0.00000000000E+00 0. -1.
          1    1    1    2  502    0  0.14231429864E+02 -0.59896022953E+02  0.34513336492E+04  0.34518826784E+04  0.00000000000E+00 0. -1.
         22    1    3    3    0    0  0.13741942458E+02 -0.44404185665E+01 -0.76407890082E+02  0.77760683937E+02  0.00000000000E+00 0. -1.
         22    1    3    3    0    0 -0.13505121541E+03  0.22309702598E+02 -0.90117977656E+02  0.16388350592E+03  0.00000000000E+00 0. -1.
</event>
<event>
 7    1  0.6255318E-006  0.3992218E+02  0.7818608E-02  0.1613891E+00
          2   -1    0    0  502    0  0.00000000000E+00  0.00000000000E+00  0.24379161380E+04  0.24379161380E+04  0.00000000000E+00 0. -1.
          1   -1    0    0  501    0 -0.00000000000E+00 -0.00000000000E+00 -0.28375033071E+03  0.28375033071E+03  0.00000000000E+00 0. -1.
         25    2    1    2    0    0  0.33877610991E+02 -0.49993742720E+02 -0.22410064892E+03  0.26361515631E+03  0.12499913179E+03 0.  0.
          2    1    1    2  501    0 -0.12261762627E+02  0.16446282294E+02 -0.37079360526E+02  0.42375818589E+02  0.00000000000E+00 0. -1.
          1    1    1    2  502    0 -0.21615848363E+02  0.33547460426E+02  0.24153458167E+04  0.24156754938E+04  0.00000000000E+00 0. -1.
         22    1    3    3    0    0  0.44397317892E+02 -0.66540909543E+02 -0.22969442462E+03  0.24322488191E+03  0.00000000000E+00 0.  1.
         22    1    3    3    0    0 -0.10519706901E+02  0.16547166823E+02  0.55937757021E+01  0.20390274392E+02  0.00000000000E+00 0.  1.
</event>
<event>
 7    1  0.6255318E-006  0.3483316E+02  0.7818608E-02  0.1567035E+00
          2   -1    0    0  502    0  0.00000000000E+00  0.00000000000E+00  0.75375237897E+03  0.75375237897E+03  0.00000000000E+00 0. -1.
          1   -1    0    0  501    0 -0.00000000000E+00 -0.00000000000E+00 -0.15261780361E+03  0.15261780361E+03  0.00000000000E+00 0. -1.
         25    2    1    2    0    0  0.22603338873E+02  0.57146346478E+02  0.77304731427E+02  0.15930427690E+03  0.12500086117E+03 0.  0.
          2    1    1    2  501    0  0.32621105324E+00 -0.31277056863E+02 -0.10894564700E+03  0.11334687777E+03  0.00000000000E+00 0. -1.
          1    1    1    2  502    0 -0.22929549926E+02 -0.25869289616E+02  0.63277549093E+03  0.63371902791E+03  0.00000000000E+00 0. -1.
         22    1    3    3    0    0  0.70348639035E+02  0.10522476563E+02  0.51220535005E+02  0.87653846084E+02  0.00000000000E+00 0. -1.
         22    1    3    3    0    0 -0.47745300162E+02  0.46623869916E+02  0.26084196422E+02  0.71650430818E+02  0.00000000000E+00 0. -1.
</event>
<event>
 7    1  0.6255318E-006  0.1259406E+03  0.7818608E-02  0.1269933E+00
          2   -1    0    0  502    0  0.00000000000E+00  0.00000000000E+00  0.18030443061E+04  0.18030443061E+04  0.00000000000E+00 0. -1.
          1   -1    0    0  501    0 -0.00000000000E+00 -0.00000000000E+00 -0.14870190808E+04  0.14870190808E+04  0.00000000000E+00 0. -1.
         25    2    1    2    0    0 -0.11811247953E+03 -0.39225694263E+02  0.21183395235E+03  0.27565903888E+03  0.12500027775E+03 0.  0.
          2    1    1    2  501    0  0.51852367073E+02 -0.70728943280E+02 -0.14511381793E+04  0.14537858394E+04  0.00000000000E+00 0. -1.
          1    1    1    2  502    0  0.66260112461E+02  0.10995463754E+03  0.15553294522E+04  0.15606185087E+04  0.00000000000E+00 0. -1.
         22    1    3    3    0    0 -0.98508398720E+02 -0.14708243597E+01  0.21127269582E+03  0.23311417791E+03  0.00000000000E+00 0.  1.
         22    1    3    3    0    0 -0.19604080815E+02 -0.37754869904E+02  0.56125652184E+00  0.42544860969E+02  0.00000000000E+00 0.  1.
</event>
<event>
 7    1  0.6255318E-006  0.8027566E+02  0.7818608E-02  0.1379693E+00
          2   -1    0    0  502    0  0.00000000000E+00  0.00000000000E+00  0.70879572648E+03  0.70879572648E+03  0.00000000000E+00 0. -1.
          1   -1    0    0  501    0 -0.00000000000E+00 -0.00000000000E+00 -0.12848470897E+04  0.12848470897E+04  0.00000000000E+00 0. -1.
         25    2    1    2    0    0 -0.17163754271E+02 -0.27687851603E+02 -0.29120544344E+02  0.13243648533E+03  0.12502081809E+03 0.  0.
          2    1    1    2  501    0 -0.45528652533E+02 -0.24906515838E+02 -0.12009584246E+04  0.12020791698E+04  0.00000000000E+00 0. -1.
          1    1    1    2  502    0  0.62692406804E+02  0.52594367442E+02  0.65402760576E+03  0.65912716106E+03  0.00000000000E+00 0. -1.
         22    1    3    3    0    0  0.25985569701E+02 -0.62834978729E+02  0.32148966673E+01  0.68072167185E+02  0.00000000000E+00 0.  1.
         22    1    3    3    0    0 -0.43149323972E+02  0.35147127126E+02 -0.32335441011E+02  0.64364318142E+02  0.00000000000E+00 0.  1.
</event>
<event>
 7    1  0.6255318E-006  0.1089786E+03  0.7818608E-02  0.1317532E+00
          2   -1    0    0  502    0  0.00000000000E+00  0.00000000000E+00  0.92926859630E+02  0.92926859630E+02  0.00000000000E+00 0. -1.
          1   -1    0    0  501    0 -0.00000000000E+00 -0.00000000000E+00 -0.19206188716E+04  0.19206188716E+04  0.00000000000E+00 0. -1.
         25    2    1    2    0    0  0.51380097943E+02 -0.48400495879E+02 -0.89625971647E+02  0.16924263328E+03  0.12501092616E+03 0.  0.
          2    1    1    2  501    0  0.36673883803E+02 -0.53736902811E+02 -0.17039622310E+04  0.17052037747E+04  0.00000000000E+00 0. -1.
          1    1    1    2  502    0 -0.88053981746E+02  0.10213739869E+03 -0.34103809260E+02  0.13909932321E+03  0.00000000000E+00 0. -1.
         22    1    3    3    0    0  0.75605990172E+02 -0.73196691048E+02 -0.82819647212E+02  0.13391458208E+03  0.00000000000E+00 0. -1.
         22    1    3    3    0    0 -0.24225892229E+02  0.24796195169E+02 -0.68063244345E+01  0.35328051198E+02  0.00000000000E+00 0. -1.
</event>
<event>
 7    1  0.6255318E-006  0.3289914E+02  0.7818608E-02  0.1587246E+00
          2   -1    0    0  502    0  0.00000000000E+00  0.00000000000E+00  0.15497501722E+04  0.15497501722E+04  0.00000000000E+00 0. -1.
          1   -1    0    0  501    0 -0.00000000000E+00 -0.00000000000E+00 -0.77263552637E+03  0.77263552637E+03  0.00000000000E+00 0. -1.
         25    2    1    2    0    0 -0.37166377417E+02  0.30944176288E+02  0.12146862417E+04  0.12220597065E+04  0.12501351462E+03 0.  0.
          2    1    1    2  501    0  0.79640847238E+01 -0.31918803478E+02 -0.76795188509E+03  0.76865618743E+03  0.00000000000E+00 0. -1.
          1    1    1    2  502    0  0.29202292694E+02  0.97462718989E+00  0.33038028925E+03  0.33166980466E+03  0.00000000000E+00 0. -1.
         22    1    3    3    0    0  0.12385759460E+02 -0.27032461525E+02  0.89882008198E+02  0.94672786011E+02  0.00000000000E+00 0. -1.
         22    1    3    3    0    0 -0.49552136878E+02  0.57976637813E+02  0.11248042335E+04  0.11273869205E+04  0.00000000000E+00 0. -1.
</event>
<event>
 7    1  0.6255318E-006  0.1206124E+03  0.7818608E-02  0.1384367E+00
          2   -1    0    0  502    0  0.00000000000E+00  0.00000000000E+00  0.12303502453E+03  0.12303502453E+03  0.00000000000E+00 0. -1.
          1   -1    0    0  501    0 -0.00000000000E+00 -0.00000000000E+00 -0.31056714016E+04  0.31056714016E+04  0.00000000000E+00 0. -1.
         25    2    1    2    0    0  0.76580330628E+02  0.92265261444E+02 -0.98679322301E+03  0.10018799571E+04  0.12500063210E+03 0.  0.
          2    1    1    2  501    0 -0.27812074739E+02  0.18226676908E+02 -0.20795900478E+04  0.20798558821E+04  0.00000000000E+00 0. -1.
          1    1    1    2  502    0 -0.48768255889E+02 -0.11049193835E+03  0.83746893716E+02  0.14697058696E+03  0.00000000000E+00 0. -1.
         22    1    3    3    0    0 -0.65603068569E+01  0.68190227226E+02 -0.66939379118E+03  0.67289002994E+03  0.00000000000E+00 0.  1.
         22    1    3    3    0    0  0.83140637485E+02  0.24075034218E+02 -0.31739943183E+03  0.32898992720E+03  0.00000000000E+00 0.  1.
</event>
<event>
 7    1  0.6255318E-006  0.5991689E+02  0.7818608E-02  0.1476573E+00
          2   -1    0    0  502    0  0.00000000000E+00  0.00000000000E+00  0.15707475077E+04  0.15707475077E+04  0.00000000000E+00 0. -1.
          1   -1    0    0  501    0 -0.00000000000E+00 -0.00000000000E+00 -0.17602553243E+03  0.17602553243E+03  0.00000000000E+00 0. -1.
         25    2    1    2    0    0 -0.23679630095E+02  0.21312105906E+02  0.37342755514E+02  0.13429329655E+03  0.12500110947E+03 0.  0.
          2    1    1    2  501    0 -0.33236064514E+02 -0.13865148898E+01 -0.12475779689E+03  0.12911648342E+03  0.00000000000E+00 0. -1.
          1    1    1    2  502    0  0.56915694608E+02 -0.19925591017E+02  0.14821370166E+04  0.14833632601E+04  0.00000000000E+00 0. -1.
         22    1    3    3    0    0 -0.21046194286E+02 -0.51275680733E+02  0.82028800856E+01  0.56030571747E+02  0.00000000000E+00 0. -1.
         22    1    3    3    0    0 -0.26334358087E+01  0.72587786640E+02  0.29139875428E+02  0.78262724802E+02  0.00000000000E+00 0. -1.
</event>
<event>
 7    1  0.6255318E-006  0.1967402E+03  0.7818608E-02  0.1293650E+00
          2   -1    0    0  502    0  0.00000000000E+00  0.00000000000E+00  0.59138269016E+02  0.59138269016E+02  0.00000000000E+00 0. -1.
          1   -1    0    0  501    0 -0.00000000000E+00 -0.00000000000E+00 -0.27522548177E+04  0.27522548177E+04  0.00000000000E+00 0. -1.
         25    2    1    2    0    0 -0.28481021116E+02 -0.15665525755E+03 -0.35678710019E+03  0.41021047578E+03  0.12499424507E+03 0.  0.
          2    1    1    2  501    0  0.47312408567E+02  0.19733393916E+03 -0.23464663029E+04  0.23552246725E+04  0.00000000000E+00 0. -1.
          1    1    1    2  502    0 -0.18831387451E+02 -0.40678681603E+02  0.10136854338E+02  0.45957938445E+02  0.00000000000E+00 0. -1.
         22    1    3    3    0    0  0.65968983864E+01 -0.16586696340E+03 -0.29887132588E+03  0.34187634906E+03  0.00000000000E+00 0.  1.
         22    1    3    3    0    0 -0.35077919502E+02  0.92117058449E+01 -0.57915774309E+02  0.68334126723E+02  0.00000000000E+00 0.  1.
</event>
<event>
 7    1  0.6255318E-006  0.4139253E+02  0.7818608E-02  0.1573238E+00
          2   -1    0    0  502    0  0.00000000000E+00  0.00000000000E+00  0.13301334837E+04  0.13301334837E+04  0.00000000000E+00 0. -1.
          1   -1    0    0  501    0 -0.00000000000E+00 -0.00000000000E+00 -0.29916734429E+03  0.29916734429E+03  0.00000000000E+00 0. -1.
         25    2    1    2    0    0  0.56102274893E+02 -0.29627494195E+02  0.12909978511E+03  0.19057183797E+03  0.12500246899E+03 0.  0.
          2    1    1    2  501    0 -0.30894087549E+02  0.27245323160E+02 -0.26671311854E+03  0.26987523021E+03  0.00000000000E+00 0. -1.
          1    1    1    2  502    0 -0.25208187344E+02  0.23821710358E+01  0.11685794728E+04  0.11688537598E+04  0.00000000000E+00 0. -1.
         22    1    3    3    0    0  0.77189639363E+02 -0.39003712173E+01  0.24914080646E+02  0.81204462532E+02  0.00000000000E+00 0. -1.
         22    1    3    3    0    0 -0.21087364470E+02 -0.25727122978E+02  0.10418570446E+03  0.10936737544E+03  0.00000000000E+00 0. -1.
</event>
<event>
 7    1  0.6255318E-006  0.4003477E+02  0.7818608E-02  0.1557531E+00
          2   -1    0    0  502    0  0.00000000000E+00  0.00000000000E+00  0.34491133808E+03  0.34491133808E+03  0.00000000000E+00 0. -1.
          1   -1    0    0  501    0 -0.00000000000E+00 -0.00000000000E+00 -0.14371259131E+04  0.14371259131E+04  0.00000000000E+00 0. -1.
         25    2    1    2    0    0 -0.26561231693E+02  0.46726912170E+01 -0.10027761638E+04  0.10108969443E+04  0.12500105651E+03 0.  0.
          2    1    1    2  501    0  0.40209505801E+02  0.20800909772E+02 -0.42848217720E+03  0.43086710060E+03  0.00000000000E+00 0. -1.
          1    1    1    2  502    0 -0.13648274108E+02 -0.25473600989E+02  0.33904376596E+03  0.34027320636E+03  0.00000000000E+00 0. -1.
         22    1    3    3    0    0 -0.56668218209E+02 -0.43245593955E+02 -0.56134677189E+03  0.56585481059E+03  0.00000000000E+00 0.  1.
         22    1    3    3    0    0  0.30106986516E+02  0.47918285172E+02 -0.44142939192E+03  0.44504213367E+03  0.00000000000E+00 0.  1.
</event>
<event>
 7    1  0.6255318E-006  0.9666704E+02  0.7818608E-02  0.1320470E+00
          2   -1    0    0  502    0  0.00000000000E+00  0.00000000000E+00  0.37990783476E+02  0.37990783476E+02  0.00000000000E+00 0. -1.
          1   -1    0    0  501    0 -0.00000000000E+00 -0.00000000000E+00 -0.23289168531E+04  0.23289168531E+04  0.00000000000E+00 0. -1.
         25    2    1    2    0    0  0.54991488558E+02 -0.91160789640E+02 -0.32128954851E+03  0.36081360874E+03  0.12500053154E+03 0.  0.
          2    1    1    2  501    0  0.39881805456E+02  0.59273939159E+02 -0.18443669350E+04  0.18457500777E+04  0.00000000000E+00 0. -1.
          1    1    1    2  502    0 -0.94873294015E+02  0.31886850482E+02 -0.12526958608E+03  0.16034395015E+03  0.00000000000E+00 0. -1.
         22    1    3    3    0    0  0.16676357035E+02 -0.77301467976E+02 -0.68083463901E+02  0.10435025583E+03  0.00000000000E+00 0.  1.
         22    1    3    3    0    0  0.38315131524E+02 -0.13859321664E+02 -0.25320608461E+03  0.25646335290E+03  0.00000000000E+00 0.  1.
</event>
<event>
 7    1  0.6255318E-006  0.5738174E+02  0.7818608E-02  0.1448175E+00
          2   -1    0    0  502    0  0.00000000000E+00  0.00000000000E+00  0.24808768701E+03  0.24808768701E+03  0.00000000000E+00 0. -1.
          1   -1    0    0  501    0 -0.00000000000E+00 -0.00000000000E+00 -0.21539041129E+04  0.21539041129E+04  0.00000000000E+00 0. -1.
         25    2    1    2    0    0 -0.15235695681E+02 -0.87192379043E+00 -0.44531714561E+03  0.46277969256E+03  0.12499918799E+03 0.  0.
          2    1    1    2  501    0 -0.42245744552E+02  0.59576645384E+01 -0.16961054867E+04  0.16966419831E+04  0.00000000000E+00 0. -1.
          1    1    1    2  502    0  0.57481440233E+02 -0.50857407480E+01  0.23560620638E+03  0.24257012432E+03  0.00000000000E+00 0. -1.
         22    1    3    3    0    0 -0.19572972020E+02 -0.17606935577E+02 -0.11685815672E+02  0.28803883454E+02  0.00000000000E+00 0.  1.
         22    1    3    3    0    0  0.43372763393E+01  0.16735011786E+02 -0.43363132994E+03  0.43397580911E+03  0.00000000000E+00 0.  1.
</event>
<event>
 7    1  0.6255318E-006  0.1031970E+03  0.7818608E-02  0.1281493E+00
          2   -1    0    0  502    0  0.00000000000E+00  0.00000000000E+00  0.48275880153E+03  0.48275880153E+03  0.00000000000E+00 0. -1.
          1   -1    0    0  501    0 -0.00000000000E+00 -0.00000000000E+00 -0.94896453549E+03  0.94896453549E+03  0.00000000000E+00 0. -1.
         25    2    1    2    0    0 -0.40117435212E+02  0.11503088183E+03 -0.58016581514E+03  0.60585423029E+03  0.12500185169E+03 0.  0.
          2    1    1    2  501    0  0.92287627052E+02 -0.25724865926E+02 -0.34363010332E+03  0.35673578842E+03  0.00000000000E+00 0. -1.
          1    1    1    2  502    0 -0.52170191840E+02 -0.89306015905E+02  0.45759018449E+03  0.46913331830E+03  0.00000000000E+00 0. -1.
         22    1    3    3    0    0 -0.56333085848E+02 -0.18275654650E+01 -0.17400446630E+03  0.18290519634E+03  0.00000000000E+00 0. -1.
         22    1    3    3    0    0  0.16215650636E+02  0.11685844730E+03 -0.40616134884E+03  0.42294903395E+03  0.00000000000E+00 0. -1.
</event>
<event>
 7    1  0.6255318E-006  0.7326265E+02  0.7818608E-02  0.1485654E+00
          2   -1    0    0  502    0  0.00000000000E+00  0.00000000000E+00  0.74526932245E+03  0.74526932245E+03  0.00000000000E+00 0. -1.
          1   -1    0    0  501    0 -0.00000000000E+00 -0.00000000000E+00 -0.10724257858E+04  0.10724257858E+04  0.00000000000E+00 0. -1.
         25    2    1    2    0    0 -0.50867081781E+02 -0.19048718194E+01  0.30866846985E+03  0.33688465333E+03  0.12499582722E+03 0.  0.
          2    1    1    2  501    0  0.71317777773E+02  0.17166332387E+02 -0.10566596687E+04  0.10592027963E+04  0.00000000000E+00 0. -1.
          1    1    1    2  502    0 -0.20450695991E+02 -0.15261460568E+02  0.42083473550E+03  0.42160765855E+03  0.00000000000E+00 0. -1.
         22    1    3    3    0    0  0.17850692174E+02  0.38043152080E+02  0.45331828398E+02  0.61813455631E+02  0.00000000000E+00 0.  1.
         22    1    3    3    0    0 -0.68717773955E+02 -0.39948023899E+02  0.26333664145E+03  0.27507119769E+03  0.00000000000E+00 0.  1.
</event>
<event>
 7    1  0.6255318E-006  0.4223157E+02  0.7818608E-02  0.1523069E+00
          2   -1    0    0  502    0  0.00000000000E+00  0.00000000000E+00  0.47021665562E+03  0.47021665562E+03  0.00000000000E+00 0. -1.
          1   -1    0    0  501    0 -0.00000000000E+00 -0.00000000000E+00 -0.13146516360E+03  0.13146516360E+03  0.00000000000E+00 0. -1.
         25    2    1    2    0    0 -0.13865290822E+02  0.15692065279E+01  0.89466886004E+02  0.15435002164E+03  0.12499958716E+03 0.  0.
          2    1    1    2  501    0 -0.22032961354E+02 -0.26265722547E+02 -0.94639895659E+02  0.10065808173E+03  0.00000000000E+00 0. -1.
          1    1    1    2  502    0  0.35898252176E+02  0.24696516019E+02  0.34392450168E+03  0.34667371586E+03  0.00000000000E+00 0. -1.
         22    1    3    3    0    0 -0.35488276939E+01 -0.31839473424E+02 -0.21116853159E+02  0.38370141168E+02  0.00000000000E+00 0. -1.
         22    1    3    3    0    0 -0.10316463128E+02  0.33408679952E+02  0.11058373916E+03  0.11597988047E+03  0.00000000000E+00 0. -1.
</event>
<event>
 7    1  0.6255318E-006  0.1262683E+03  0.7818608E-02  0.1395778E+00
          2   -1    0    0  502    0  0.00000000000E+00  0.00000000000E+00  0.13918907382E+04  0.13918907382E+04  0.00000000000E+00 0. -1.
          1   -1    0    0  501    0 -0.00000000000E+00 -0.00000000000E+00 -0.82613018118E+02  0.82613018118E+02  0.00000000000E+00 0. -1.
         25    2    1    2    0    0  0.12420062158E+03  0.89168698061E+02  0.18799836744E+03  0.27265920756E+03  0.12499122446E+03 0.  0.
          2    1    1    2  501    0 -0.21333610935E+02 -0.19614580592E+02 -0.31264863528E+02  0.42630346219E+02  0.00000000000E+00 0. -1.
          1    1    1    2  502    0 -0.10286701065E+03 -0.69554117469E+02  0.11525442162E+04  0.11592142025E+04  0.00000000000E+00 0. -1.
         22    1    3    3    0    0  0.40261639817E+02  0.99533833899E+02  0.72697825440E+02  0.12966478919E+03  0.00000000000E+00 0.  1.
         22    1    3    3    0    0  0.83938981764E+02 -0.10365135838E+02  0.11530054200E+03  0.14299441837E+03  0.00000000000E+00 0.  1.
</event>
<event>
 7    1  0.6255318E-006  0.8407821E+02  0.7818608E-02  0.1371894E+00
          2   -1    0    0  502    0  0.00000000000E+00  0.00000000000E+00  0.84195444230E+03  0.84195444230E+03  0.00000000000E+00 0. -1.
          1   -1    0    0  501    0 -0.00000000000E+00 -0.00000000000E+00 -0.23481050169E+03  0.23481050169E+03  0.00000000000E+00 0. -1.
         25    2    1    2    0    0  0.21288156264E+02  0.26244227079E+02 -0.10106845329E+03  0.16426116909E+03  0.12499981747E+03 0.  0.
          2    1    1    2  501    0  0.46710325062E+02  0.24668642141E+02 -0.92917230453E+02  0.10688315156E+03  0.00000000000E+00 0. -1.
          1    1    1    2  502    0 -0.67998481326E+02 -0.50912869220E+02  0.80112962436E+03  0.80562062334E+03  0.00000000000E+00 0. -1.
         22    1    3    3    0    0  0.54182241498E+02 -0.18414251926E+02 -0.91581151241E+02  0.10799031082E+03  0.00000000000E+00 0. -1.
         22    1    3    3    0    0 -0.32894085234E+02  0.44658479005E+02 -0.94873020535E+01  0.56270858272E+02  0.00000000000E+00 0. -1.
</event>
<event>
 7    1  0.6255318E-006  0.6684067E+02  0.7818608E-02  0.1499070E+00
          2   -1    0    0  502    0  0.00000000000E+00  0.00000000000E+00  0.10845746251E+04  0.10845746251E+04  0.00000000000E+00 0. -1.
          1   -1    0    0  501    0 -0.00000000000E+00 -0.00000000000E+00 -0.45871751893E+02  0.45871751893E+02  0.00000000000E+00 0. -1.
         25    2    1    2    0    0 -0.63753120454E+02  0.38490015464E+02  0.30262713225E+03  0.33579066508E+03  0.12500499159E+03 0.  0.
          2    1    1    2  501    0  0.21822901807E+02  0.13155355521E+02 -0.22001322571E+02  0.33665421683E+02  0.00000000000E+00 0. -1.
          1    1    1    2  502    0  0.41930218647E+02 -0.51645370985E+02  0.75807706354E+03  0.76099029025E+03  0.00000000000E+00 0. -1.
         22    1    3    3    0    0  0.32189039688E+02  0.35415883021E+02  0.77986554958E+02  0.91500392351E+02  0.00000000000E+00 0. -1.
         22    1    3    3    0    0 -0.95942160142E+02  0.30741324431E+01  0.22464057729E+03  0.24429027273E+03  0.00000000000E+00 0. -1.
</event>
<event>
 7    1  0.6255318E-006  0.8760457E+02  0.7818608E-02  0.1416463E+00
          2   -1    0    0  502    0  0.00000000000E+00  0.00000000000E+00  0.25959353781E+04  0.25959353781E+04  0.00000000000E+00 0. -1.
          1   -1    0    0  501    0 -0.00000000000E+00 -0.00000000000E+00 -0.95441071244E+02  0.95441071244E+02  0.00000000000E+00 0. -1.
         25    2    1    2    0    0 -0.10045003558E+03 -0.26740684672E+02  0.13617355029E+04  0.13714056724E+04  0.12499865858E+03 0.  0.
          2    1    1    2  501    0  0.30074946963E+02 -0.18883536048E+02 -0.85635822294E+02  0.92706981553E+02  0.00000000000E+00 0. -1.
          1    1    1    2  502    0  0.70375088622E+02  0.45624220720E+02  0.12243946263E+04  0.12272637954E+04  0.00000000000E+00 0. -1.
         22    1    3    3    0    0 -0.92881316570E+01 -0.63554451908E+02  0.55075638083E+03  0.55448897985E+03  0.00000000000E+00 0.  1.
         22    1    3    3    0    0 -0.91161903928E+02  0.36813767236E+02  0.81097912204E+03  0.81691669255E+03  0.00000000000E+00 0.  1.
</event>
<event>
 7    1  0.6255318E-006  0.1509436E+03  0.7818608E-02  0.1269976E+00
          2   -1    0    0  502    0  0.00000000000E+00  0.00000000000E+00  0.42236603415E+03  0.42236603415E+03  0.00000000000E+00 0. -1.
          1   -1    0    0  501    0 -0.00000000000E+00 -0.00000000000E+00 -0.75789899905E+03  0.75789899905E+03  0.00000000000E+00 0. -1.
         25    2    1    2    0    0 -0.12207597722E+03  0.95667062511E+02  0.67189680061E+02  0.21022106350E+03  0.12499484536E+03 0.  0.
          2    1    1    2  501    0  0.62570601628E+02 -0.13819724584E+03 -0.67308185309E+03  0.68996575270E+03  0.00000000000E+00 0. -1.
          1    1    1    2  502    0  0.59505375595E+02  0.42530183329E+02  0.27035920812E+03  0.28007821700E+03  0.00000000000E+00 0. -1.
         22    1    3    3    0    0  0.23835312467E+02  0.23491899901E+02  0.25796338504E+02  0.42254497531E+02  0.00000000000E+00 0. -1.
         22    1    3    3    0    0 -0.14591128969E+03  0.72175162610E+02  0.41393341557E+02  0.16796656596E+03  0.00000000000E+00 0. -1.
</event>
<event>
 7    1  0.6255318E-006  0.8559537E+02  0.7818608E-02  0.1403285E+00
          2   -1    0    0  502    0  0.00000000000E+00  0.00000000000E+00  0.43585054424E+04  0.43585054424E+04  0.00000000000E+00 0. -1.
          1   -1    0    0  501    0 -0.00000000000E+00 -0.00000000000E+00 -0.78317476272E+02  0.78317476272E+02  0.00000000000E+00 0. -1.
         25    2    1    2    0    0 -0.15668820485E+01  0.75065807139E+02  0.22474293587E+04  0.22521548427E+04  0.12500153015E+03 0.  0.
          2    1    1    2  501    0  0.41848963965E+02 -0.74905329464E+02 -0.51465853655E+02  0.10005437651E+03  0.00000000000E+00 0. -1.
          1    1    1    2  502    0 -0.40282081916E+02 -0.16047767469E+00  0.20842244610E+04  0.20846136994E+04  0.00000000000E+00 0. -1.
         22    1    3    3    0    0  0.36925413915E+01 -0.11556714116E+02  0.22744412390E+02  0.25777912989E+02  0.00000000000E+00 0.  1.
         22    1    3    3    0    0 -0.52594234400E+01  0.86622521255E+02  0.22246849463E+04  0.22263769297E+04  0.00000000000E+00 0.  1.
</event>
<event>
 7    1  0.6255318E-006  0.4896461E+02  0.7818608E-02  0.1508217E+00
          2   -1    0    0  502    0  0.00000000000E+00  0.00000000000E+00  0.80049344835E+02  0.80049344835E+02  0.00000000000E+00 0. -1.
          1   -1    0    0  501    0 -0.00000000000E+00 -0.00000000000E+00 -0.12363343392E+04  0.12363343392E+04  0.00000000000E+00 0. -1.
         25    2    1    2    0    0 -0.34604730126E+02  0.23964351383E+02 -0.61515874501E+02  0.14553761317E+03  0.12500086619E+03 0.  0.
          2    1    1    2  501    0 -0.16799101360E+02 -0.28026243018E+02 -0.11149828439E+04  0.11154615288E+04  0.00000000000E+00 0. -1.
          1    1    1    2  502    0  0.51403831486E+02  0.40618916343E+01  0.20213724050E+02  0.55384542023E+02  0.00000000000E+00 0. -1.
         22    1    3    3    0    0 -0.56295381838E+01 -0.38034051093E+02 -0.66613203393E+02  0.76912935251E+02  0.00000000000E+00 0.  1.
         22    1    3    3    0    0 -0.28975191942E+02  0.61998402476E+02  0.50973288917E+01  0.68624677919E+02  0.00000000000E+00 0.  1.
</event>
<event>
 7    1  0.6255318E-006  0.5408935E+02  0.7818608E-02  0.1475495E+00
          2   -1    0    0  502    0  0.00000000000E+00  0.00000000000E+00  0.19577106511E+04  0.19577106511E+04  0.00000000000E+00 0. -1.
          1   -1    0    0  501    0 -0.00000000000E+00 -0.00000000000E+00 -0.17310643419E+03  0.17310643419E+03  0.00000000000E+00 0. -1.
         25    2    1    2    0    0 -0.58380406618E+02 -0.49905846644E+02  0.73017588365E+02  0.16387693936E+03  0.12500087055E+03 0.  0.
          2    1    1    2  501    0  0.37130850646E+02  0.30645433085E+00 -0.12457223116E+03  0.12998859473E+03  0.00000000000E+00 0. -1.
          1    1    1    2  502    0  0.21249555972E+02  0.49599392313E+02  0.18361588597E+04  0.18369515512E+04  0.00000000000E+00 0. -1.
         22    1    3    3    0    0  0.23572066449E+01  0.32272009885E+02 -0.81588400928E+01  0.33370731440E+02  0.00000000000E+00 0.  1.
         22    1    3    3    0    0 -0.60737613263E+02 -0.82177856530E+02  0.81176428458E+02  0.13050620792E+03  0.00000000000E+00 0.  1.
</event>
<event>
 7    1  0.6255318E-006  0.1171133E+03  0.7818608E-02  0.1415970E+00
          2   -1    0    0  502    0  0.00000000000E+00  0.00000000000E+00  0.10633490852E+04  0.10633490852E+04  0.00000000000E+00 0. -1.
          1   -1    0    0  501    0 -0.00000000000E+00 -0.00000000000E+00 -0.43309437526E+02  0.43309437526E+02  0.00000000000E+00 0. -1.
         25    2    1    2    0    0  0.62492670165E+02 -0.11428742956E+03  0.29205526119E+03  0.34335029158E+03  0.12500478695E+03 0.  0.
          2    1    1    2  501    0 -0.26180430847E+02  0.50627578417E+01  0.39266497977E+00  0.26668345695E+02  0.00000000000E+00 0. -1.
          1    1    1    2  502    0 -0.36312239318E+02  0.10922467171E+03  0.72759172151E+03  0.73663988546E+03  0.00000000000E+00 0. -1.
         22    1    3    3    0    0 -0.65036760763E+01 -0.26396240695E+02  0.19027117801E+03  0.19220348724E+03  0.00000000000E+00 0.  1.
         22    1    3    3    0    0  0.68996346241E+02 -0.87891188862E+02  0.10178408318E+03  0.15114680434E+03  0.00000000000E+00 0.  1.
</event>
<event>
 7    1  0.6255318E-006  0.8892473E+02  0.7818608E-02  0.1326113E+00
          2   -1    0    0  502    0  0.00000000000E+00  0.00000000000E+00  0.13966216870E+04  0.13966216870E+04  0.00000000000E+00 0. -1.
          1   -1    0    0  501    0 -0.00000000000E+00 -0.00000000000E+00 -0.15754019119E+03  0.15754019119E+03  0.00000000000E+00 0. -1.
         25    2    1    2    0    0  0.42943056385E+02 -0.95376180707E+00  0.10859593108E+02  0.13262089293E+03  0.12500141889E+03 0.  0.
          2    1    1    2  501    0 -0.10237277010E+03 -0.42907004261E+02 -0.63385212270E+02  0.12782362930E+03  0.00000000000E+00 0. -1.
          1    1    1    2  502    0  0.59429713711E+02  0.43860766068E+02  0.12916071150E+04  0.12937173560E+04  0.00000000000E+00 0. -1.
         22    1    3    3    0    0  0.56421376801E+02  0.50827296539E+02  0.19544592860E+02  0.78414137397E+02  0.00000000000E+00 0.  1.
         22    1    3    3    0    0 -0.13478320415E+02 -0.51781058346E+02 -0.86849997525E+01  0.54206755533E+02  0.00000000000E+00 0.  1.
</event>
<event>
 7    1  0.6255318E-006  0.1580976E+03  0.7818608E-02  0.1229272E+00
          2   -1    0    0  502    0  0.00000000000E+00  0.00000000000E+00  0.57990942831E+03  0.57990942831E+03  0.00000000000E+00 0. -1.
          1   -1    0    0  501    0 -0.00000000000E+00 -0.00000000000E+00 -0.15952721398E+04  0.15952721398E+04  0.00000000000E+00 0. -1.
         25    2    1    2    0    0 -0.11793593094E+03 -0.22709022566E+03 -0.21916316979E+03  0.35935554463E+03  0.12500023228E+03 0.  0.
          2    1    1    2  501    0  0.79527284766E+02  0.12946975927E+03 -0.12961309522E+04  0.13050066868E+04  0.00000000000E+00 0. -1.
          1    1    1    2  502    0  0.38408646173E+02  0.97620466389E+02  0.49993141043E+03  0.51081933665E+03  0.00000000000E+00 0. -1.
         22    1    3    3    0    0 -0.10314813397E+03 -0.11258049200E+03 -0.63074091122E+02  0.16520364915E+03  0.00000000000E+00 0.  1.
         22    1    3    3    0    0 -0.14787796971E+02 -0.11450973366E+03 -0.15608907867E+03  0.19415189549E+03  0.00000000000E+00 0.  1.
</event>
<event>
 7    1  0.6255318E-006  0.1512039E+03  0.7818608E-02  0.1316287E+00
          2   -1    0    0  502    0  0.00000000000E+00  0.00000000000E+00  0.66447952738E+03  0.66447952738E+03  0.00000000000E+00 0. -1.
          1   -1    0    0  501    0 -0.00000000000E+00 -0.00000000000E+00 -0.50331866891E+03  0.50331866891E+03  0.00000000000E+00 0. -1.
         25    2    1    2    0    0  0.10362929912E+03  0.16648165229E+03 -0.14330734431E+03  0.27316938966E+03  0.12501739211E+03 0.  0.
          2    1    1    2  501    0 -0.30035654880E+02 -0.36691484875E+02 -0.28380014119E+03  0.28773412339E+03  0.00000000000E+00 0. -1.
          1    1    1    2  502    0 -0.73593644245E+02 -0.12979016741E+03  0.58826834396E+03  0.60689468323E+03  0.00000000000E+00 0. -1.
         22    1    3    3    0    0  0.19364085584E+02  0.10411137775E+03 -0.12972060196E+03  0.16745620729E+03  0.00000000000E+00 0.  1.
         22    1    3    3    0    0  0.84265213541E+02  0.62370274537E+02 -0.13586742350E+02  0.10571318237E+03  0.00000000000E+00 0.  1.
</event>
<event>
 7    1  0.6255318E-006  0.2761775E+02  0.7818608E-02  0.1639336E+00
          2   -1    0    0  502    0  0.00000000000E+00  0.00000000000E+00  0.40363991183E+03  0.40363991183E+03  0.00000000000E+00 0. -1.
          1   -1    0    0  501    0 -0.00000000000E+00 -0.00000000000E+00 -0.24723169265E+03  0.24723169265E+03  0.00000000000E+00 0. -1.
         25    2    1    2    0    0  0.58312030747E+00  0.75461480893E+01 -0.16468048371E+03  0.20688993855E+03  0.12500600217E+03 0.  0.
          2    1    1    2  501    0  0.26576328615E+02 -0.12556596541E+02 -0.57399192930E+02  0.64487492651E+02  0.00000000000E+00 0. -1.
          1    1    1    2  502    0 -0.27159448922E+02  0.50104484520E+01  0.37848789583E+03  0.37949417327E+03  0.00000000000E+00 0. -1.
         22    1    3    3    0    0  0.16341450500E+02 -0.15912005491E+02 -0.17524278604E+03  0.17672087874E+03  0.00000000000E+00 0.  1.
         22    1    3    3    0    0 -0.15758330193E+02  0.23458153581E+02  0.10562302323E+02  0.30169059817E+02  0.00000000000E+00 0.  1.
</event>
<event>
 7    1  0.6255318E-006  0.7710982E+02  0.7818608E-02  0.1428764E+00
          2   -1    0    0  502    0  0.00000000000E+00  0.00000000000E+00  0.15620184727E+04  0.15620184727E+04  0.00000000000E+00 0. -1.
          1   -1    0    0  501    0 -0.00000000000E+00 -0.00000000000E+00 -0.55614501824E+03  0.55614501824E+03  0.00000000000E+00 0. -1.
         25    2    1    2    0    0  0.10178971434E+03  0.31784239586E+02  0.67203453938E+03  0.69182856836E+03  0.12499984824E+03 0.  0.
          2    1    1    2  501    0 -0.36707407815E+02  0.81379580977E+00 -0.54412319812E+03  0.54536056952E+03  0.00000000000E+00 0. -1.
          1    1    1    2  502    0 -0.65082306523E+02 -0.32598035396E+02  0.87796211320E+03  0.88097435306E+03  0.00000000000E+00 0. -1.
         22    1    3    3    0    0  0.49028900612E+02 -0.44917050005E+02  0.36437732526E+03  0.37039466740E+03  0.00000000000E+00 0. -1.
         22    1    3    3    0    0  0.52760813726E+02  0.76701289591E+02  0.30765721412E+03  0.32143390097E+03  0.00000000000E+00 0. -1.
</event>
<event>
 7    1  0.6255318E-006  0.7167238E+02  0.7818608E-02  0.1398964E+00
          2   -1    0    0  502    0  0.00000000000E+00  0.00000000000E+00  0.11641563971E+04  0.11641563971E+04  0.00000000000E+00 0. -1.
          1   -1    0    0  501    0 -0.00000000000E+00 -0.00000000000E+00 -0.10866105512E+03  0.10866105512E+03  0.00000000000E+00 0. -1.
         25    2    1    2    0    0 -0.24224708939E+02 -0.17547920381E+02  0.37476572230E+03  0.39619223150E+03  0.12499668657E+03 0.  0.
          2    1    1    2  501    0  0.29712003135E+02  0.67023940399E+02 -0.83304369825E+02  0.11097130146E+03  0.00000000000E+00 0. -1.
          1    1    1    2  502    0 -0.54872941962E+01 -0.49476020017E+02  0.76403398951E+03  0.76565391926E+03  0.00000000000E+00 0. -1.
         22    1    3    3    0    0  0.83285714346E+01  0.45547850124E+02  0.23397638376E+03  0.23851398263E+03  0.00000000000E+00 0.  1.
         22    1    3    3    0    0 -0.32553280374E+02 -0.63095770505E+02  0.14078933854E+03  0.15767824886E+03  0.00000000000E+00 0.  1.
</event>
<event>
 7    1  0.6255318E-006  0.9511248E+02  0.7818608E-02  0.1408681E+00
          2   -1    0    0  502    0  0.00000000000E+00  0.00000000000E+00  0.19791604608E+04  0.19791604608E+04  0.00000000000E+00 0. -1.
          1   -1    0    0  501    0 -0.00000000000E+00 -0.00000000000E+00 -0.31310869833E+02  0.31310869833E+02  0.00000000000E+00 0. -1.
         25    2    1    2    0    0  0.11949591639E+03 -0.31362997114E+02  0.55498227856E+03  0.58214518769E+03  0.12499911363E+03 0.  0.
          2    1    1    2  501    0 -0.84898697372E+02  0.28125679315E+02  0.96795148182E+02  0.13178825200E+03  0.00000000000E+00 0. -1.
          1    1    1    2  502    0 -0.34597219023E+02  0.32373177987E+01  0.12960721642E+04  0.12965378909E+04  0.00000000000E+00 0. -1.
         22    1    3    3    0    0  0.60507142918E+02 -0.76498512324E+02  0.25266106789E+03  0.27083343952E+03  0.00000000000E+00 0.  1.
         22    1    3    3    0    0  0.58988773476E+02  0.45135515210E+02  0.30232121067E+03  0.31131174817E+03  0.00000000000E+00 0.  1.
</event>
<event>
 7    1  0.6255318E-006  0.1124815E+03  0.7818608E-02  0.1357923E+00
          2   -1    0    0  502    0  0.00000000000E+00  0.00000000000E+00  0.89016846829E+02  0.89016846829E+02  0.00000000000E+00 0. -1.
          1   -1    0    0  501    0 -0.00000000000E+00 -0.00000000000E+00 -0.17474802206E+04  0.17474802206E+04  0.00000000000E+00 0. -1.
         25    2    1    2    0    0 -0.84522666047E+01  0.13847362374E+03 -0.92903635391E+03  0.94761781500E+03  0.12499836455E+03 0.  0.
          2    1    1    2  501    0  0.33034992969E+02 -0.29614257330E+02 -0.76914366703E+03  0.77042215410E+03  0.00000000000E+00 0. -1.
          1    1    1    2  502    0 -0.24582726364E+02 -0.10885936641E+03  0.39716647141E+02  0.11845709835E+03  0.00000000000E+00 0. -1.
         22    1    3    3    0    0  0.13913552658E+02  0.47308682759E+02 -0.84159337985E+02  0.97542260493E+02  0.00000000000E+00 0.  1.
         22    1    3    3    0    0 -0.22365819263E+02  0.91164940980E+02 -0.84487701593E+03  0.85007555451E+03  0.00000000000E+00 0.  1.
</event>
<event>
 7    1  0.6255318E-006  0.6011764E+02  0.7818608E-02  0.1408114E+00
          2   -1    0    0  502    0  0.00000000000E+00  0.00000000000E+00  0.22880419771E+04  0.22880419771E+04  0.00000000000E+00 0. -1.
          1   -1    0    0  501    0 -0.00000000000E+00 -0.00000000000E+00 -0.80050504924E+03  0.80050504924E+03  0.00000000000E+00 0. -1.
         25    2    1    2    0    0  0.49583660981E+02 -0.70178913800E+02  0.31412712165E+03  0.34883266507E+03  0.12499904115E+03 0.  0.
          2    1    1    2  501    0 -0.58033972087E+02  0.15609170363E+02 -0.78160895229E+03  0.78391590264E+03  0.00000000000E+00 0. -1.
          1    1    1    2  502    0  0.84503111066E+01  0.54569743437E+02  0.19550187585E+04  0.19557984586E+04  0.00000000000E+00 0. -1.
         22    1    3    3    0    0 -0.35706711506E+02 -0.28465462865E+02  0.47885835312E+02  0.66168761861E+02  0.00000000000E+00 0.  1.
         22    1    3    3    0    0  0.85290372487E+02 -0.41713450935E+02  0.26624128634E+03  0.28266390321E+03  0.00000000000E+00 0.  1.
</event>
<event>
 7    1  0.6255318E-006  0.9608216E+02  0.7818608E-02  0.1412396E+00
          2   -1    0    0  502    0  0.00000000000E+00  0.00000000000E+00  0.26233809916E+04  0.26233809916E+04  0.00000000000E+00 0. -1.
          1   -1    0    0  501    0 -0.00000000000E+00 -0.00000000000E+00 -0.11071834167E+02  0.11071834167E+02  0.00000000000E+00 0. -1.
         25    2    1    2    0    0 -0.62992103277E+02 -0.27103241845E+02  0.20645283911E+04  0.20694450097E+04  0.12499031830E+03 0.  0.
          2    1    1    2  501    0  0.87823303732E+02  0.49464262397E+02  0.34244695497E+03  0.35697277614E+03  0.00000000000E+00 0. -1.
          1    1    1    2  502    0 -0.24831200455E+02 -0.22361020552E+02  0.20533381138E+03  0.20803503996E+03  0.00000000000E+00 0. -1.
         22    1    3    3    0    0 -0.94543956554E+01 -0.45006151445E+02  0.16955166247E+04  0.16961401958E+04  0.00000000000E+00 0. -1.
         22    1    3    3    0    0 -0.53537707621E+02  0.17902909600E+02  0.36901176637E+03  0.37330481383E+03  0.00000000000E+00 0. -1.
</event>
<event>
 7    1  0.6255318E-006  0.3383738E+02  0.7818608E-02  0.1565046E+00
          2   -1    0    0  502    0  0.00000000000E+00  0.00000000000E+00  0.15332817668E+04  0.15332817668E+04  0.00000000000E+00 0. -1.
          1   -1    0    0  501    0 -0.00000000000E+00 -0.00000000000E+00 -0.16058031991E+03  0.16058031991E+03  0.00000000000E+00 0. -1.
         25    2    1    2    0    0  0.21982085777E+02 -0.89806439378E+01  0.83373019561E+03  0.84338302893E+03  0.12500012136E+03 0.  0.
          2    1    1    2  501    0  0.55752055432E+01  0.32124331105E+02 -0.15357528849E+03  0.15699816814E+03  0.00000000000E+00 0. -1.
          1    1    1    2  502    0 -0.27557291321E+02 -0.23143687167E+02  0.69254653976E+03  0.69348088964E+03  0.00000000000E+00 0. -1.
         22    1    3    3    0    0  0.32694804451E+02  0.54108759606E+02  0.40621151801E+03  0.41110157561E+03  0.00000000000E+00 0.  1.
         22    1    3    3    0    0 -0.10712718673E+02 -0.63089403544E+02  0.42751867760E+03  0.43228145332E+03  0.00000000000E+00 0.  1.
</event>
<event>
 7    1  0.6255318E-006  0.1285931E+03  0.7818608E-02  0.1318071E+00
          2   -1    0    0  502    0  0.00000000000E+00  0.00000000000E+00  0.10135020890E+04  0.10135020890E+04  0.00000000000E+00 0. -1.
          1   -1    0    0  501    0 -0.00000000000E+00 -0.00000000000E+00 -0.39207350307E+03  0.39207350307E+03  0.00000000000E+00 0. -1.
         25    2    1    2    0    0 -0.99539205832E+02  0.96895729648E+02  0.34851979873E+03  0.39545919079E+03  0.12500034222E+03 0.  0.
          2    1    1    2  501    0 -0.20146157891E+02 -0.51037428181E+02 -0.36010294788E+03  0.36425927555E+03  0.00000000000E+00 0. -1.
          1    1    1    2  502    0  0.11968536372E+03 -0.45858301467E+02  0.63301173513E+03  0.64585712578E+03  0.00000000000E+00 0. -1.
         22    1    3    3    0    0 -0.28073420980E+02  0.75523586578E+01  0.45705501882E+00  0.29075143785E+02  0.00000000000E+00 0. -1.
         22    1    3    3    0    0 -0.71465784852E+02  0.89343370990E+02  0.34806274371E+03  0.36638404701E+03  0.00000000000E+00 0. -1.
</event>
<event>
 7    1  0.6255318E-006  0.5949781E+02  0.7818608E-02  0.1438955E+00
          2   -1    0    0  502    0  0.00000000000E+00  0.00000000000E+00  0.56290488546E+03  0.56290488546E+03  0.00000000000E+00 0. -1.
          1   -1    0    0  501    0 -0.00000000000E+00 -0.00000000000E+00 -0.40067243018E+03  0.40067243018E+03  0.00000000000E+00 0. -1.
         25    2    1    2    0    0 -0.68392277745E+02 -0.76033546588E+02  0.46189122743E+03  0.48931278627E+03  0.12499957189E+03 0.  0.
          2    1    1    2  501    0  0.44852920155E+02  0.38781889549E+02 -0.37894488532E+03  0.38355579192E+03  0.00000000000E+00 0. -1.
          1    1    1    2  502    0  0.23539357590E+02  0.37251657039E+02  0.79286113171E+02  0.90708737449E+02  0.00000000000E+00 0. -1.
         22    1    3    3    0    0  0.24603907716E+02 -0.23234962958E+02  0.32915450306E+02  0.47208501855E+02  0.00000000000E+00 0.  1.
         22    1    3    3    0    0 -0.92996185461E+02 -0.52798583630E+02  0.42897577712E+03  0.44210428442E+03  0.00000000000E+00 0.  1.
</event>
<event>
 7    1  0.6255318E-006  0.3685823E+02  0.7818608E-02  0.1601814E+00
          2   -1    0    0  502    0  0.00000000000E+00  0.00000000000E+00  0.41125450806E+03  0.41125450806E+03  0.00000000000E+00 0. -1.
          1   -1    0    0  501    0 -0.00000000000E+00 -0.00000000000E+00 -0.24060540145E+03  0.24060540145E+03  0.00000000000E+00 0. -1.
         25    2    1    2    0    0  0.27968990655E-02 -0.48893535818E+02  0.16832113351E+01  0.13424199433E+03  0.12501000756E+03 0.  0.
          2    1    1    2  501    0 -0.17301445249E+02  0.16454591186E+02 -0.17251718402E+03  0.17416162712E+03  0.00000000000E+00 0. -1.
          1    1    1    2  502    0  0.17298648350E+02  0.32438944632E+02  0.34148307929E+03  0.34345628806E+03  0.00000000000E+00 0. -1.
         22    1    3    3    0    0  0.33834955634E+02 -0.80688598853E+02  0.54262445929E+01  0.87663551936E+02  0.00000000000E+00 0.  1.
         22    1    3    3    0    0 -0.33832158735E+02  0.31795063035E+02 -0.37430332578E+01  0.46578442396E+02  0.00000000000E+00 0.  1.
</event>
<event>
 7    1  0.6255318E-006  0.2777696E+03  0.7818608E-02  0.1243407E+00
          2   -1    0    0  502    0  0.00000000000E+00  0.00000000000E+00  0.39654533117E+03  0.39654533117E+03  0.00000000000E+00 0. -1.
          1   -1    0    0  501    0 -0.00000000000E+00 -0.00000000000E+00 -0.86849694478E+03  0.86849694478E+03  0.00000000000E+00 0. -1.
         25    2    1    2    0    0  0.19426759586E+03  0.21241995532E+03 -0.34869254982E+03  0.46911962951E+03  0.12499838509E+03 0.  0.
          2    1    1    2  501    0 -0.46782536345E+02  0.21957700605E+02 -0.40064774189E+03  0.40396702762E+03  0.00000000000E+00 0. -1.
          1    1    1    2  502    0 -0.14748505952E+03 -0.23437765592E+03  0.27738867811E+03  0.39195561882E+03  0.00000000000E+00 0. -1.
         22    1    3    3    0    0  0.80710318736E+02  0.15607081651E+03 -0.13879826249E+03  0.22391340511E+03  0.00000000000E+00 0. -1.
         22    1    3    3    0    0  0.11355727713E+03  0.56349138809E+02 -0.20989428733E+03  0.24520622441E+03  0.00000000000E+00 0. -1.
</event>
<event>
 7    1  0.6255318E-006  0.1899587E+03  0.7818608E-02  0.1207681E+00
          2   -1    0    0  502    0  0.00000000000E+00  0.00000000000E+00  0.27463796711E+04  0.27463796711E+04  0.00000000000E+00 0. -1.
          1   -1    0    0  501    0 -0.00000000000E+00 -0.00000000000E+00 -0.30887753664E+02  0.30887753664E+02  0.00000000000E+00 0. -1.
         25    2    1    2    0    0  0.88923470030E+02  0.23715781106E+03  0.10162305662E+04  0.10547515622E+04  0.12500033379E+03 0.  0.
          2    1    1    2  501    0 -0.81613215624E+02 -0.12781396640E+03  0.64563034311E+03  0.66320107578E+03  0.00000000000E+00 0. -1.
          1    1    1    2  502    0 -0.73102544053E+01 -0.10934384465E+03  0.10536310082E+04  0.10593147868E+04  0.00000000000E+00 0. -1.
         22    1    3    3    0    0  0.42422364803E+02  0.21847673571E+03  0.69866048825E+03  0.73325181140E+03  0.00000000000E+00 0.  1.
         22    1    3    3    0    0  0.46501105226E+02  0.18681075342E+02  0.31757007794E+03  0.32149975081E+03  0.00000000000E+00 0.  1.
</event>
<event>
 7    1  0.6255318E-006  0.8765099E+02  0.7818608E-02  0.1459186E+00
          2   -1    0    0  502    0  0.00000000000E+00  0.00000000000E+00  0.86289899564E+03  0.86289899564E+03  0.00000000000E+00 0. -1.
          1   -1    0    0  501    0 -0.00000000000E+00 -0.00000000000E+00 -0.11263339727E+04  0.11263339727E+04  0.00000000000E+00 0. -1.
         25    2    1    2    0    0 -0.34242032569E+02  0.55930865818E+02 -0.50768909329E+03  0.52694743953E+03  0.12499844013E+03 0.  0.
          2    1    1    2  501    0  0.20091923812E+01  0.25686400072E+02 -0.60648534374E+03  0.60703237161E+03  0.00000000000E+00 0. -1.
          1    1    1    2  502    0  0.32232840188E+02 -0.81617265890E+02  0.85073945999E+03  0.85525315718E+03  0.00000000000E+00 0. -1.
         22    1    3    3    0    0 -0.72415048262E+02  0.59874925139E+02 -0.26330112455E+03  0.27956471177E+03  0.00000000000E+00 0. -1.
         22    1    3    3    0    0  0.38173015692E+02 -0.39440593215E+01 -0.24438796874E+03  0.24738272776E+03  0.00000000000E+00 0. -1.
</event>
<event>
 7    1  0.6255318E-006  0.3604465E+02  0.7818608E-02  0.1543993E+00
          2   -1    0    0  502    0  0.00000000000E+00  0.00000000000E+00  0.15293615376E+04  0.15293615376E+04  0.00000000000E+00 0. -1.
          1   -1    0    0  501    0 -0.00000000000E+00 -0.00000000000E+00 -0.13368664360E+04  0.13368664360E+04  0.00000000000E+00 0. -1.
         25    2    1    2    0    0 -0.63169355317E+02 -0.11396108049E+02  0.72574162760E+02  0.15814633805E+03  0.12499206538E+03 0.  0.
          2    1    1    2  501    0  0.33767827907E+02 -0.92490641138E+01 -0.12936152619E+04  0.12940889680E+04  0.00000000000E+00 0. -1.
          1    1    1    2  502    0  0.29401527410E+02  0.20645172163E+02  0.14135362008E+04  0.14139926675E+04  0.00000000000E+00 0. -1.
         22    1    3    3    0    0 -0.53467788252E+02 -0.63163537135E+02  0.23181174852E+02  0.85940698575E+02  0.00000000000E+00 0. -1.
         22    1    3    3    0    0 -0.97015670645E+01  0.51767429086E+02  0.49392987908E+02  0.72205639476E+02  0.00000000000E+00 0. -1.
</event>
<event>
 7    1  0.6255318E-006  0.1364426E+03  0.7818608E-02  0.1358464E+00
          2   -1    0    0  502    0  0.00000000000E+00  0.00000000000E+00  0.18213569750E+04  0.18213569750E+04  0.00000000000E+00 0. -1.
          1   -1    0    0  501    0 -0.00000000000E+00 -0.00000000000E+00 -0.17373092131E+03  0.17373092131E+03  0.00000000000E+00 0. -1.
         25    2    1    2    0    0 -0.35222178617E+02  0.16232463953E+03  0.52904485640E+03  0.56842074013E+03  0.12499514895E+03 0.  0.
          2    1    1    2  501    0  0.16976625281E+02 -0.32207713660E+02 -0.14844605782E+03  0.15284559106E+03  0.00000000000E+00 0. -1.
          1    1    1    2  502    0  0.18245553336E+02 -0.13011692587E+03  0.12670272551E+04  0.12738215652E+04  0.00000000000E+00 0. -1.
         22    1    3    3    0    0  0.36005479505E+02  0.66001389663E+01  0.89397116070E+02  0.96601246112E+02  0.00000000000E+00 0.  1.
         22    1    3    3    0    0 -0.71227658122E+02  0.15572450056E+03  0.43964774033E+03  0.47181949402E+03  0.00000000000E+00 0.  1.
</event>
<event>
 7    1  0.6255318E-006  0.1368107E+03  0.7818608E-02  0.1278770E+00
          2   -1    0    0  502    0  0.00000000000E+00  0.00000000000E+00  0.56454533641E+03  0.56454533641E+03  0.00000000000E+00 0. -1.
          1   -1    0    0  501    0 -0.00000000000E+00 -0.00000000000E+00 -0.41295709713E+03  0.41295709713E+03  0.00000000000E+00 0. -1.
         25    2    1    2    0    0 -0.46336263136E+02 -0.18443219743E+03 -0.18712997203E+02  0.22833555798E+03  0.12499866416E+03 0.  0.
          2    1    1    2  501    0  0.53442219435E+02  0.51421552682E+02 -0.27476383012E+03  0.28459692416E+03  0.00000000000E+00 0. -1.
          1    1    1    2  502    0 -0.71059562989E+01  0.13301064475E+03  0.44506506660E+03  0.46456995140E+03  0.00000000000E+00 0. -1.
         22    1    3    3    0    0 -0.41094694675E+02 -0.31972149034E+02 -0.50471620374E+02  0.72514665465E+02  0.00000000000E+00 0.  1.
         22    1    3    3    0    0 -0.52415684610E+01 -0.15246004840E+03  0.31758623171E+02  0.15582089251E+03  0.00000000000E+00 0.  1.
</event>
<event>
 7    1  0.6255318E-006  0.7188225E+02  0.7818608E-02  0.1371833E+00
          2   -1    0    0  502    0  0.00000000000E+00  0.00000000000E+00  0.93368321811E+02  0.93368321811E+02  0.00000000000E+00 0. -1.
          1   -1    0    0  501    0 -0.00000000000E+00 -0.00000000000E+00 -0.10771174992E+04  0.10771174992E+04  0.00000000000E+00 0. -1.
         25    2    1    2    0    0 -0.10530487493E+03 -0.86465807187E+01 -0.18317377358E+03  0.24564500770E+03  0.12499983375E+03 0.  0.
          2    1    1    2  501    0  0.50649156313E+02 -0.35441276005E+02 -0.84136477811E+03  0.84363268721E+03  0.00000000000E+00 0. -1.
          1    1    1    2  502    0  0.54655718621E+02  0.44087856724E+02  0.40789374305E+02  0.81208126100E+02  0.00000000000E+00 0. -1.
         22    1    3    3    0    0  0.10149530417E+02  0.16156091254E+02  0.82022520654E+01  0.20767984766E+02  0.00000000000E+00 0. -1.
         22    1    3    3    0    0 -0.11545440535E+03 -0.24802671973E+02 -0.19137602564E+03  0.22487702293E+03  0.00000000000E+00 0. -1.
</event>
<event>
 7    1  0.6255318E-006  0.5098970E+02  0.7818608E-02  0.1567001E+00
          2   -1    0    0  502    0  0.00000000000E+00  0.00000000000E+00  0.16555130051E+03  0.16555130051E+03  0.00000000000E+00 0. -1.
          1   -1    0    0  501    0 -0.00000000000E+00 -0.00000000000E+00 -0.14088453047E+03  0.14088453047E+03  0.00000000000E+00 0. -1.
         25    2    1    2    0    0 -0.51696987082E+02  0.12204066111E+02  0.37340220869E+02  0.14086062384E+03  0.12500362215E+03 0.  0.
          2    1    1    2  501    0  0.10657348855E+02  0.18525585210E+02 -0.78945022386E+02  0.81786875179E+02  0.00000000000E+00 0. -1.
          1    1    1    2  502    0  0.41039638227E+02 -0.30729651322E+02  0.66271571555E+02  0.83788331960E+02  0.00000000000E+00 0. -1.
         22    1    3    3    0    0  0.28540394433E+02 -0.33075863991E+02  0.12378723015E+02  0.45407044350E+02  0.00000000000E+00 0.  1.
         22    1    3    3    0    0 -0.80237381515E+02  0.45279930102E+02  0.24961497854E+02  0.95453579491E+02  0.00000000000E+00 0.  1.
</event>
<event>
 7    1  0.6255318E-006  0.8813878E+02  0.7818608E-02  0.1328611E+00
          2   -1    0    0  502    0  0.00000000000E+00  0.00000000000E+00  0.60534983210E+03  0.60534983210E+03  0.00000000000E+00 0. -1.
          1   -1    0    0  501    0 -0.00000000000E+00 -0.00000000000E+00 -0.36682326586E+03  0.36682326586E+03  0.00000000000E+00 0. -1.
         25    2    1    2    0    0  0.29474291545E+02  0.48988623970E+02 -0.14401776417E+03  0.19908634565E+03  0.12500254992E+03 0.  0.
          2    1    1    2  501    0  0.59510822529E+02 -0.42097350934E+02 -0.18485611435E+03  0.19870960713E+03  0.00000000000E+00 0. -1.
          1    1    1    2  502    0 -0.88985114074E+02 -0.68912730359E+01  0.56740044477E+03  0.57437714517E+03  0.00000000000E+00 0. -1.
         22    1    3    3    0    0  0.45138665680E+02  0.77637598346E+02 -0.13980468988E+03  0.16616391644E+03  0.00000000000E+00 0.  1.
         22    1    3    3    0    0 -0.15664374135E+02 -0.28648974376E+02 -0.42130742939E+01  0.32922429206E+02  0.00000000000E+00 0.  1.
</event>
<event>
 7    1  0.6255318E-006  0.1351443E+03  0.7818608E-02  0.1390337E+00
          2   -1    0    0  502    0  0.00000000000E+00  0.00000000000E+00  0.38309216155E+03  0.38309216155E+03  0.00000000000E+00 0. -1.
          1   -1    0    0  501    0 -0.00000000000E+00 -0.00000000000E+00 -0.17052518731E+04  0.17052518731E+04  0.00000000000E+00 0. -1.
         25    2    1    2    0    0 -0.13178716479E+03 -0.55788017031E+02  0.10180861836E+03  0.21556950392E+03  0.12500022639E+03 0.  0.
          2    1    1    2  501    0  0.21403404291E+02 -0.18485945631E+02 -0.16285175468E+04  0.16287631001E+04  0.00000000000E+00 0. -1.
          1    1    1    2  502    0  0.11038376050E+03  0.74273962661E+02  0.20454921695E+03  0.24401143060E+03  0.00000000000E+00 0. -1.
         22    1    3    3    0    0  0.60036300336E+01 -0.40796567177E+02  0.56096735384E+02  0.69622174540E+02  0.00000000000E+00 0. -1.
         22    1    3    3    0    0 -0.13779079482E+03 -0.14991449854E+02  0.45711882980E+02  0.14594732937E+03  0.00000000000E+00 0. -1.
</event>
<event>
 7    1  0.6255318E-006  0.3612053E+02  0.7818608E-02  0.1568937E+00
          2   -1    0    0  502    0  0.00000000000E+00  0.00000000000E+00  0.10824944861E+03  0.10824944861E+03  0.00000000000E+00 0. -1.
          1   -1    0    0  501    0 -0.00000000000E+00 -0.00000000000E+00 -0.30662395072E+03  0.30662395072E+03  0.00000000000E+00 0. -1.
         25    2    1    2    0    0 -0.43542814018E+01  0.67051807790E+01 -0.82948447794E+02  0.15023076075E+03  0.12499966907E+03 0.  0.
          2    1    1    2  501    0  0.16229701360E+02 -0.34043613410E+02 -0.18507777316E+03  0.18888131971E+03  0.00000000000E+00 0. -1.
          1    1    1    2  502    0 -0.11875419958E+02  0.27338432631E+02  0.69651718848E+02  0.75761318866E+02  0.00000000000E+00 0. -1.
         22    1    3    3    0    0  0.18156839305E+02  0.43333917324E+02  0.98062501978E+01  0.47996476404E+02  0.00000000000E+00 0.  1.
         22    1    3    3    0    0 -0.22511120707E+02 -0.36628736545E+02 -0.92754697992E+02  0.10223428435E+03  0.00000000000E+00 0.  1.
</event>
<event>
 7    1  0.6255318E-006  0.8341605E+02  0.7818608E-02  0.1372641E+00
          2   -1    0    0  502    0  0.00000000000E+00  0.00000000000E+00  0.35140918599E+03  0.35140918599E+03  0.00000000000E+00 0. -1.
          1   -1    0    0  501    0 -0.00000000000E+00 -0.00000000000E+00 -0.87661454813E+03  0.87661454813E+03  0.00000000000E+00 0. -1.
         25    2    1    2    0    0  0.46336219767E+02  0.61649623921E+02 -0.78658071350E+02  0.16661516888E+03  0.12500320364E+03 0.  0.
          2    1    1    2  501    0 -0.81627053658E+02 -0.22219875345E+02 -0.74930287933E+03  0.75406332872E+03  0.00000000000E+00 0. -1.
          1    1    1    2  502    0  0.35290833891E+02 -0.39429748576E+02  0.30275558853E+03  0.30734523653E+03  0.00000000000E+00 0. -1.
         22    1    3    3    0    0 -0.31962476627E+02  0.55807123202E+02 -0.54969735356E+02  0.84603231129E+02  0.00000000000E+00 0.  1.
         22    1    3    3    0    0  0.78298696394E+02  0.58425007185E+01 -0.23688335994E+02  0.82011937752E+02  0.00000000000E+00 0.  1.
</event>
<event>
 7    1  0.6255318E-006  0.1307021E+03  0.7818608E-02  0.1302231E+00
          2   -1    0    0  502    0  0.00000000000E+00  0.00000000000E+00  0.85473918263E+03  0.85473918263E+03  0.00000000000E+00 0. -1.
          1   -1    0    0  501    0 -0.00000000000E+00 -0.00000000000E+00 -0.51375343553E+02  0.51375343553E+02  0.00000000000E+00 0. -1.
         25    2    1    2    0    0  0.31020049783E+02 -0.12416465095E+03  0.19976525742E+03  0.26816190124E+03  0.12500217266E+03 0.  0.
          2    1    1    2  501    0 -0.61968143388E+02 -0.66795307379E+01  0.11065041948E+03  0.12699678050E+03  0.00000000000E+00 0. -1.
          1    1    1    2  502    0  0.30948093605E+02  0.13084418169E+03  0.49294816218E+03  0.51095584445E+03  0.00000000000E+00 0. -1.
         22    1    3    3    0    0  0.69716582853E+02 -0.89357109601E+02  0.17954537546E+03  0.21232436697E+03  0.00000000000E+00 0. -1.
         22    1    3    3    0    0 -0.38696533070E+02 -0.34807541353E+02  0.20219881965E+02  0.55837534270E+02  0.00000000000E+00 0. -1.
</event>
<event>
 7    1  0.6255318E-006  0.7202010E+02  0.7818608E-02  0.1397643E+00
          2   -1    0    0  502    0  0.00000000000E+00  0.00000000000E+00  0.55650157928E+03  0.55650157928E+03  0.00000000000E+00 0. -1.
          1   -1    0    0  501    0 -0.00000000000E+00 -0.00000000000E+00 -0.19903499485E+03  0.19903499485E+03  0.00000000000E+00 0. -1.
         25    2    1    2    0    0 -0.12986604302E+02  0.41014572585E+02  0.69152735673E+02  0.14919095392E+03  0.12499997130E+03 0.  0.
          2    1    1    2  501    0 -0.27994360358E+02 -0.69766305186E+02 -0.14862170962E+03  0.16655159597E+03  0.00000000000E+00 0. -1.
          1    1    1    2  502    0  0.40980964660E+02  0.28751732601E+02  0.43693555837E+03  0.43979402424E+03  0.00000000000E+00 0. -1.
         22    1    3    3    0    0 -0.42236721374E+02  0.59355530623E+02  0.10727600524E+01  0.72857192247E+02  0.00000000000E+00 0. -1.
         22    1    3    3    0    0  0.29250117072E+02 -0.18340958038E+02  0.68079975621E+02  0.76333761672E+02  0.00000000000E+00 0. -1.
</event>
<event>
 7    1  0.6255318E-006  0.6757248E+02  0.7818608E-02  0.1504678E+00
          2   -1    0    0  502    0  0.00000000000E+00  0.00000000000E+00  0.11670897474E+04  0.11670897474E+04  0.00000000000E+00 0. -1.
          1   -1    0    0  501    0 -0.00000000000E+00 -0.00000000000E+00 -0.13377652124E+02  0.13377652124E+02  0.00000000000E+00 0. -1.
         25    2    1    2    0    0  0.46576421552E+02 -0.18780691816E+02  0.62154716004E+03  0.63597678150E+03  0.12499406795E+03 0.  0.
          2    1    1    2  501    0 -0.70113878358E+02  0.24637086955E+02  0.23813277070E+03  0.24945973317E+03  0.00000000000E+00 0. -1.
          1    1    1    2  502    0  0.23537456806E+02 -0.58563951398E+01  0.29403216457E+03  0.29503088489E+03  0.00000000000E+00 0. -1.
         22    1    3    3    0    0 -0.69891143058E+01 -0.47512233481E+01 -0.30089786276E+01  0.89708301993E+01  0.00000000000E+00 0. -1.
         22    1    3    3    0    0  0.53565535858E+02 -0.14029468468E+02  0.62455613867E+03  0.62700595130E+03  0.00000000000E+00 0. -1.
</event>
<event>
 7    1  0.6255318E-006  0.7839715E+02  0.7818608E-02  0.1336600E+00
          2   -1    0    0  502    0  0.00000000000E+00  0.00000000000E+00  0.11413322776E+04  0.11413322776E+04  0.00000000000E+00 0. -1.
          1   -1    0    0  501    0 -0.00000000000E+00 -0.00000000000E+00 -0.66216915853E+03  0.66216915853E+03  0.00000000000E+00 0. -1.
         25    2    1    2    0    0  0.72291566082E+02 -0.54602695450E+02 -0.22433629911E+02  0.15599960595E+03  0.12500033771E+03 0.  0.
          2    1    1    2  501    0 -0.72488048430E+02 -0.24174465869E+02 -0.56895108172E+03  0.57405945280E+03  0.00000000000E+00 0. -1.
          1    1    1    2  502    0  0.19648234782E+00  0.78777161319E+02  0.10705478307E+04  0.10734423774E+04  0.00000000000E+00 0. -1.
         22    1    3    3    0    0 -0.70250391747E+01 -0.21534980918E+02  0.42588900651E+02  0.48238169919E+02  0.00000000000E+00 0. -1.
         22    1    3    3    0    0  0.79316605257E+02 -0.33067714532E+02 -0.65022530562E+02  0.10776143603E+03  0.00000000000E+00 0. -1.
</event>
<event>
 7    1  0.6255318E-006  0.7867834E+02  0.7818608E-02  0.1494300E+00
          2   -1    0    0  502    0  0.00000000000E+00  0.00000000000E+00  0.76433293794E+03  0.76433293794E+03  0.00000000000E+00 0. -1.
          1   -1    0    0  501    0 -0.00000000000E+00 -0.00000000000E+00 -0.62829604096E+02  0.62829604096E+02  0.00000000000E+00 0. -1.
         25    2    1    2    0    0 -0.62760424943E+02 -0.30680015131E+02  0.13478131610E+03  0.19665214188E+03  0.12500370982E+03 0.  0.
          2    1    1    2  501    0  0.31598183638E+01 -0.22147891889E+02 -0.24944678012E+02  0.33507469739E+02  0.00000000000E+00 0. -1.
          1    1    1    2  502    0  0.59600606579E+02  0.52827907020E+02  0.59166669575E+03  0.59700293042E+03  0.00000000000E+00 0. -1.
         22    1    3    3    0    0 -0.96588595211E+02 -0.11511436002E+02  0.12133258248E+03  0.15551033874E+03  0.00000000000E+00 0. -1.
         22    1    3    3    0    0  0.33828170269E+02 -0.19168579128E+02  0.13448733623E+02  0.41141803140E+02  0.00000000000E+00 0. -1.
</event>
<event>
 7    1  0.6255318E-006  0.3613796E+03  0.7818608E-02  0.1138015E+00
          2   -1    0    0  502    0  0.00000000000E+00  0.00000000000E+00  0.37915190001E+04  0.37915190001E+04  0.00000000000E+00 0. -1.
          1   -1    0    0  501    0 -0.00000000000E+00 -0.00000000000E+00 -0.61504551791E+03  0.61504551791E+03  0.00000000000E+00 0. -1.
         25    2    1    2    0    0  0.23242061312E+03 -0.71281619379E+02  0.19450352966E+04  0.19641506195E+04  0.12499976206E+03 0.  0.
          2    1    1    2  501    0 -0.33242571265E+03  0.15016881438E+03 -0.54806597791E+03  0.65835692704E+03  0.00000000000E+00 0. -1.
          1    1    1    2  502    0  0.10000509953E+03 -0.78887195003E+02  0.17795041635E+04  0.17840569715E+04  0.00000000000E+00 0. -1.
         22    1    3    3    0    0  0.43223211663E+02 -0.39847628576E+02  0.88167278006E+03  0.88363056229E+03  0.00000000000E+00 0.  1.
         22    1    3    3    0    0  0.18919740145E+03 -0.31433990803E+02  0.10633625165E+04  0.10805200572E+04  0.00000000000E+00 0.  1.
</event>
<event>
 7    1  0.6255318E-006  0.7014787E+02  0.7818608E-02  0.1360785E+00
          2   -1    0    0  502    0  0.00000000000E+00  0.00000000000E+00  0.12215604174E+04  0.12215604174E+04  0.00000000000E+00 0. -1.
          1   -1    0    0  501    0 -0.00000000000E+00 -0.00000000000E+00 -0.15198539573E+04  0.15198539573E+04  0.00000000000E+00 0. -1.
         25    2    1    2    0    0 -0.16897652120E+02 -0.12507820305E+02  0.14957052155E+03  0.19605529383E+03  0.12499744441E+03 0.  0.
          2    1    1    2  501    0 -0.40850334764E+02  0.57026084367E+02 -0.14945205074E+04  0.14961658568E+04  0.00000000000E+00 0. -1.
          1    1    1    2  502    0  0.57747986884E+02 -0.44518264062E+02  0.10466564459E+04  0.10491932241E+04  0.00000000000E+00 0. -1.
         22    1    3    3    0    0 -0.11151800460E+02 -0.62879704018E+02  0.40079577581E+02  0.75396235781E+02  0.00000000000E+00 0.  1.
         22    1    3    3    0    0 -0.57458516602E+01  0.50371883713E+02  0.10949094396E+03  0.12065905805E+03  0.00000000000E+00 0.  1.
</event>
<event>
 7    1  0.6255318E-006  0.2441844E+03  0.7818608E-02  0.1210138E+00
          2   -1    0    0  502    0  0.00000000000E+00  0.00000000000E+00  0.16137363710E+04  0.16137363710E+04  0.00000000000E+00 0. -1.
          1   -1    0    0  501    0 -0.00000000000E+00 -0.00000000000E+00 -0.10711192607E+04  0.10711192607E+04  0.00000000000E+00 0. -1.
         25    2    1    2    0    0  0.14230360805E+03 -0.12754707059E+03  0.22540863739E+02  0.22945959449E+03  0.12500017153E+03 0.  0.
          2    1    1    2  501    0 -0.13828624011E+03  0.21049078087E+03 -0.95008100178E+03  0.98289539778E+03  0.00000000000E+00 0. -1.
          1    1    1    2  502    0 -0.40173679403E+01 -0.82943710278E+02  0.14701572483E+04  0.14725006394E+04  0.00000000000E+00 0. -1.
         22    1    3    3    0    0 -0.15628215588E+02 -0.21397711857E+02 -0.21520305832E+02  0.34135417945E+02  0.00000000000E+00 0. -1.
         22    1    3    3    0    0  0.15793182364E+03 -0.10614935873E+03  0.44061169570E+02  0.19532417654E+03  0.00000000000E+00 0. -1.
</event>
<event>
 7    1  0.6255318E-006  0.1135190E+03  0.7818608E-02  0.1292730E+00
          2   -1    0    0  502    0  0.00000000000E+00  0.00000000000E+00  0.56969316607E+03  0.56969316607E+03  0.00000000000E+00 0. -1.
          1   -1    0    0  501    0 -0.00000000000E+00 -0.00000000000E+00 -0.10507107109E+04  0.10507107109E+04  0.00000000000E+00 0. -1.
         25    2    1    2    0    0  0.48057788537E+02  0.36866640751E+02 -0.14169945839E+03  0.19843169965E+03  0.12501081025E+03 0.  0.
          2    1    1    2  501    0 -0.12228226975E+03 -0.11756053340E+02 -0.87348882906E+03  0.88208496914E+03  0.00000000000E+00 0. -1.
          1    1    1    2  502    0  0.74224481211E+02 -0.25110587411E+02  0.53417074266E+03  0.53988720815E+03  0.00000000000E+00 0. -1.
         22    1    3    3    0    0  0.84958180049E+02  0.24752820178E+02 -0.13110567029E+03  0.15817487552E+03  0.00000000000E+00 0. -1.
         22    1    3    3    0    0 -0.36900391512E+02  0.12113820573E+02 -0.10593788101E+02  0.40256824129E+02  0.00000000000E+00 0. -1.
</event>
<event>
 7    1  0.6573582E-006  0.1134979E+03  0.7818608E-02  0.1412249E+00
          2   -1    0    0  502    0  0.00000000000E+00  0.00000000000E+00  0.75748785382E+03  0.75748785382E+03  0.00000000000E+00 0. -1.
          1   -1    0    0  501    0 -0.00000000000E+00 -0.00000000000E+00 -0.17509662421E+04  0.17509662421E+04  0.00000000000E+00 0. -1.
         25    2    1    2    0    0 -0.11681757802E+02  0.89142199810E+02 -0.37659513171E+03  0.40685746056E+03  0.12500521884E+03 0.  0.
          2    1    1    2  501    0 -0.19888671516E+02  0.20161582156E+02 -0.13547319907E+04  0.13550279758E+04  0.00000000000E+00 0. -1.
          1    1    1    2  502    0  0.31570429318E+02 -0.10930378197E+03  0.73784873418E+03  0.74656865946E+03  0.00000000000E+00 0. -1.
         22    1    3    3    0    0  0.22575506384E+02 -0.24804172735E+02 -0.10799175842E+03  0.11308015016E+03  0.00000000000E+00 0. -1.
         22    1    3    3    0    0 -0.34257264186E+02  0.11394637255E+03 -0.26860337329E+03  0.29377731040E+03  0.00000000000E+00 0. -1.
</event>
<event>
 7    1  0.6255318E-006  0.7711354E+02  0.7818608E-02  0.1350806E+00
          2   -1    0    0  502    0  0.00000000000E+00  0.00000000000E+00  0.38809536363E+03  0.38809536363E+03  0.00000000000E+00 0. -1.
          1   -1    0    0  501    0 -0.00000000000E+00 -0.00000000000E+00 -0.26129876313E+03  0.26129876313E+03  0.00000000000E+00 0. -1.
         25    2    1    2    0    0 -0.11386174409E+02 -0.30510861354E+02  0.70859130597E+02  0.14733194008E+03  0.12500050620E+03 0.  0.
          2    1    1    2  501    0 -0.65395486954E+02  0.40864759156E+02 -0.21071508110E+03  0.22438213756E+03  0.00000000000E+00 0. -1.
          1    1    1    2  502    0  0.76781661363E+02 -0.10353897802E+02  0.26665255100E+03  0.27768004911E+03  0.00000000000E+00 0. -1.
         22    1    3    3    0    0  0.48237599829E+02  0.20686311286E+01  0.62347641674E+02  0.78856665504E+02  0.00000000000E+00 0.  1.
         22    1    3    3    0    0 -0.59623774238E+02 -0.32579492483E+02  0.85114889231E+01  0.68475274578E+02  0.00000000000E+00 0.  1.
</event>
<event>
 7    1  0.6255318E-006  0.6391102E+02  0.7818608E-02  0.1419702E+00
          2   -1    0    0  502    0  0.00000000000E+00  0.00000000000E+00  0.44470501369E+03  0.44470501369E+03  0.00000000000E+00 0. -1.
          1   -1    0    0  501    0 -0.00000000000E+00 -0.00000000000E+00 -0.37125373658E+03  0.37125373658E+03  0.00000000000E+00 0. -1.
         25    2    1    2    0    0  0.15084389304E+02 -0.97520494699E+02  0.32026596783E+03  0.35768239890E+03  0.12501448974E+03 0.  0.
          2    1    1    2  501    0  0.16001817619E+02  0.61636857649E+02 -0.34414351355E+03  0.34998559729E+03  0.00000000000E+00 0. -1.
          1    1    1    2  502    0 -0.31086206924E+02  0.35883637050E+02  0.97328822833E+02  0.10829075410E+03  0.00000000000E+00 0. -1.
         22    1    3    3    0    0  0.22040195117E+02 -0.98123604853E+02  0.11694066100E+03  0.15423725304E+03  0.00000000000E+00 0.  1.
         22    1    3    3    0    0 -0.69558058124E+01  0.60311015373E+00  0.20332530683E+03  0.20344514586E+03  0.00000000000E+00 0.  1.
</event>
<event>
 7    1  0.6255318E-006  0.3179435E+03  0.7818608E-02  0.1116738E+00
          2   -1    0    0  502    0  0.00000000000E+00  0.00000000000E+00  0.36129531415E+04  0.36129531415E+04  0.00000000000E+00 0. -1.
          1   -1    0    0  501    0 -0.00000000000E+00 -0.00000000000E+00 -0.28420198863E+04  0.28420198863E+04  0.00000000000E+00 0. -1.
         25    2    1    2    0    0 -0.29832500895E+03  0.29942569995E+03 -0.29340093003E+03  0.52949273369E+03  0.12499955415E+03 0.  0.
          2    1    1    2  501    0  0.11024005689E+03 -0.29176228591E+03 -0.24180148816E+04  0.24380471836E+04  0.00000000000E+00 0. -1.
          1    1    1    2  502    0  0.18808495205E+03 -0.76634140376E+01  0.34823490669E+04  0.34874331106E+04  0.00000000000E+00 0. -1.
         22    1    3    3    0    0 -0.33304066911E+02  0.87443564235E+02 -0.10757853303E+03  0.14257867501E+03  0.00000000000E+00 0.  1.
         22    1    3    3    0    0 -0.26502094203E+03  0.21198213571E+03 -0.18582239700E+03  0.38691405868E+03  0.00000000000E+00 0.  1.
</event>
<event>
 7    1  0.6255318E-006  0.3613341E+02  0.7818608E-02  0.1625013E+00
          2   -1    0    0  502    0  0.00000000000E+00  0.00000000000E+00  0.92024926850E+03  0.92024926850E+03  0.00000000000E+00 0. -1.
          1   -1    0    0  501    0 -0.00000000000E+00 -0.00000000000E+00 -0.29136965308E+03  0.29136965308E+03  0.00000000000E+00 0. -1.
         25    2    1    2    0    0  0.15623826698E+02 -0.10124901835E+02  0.18469183541E+02  0.12772175070E+03  0.12500046905E+03 0.  0.
          2    1    1    2  501    0 -0.19184858901E+02  0.31057334900E+02 -0.23520206982E+03  0.23801813063E+03  0.00000000000E+00 0. -1.
          1    1    1    2  502    0  0.35610322030E+01 -0.20932433065E+02  0.84561250169E+03  0.84587904024E+03  0.00000000000E+00 0. -1.
         22    1    3    3    0    0 -0.52400809939E+02 -0.13935411813E+01  0.26382362835E+02  0.58684034524E+02  0.00000000000E+00 0.  1.
         22    1    3    3    0    0  0.68024636637E+02 -0.87313606538E+01 -0.79131792936E+01  0.69037716177E+02  0.00000000000E+00 0.  1.
</event>
<event>
 7    1  0.6255318E-006  0.1082499E+03  0.7818608E-02  0.1337939E+00
          2   -1    0    0  502    0  0.00000000000E+00  0.00000000000E+00  0.70527402254E+03  0.70527402254E+03  0.00000000000E+00 0. -1.
          1   -1    0    0  501    0 -0.00000000000E+00 -0.00000000000E+00 -0.13754656669E+04  0.13754656669E+04  0.00000000000E+00 0. -1.
         25    2    1    2    0    0  0.14404940644E+02 -0.60945027439E+02 -0.69632664436E+02  0.15618982042E+03  0.12499901344E+03 0.  0.
          2    1    1    2  501    0 -0.24687070998E+02 -0.48811238628E+02 -0.12573664721E+04  0.12585556935E+04  0.00000000000E+00 0. -1.
          1    1    1    2  502    0  0.10282130354E+02  0.10975626607E+03  0.65680749214E+03  0.66599417556E+03  0.00000000000E+00 0. -1.
         22    1    3    3    0    0  0.10597220531E+01  0.30397650838E+02 -0.54825376171E+02  0.62697384791E+02  0.00000000000E+00 0.  1.
         22    1    3    3    0    0  0.13345218591E+02 -0.91342678277E+02 -0.14807288265E+02  0.93492435629E+02  0.00000000000E+00 0.  1.
</event>
<event>
 7    1  0.6255318E-006  0.8094545E+02  0.7818608E-02  0.1387931E+00
          2   -1    0    0  502    0  0.00000000000E+00  0.00000000000E+00  0.83307820329E+03  0.83307820329E+03  0.00000000000E+00 0. -1.
          1   -1    0    0  501    0 -0.00000000000E+00 -0.00000000000E+00 -0.52341813237E+03  0.52341813237E+03  0.00000000000E+00 0. -1.
         25    2    1    2    0    0 -0.14203394240E+02  0.11632975074E+03  0.43290693543E+02  0.17671138832E+03  0.12497393048E+03 0.  0.
          2    1    1    2  501    0 -0.19673812986E+02 -0.43937188621E+02 -0.45322036183E+03  0.45576993301E+03  0.00000000000E+00 0. -1.
          1    1    1    2  502    0  0.33877207226E+02 -0.72392562114E+02  0.71958973920E+03  0.72401501433E+03  0.00000000000E+00 0. -1.
         22    1    3    3    0    0  0.30899799994E+02 -0.44350678963E+01  0.35919011687E+02  0.47588263968E+02  0.00000000000E+00 0. -1.
         22    1    3    3    0    0 -0.45103194234E+02  0.12076481863E+03  0.73716818556E+01  0.12912312435E+03  0.00000000000E+00 0. -1.
</event>
<event>
 7    1  0.6255318E-006  0.6062104E+02  0.7818608E-02  0.1438844E+00
          2   -1    0    0  502    0  0.00000000000E+00  0.00000000000E+00  0.11545710452E+03  0.11545710452E+03  0.00000000000E+00 0. -1.
          1   -1    0    0  501    0 -0.00000000000E+00 -0.00000000000E+00 -0.74040742467E+03  0.74040742467E+03  0.00000000000E+00 0. -1.
         25    2    1    2    0    0 -0.85857298240E+02 -0.16075681215E+02 -0.36554213916E+02  0.15681891336E+03  0.12500423131E+03 0.  0.
          2    1    1    2  501    0  0.57789955766E+02 -0.16876370474E+02 -0.63360338957E+03  0.63645718327E+03  0.00000000000E+00 0. -1.
          1    1    1    2  502    0  0.28067342474E+02  0.32952051689E+02  0.45207283332E+02  0.62588432560E+02  0.00000000000E+00 0. -1.
         22    1    3    3    0    0 -0.99793703078E+02  0.23157987649E+02 -0.16027714894E+01  0.10245801307E+03  0.00000000000E+00 0.  1.
         22    1    3    3    0    0  0.13936404838E+02 -0.39233668864E+02 -0.34951442427E+02  0.54360900287E+02  0.00000000000E+00 0.  1.
</event>
<event>
 7    1  0.6255318E-006  0.8939559E+02  0.7818608E-02  0.1312147E+00
          2   -1    0    0  502    0  0.00000000000E+00  0.00000000000E+00  0.61197340521E+03  0.61197340521E+03  0.00000000000E+00 0. -1.
          1   -1    0    0  501    0 -0.00000000000E+00 -0.00000000000E+00 -0.12466978011E+03  0.12466978011E+03  0.00000000000E+00 0. -1.
         25    2    1    2    0    0 -0.10556955465E+03 -0.68130364196E+02  0.81994581133E+02  0.19528178301E+03  0.12500074417E+03 0.  0.
          2    1    1    2  501    0  0.81429204594E+02 -0.17322895753E+02 -0.36366673077E+02  0.90847856269E+02  0.00000000000E+00 0. -1.
          1    1    1    2  502    0  0.24140350057E+02  0.85453259949E+02  0.44167571705E+03  0.45051354605E+03  0.00000000000E+00 0. -1.
         22    1    3    3    0    0 -0.46415811606E+01 -0.59625179254E+02 -0.73066938081E+01  0.60250261834E+02  0.00000000000E+00 0.  1.
         22    1    3    3    0    0 -0.10092797349E+03 -0.85051849422E+01  0.89301274941E+02  0.13503152117E+03  0.00000000000E+00 0.  1.
</event>
<event>
 7    1  0.6255318E-006  0.7406311E+02  0.7818608E-02  0.1475247E+00
          2   -1    0    0  502    0  0.00000000000E+00  0.00000000000E+00  0.19824254016E+04  0.19824254016E+04  0.00000000000E+00 0. -1.
          1   -1    0    0  501    0 -0.00000000000E+00 -0.00000000000E+00 -0.59550069122E+02  0.59550069122E+02  0.00000000000E+00 0. -1.
         25    2    1    2    0    0 -0.77309690441E+02  0.28089137602E+02  0.95480750799E+03  0.96646133239E+03  0.12499736715E+03 0.  0.
          2    1    1    2  501    0  0.73953576450E+02 -0.11311611332E+01 -0.27993420605E+02  0.79082504971E+02  0.00000000000E+00 0. -1.
          1    1    1    2  502    0  0.33561139909E+01 -0.26957976469E+02  0.99606124510E+03  0.99643163338E+03  0.00000000000E+00 0. -1.
         22    1    3    3    0    0 -0.28626072004E+02  0.10434970060E+02  0.83957028557E+03  0.84012297017E+03  0.00000000000E+00 0.  1.
         22    1    3    3    0    0 -0.48683618437E+02  0.17654167542E+02  0.11523722242E+03  0.12633836222E+03  0.00000000000E+00 0.  1.
</event>
<event>
 7    1  0.6255318E-006  0.1283464E+03  0.7818608E-02  0.1422628E+00
          2   -1    0    0  502    0  0.00000000000E+00  0.00000000000E+00  0.75800734840E+03  0.75800734840E+03  0.00000000000E+00 0. -1.
          1   -1    0    0  501    0 -0.00000000000E+00 -0.00000000000E+00 -0.68888164070E+03  0.68888164070E+03  0.00000000000E+00 0. -1.
         25    2    1    2    0    0  0.99227799224E+01  0.13852809944E+03  0.33106356782E+03  0.38015541682E+03  0.12500623627E+03 0.  0.
          2    1    1    2  501    0 -0.18211662578E+02 -0.14236549800E+02 -0.65448638720E+03  0.65489447626E+03  0.00000000000E+00 0. -1.
          1    1    1    2  502    0  0.82888826556E+01 -0.12429154964E+03  0.39254852709E+03  0.41183909602E+03  0.00000000000E+00 0. -1.
         22    1    3    3    0    0  0.41260757325E+02  0.37511629101E+01  0.12711673740E+03  0.13369811609E+03  0.00000000000E+00 0. -1.
         22    1    3    3    0    0 -0.31337977403E+02  0.13477693653E+03  0.20394683042E+03  0.24645730073E+03  0.00000000000E+00 0. -1.
</event>
<event>
 7    1  0.6255318E-006  0.7395878E+02  0.7818608E-02  0.1413819E+00
          2   -1    0    0  502    0  0.00000000000E+00  0.00000000000E+00  0.14531191576E+04  0.14531191576E+04  0.00000000000E+00 0. -1.
          1   -1    0    0  501    0 -0.00000000000E+00 -0.00000000000E+00 -0.21267670760E+03  0.21267670760E+03  0.00000000000E+00 0. -1.
         25    2    1    2    0    0 -0.72132188904E+02  0.64983159658E+02  0.98352106853E+02  0.18636623742E+03  0.12503349076E+03 0.  0.
          2    1    1    2  501    0  0.29246293897E+02 -0.67016948179E+02 -0.16037457971E+03  0.17625726330E+03  0.00000000000E+00 0. -1.
          1    1    1    2  502    0  0.42885895008E+02  0.20337885207E+01  0.13024649228E+04  0.13031723645E+04  0.00000000000E+00 0. -1.
         22    1    3    3    0    0 -0.39759859594E+02  0.81346409131E+02  0.11507403730E+03  0.14642444732E+03  0.00000000000E+00 0.  1.
         22    1    3    3    0    0 -0.32372329310E+02 -0.16363249473E+02 -0.16721930446E+02  0.39941790096E+02  0.00000000000E+00 0.  1.
</event>
<event>
 7    1  0.6255318E-006  0.5216301E+02  0.7818608E-02  0.1435999E+00
          2   -1    0    0  502    0  0.00000000000E+00  0.00000000000E+00  0.78767492692E+03  0.78767492692E+03  0.00000000000E+00 0. -1.
          1   -1    0    0  501    0 -0.00000000000E+00 -0.00000000000E+00 -0.22883072117E+03  0.22883072117E+03  0.00000000000E+00 0. -1.
         25    2    1    2    0    0 -0.24834944366E+02 -0.11840243447E+02  0.15222522929E+03  0.19888202079E+03  0.12499828772E+03 0.  0.
          2    1    1    2  501    0 -0.11904097048E+02  0.50786533692E+02 -0.20099594332E+03  0.20765439740E+03  0.00000000000E+00 0. -1.
          1    1    1    2  502    0  0.36739041413E+02 -0.38946290245E+02  0.60761491978E+03  0.60996922990E+03  0.00000000000E+00 0. -1.
         22    1    3    3    0    0 -0.16323358412E+02  0.30238816329E+02 -0.60463487162E+01  0.34891207713E+02  0.00000000000E+00 0. -1.
         22    1    3    3    0    0 -0.85115859534E+01 -0.42079059776E+02  0.15827157801E+03  0.16399081307E+03  0.00000000000E+00 0. -1.
</event>
<event>
 7    1  0.6255318E-006  0.1258793E+03  0.7818608E-02  0.1253220E+00
          2   -1    0    0  502    0  0.00000000000E+00  0.00000000000E+00  0.46467914000E+03  0.46467914000E+03  0.00000000000E+00 0. -1.
          1   -1    0    0  501    0 -0.00000000000E+00 -0.00000000000E+00 -0.33840041422E+04  0.33840041422E+04  0.00000000000E+00 0. -1.
         25    2    1    2    0    0  0.24665616052E+02  0.57674085340E+00 -0.10835225560E+02  0.12786776519E+03  0.12499615201E+03 0.  0.
          2    1    1    2  501    0 -0.12785060838E+03 -0.66181903980E+01 -0.33068179619E+04  0.33092951835E+04  0.00000000000E+00 0. -1.
          1    1    1    2  502    0  0.10318499233E+03  0.60414495446E+01  0.39832818523E+03  0.41152033352E+03  0.00000000000E+00 0. -1.
         22    1    3    3    0    0  0.12488070382E+02 -0.49521140239E+02  0.32484922864E+02  0.60527394178E+02  0.00000000000E+00 0.  1.
         22    1    3    3    0    0  0.12177545670E+02  0.50097881093E+02 -0.43320148424E+02  0.67340371012E+02  0.00000000000E+00 0.  1.
</event>
<event>
 7    1  0.6255318E-006  0.1095036E+03  0.7818608E-02  0.1292090E+00
          2   -1    0    0  502    0  0.00000000000E+00  0.00000000000E+00  0.17481719656E+04  0.17481719656E+04  0.00000000000E+00 0. -1.
          1   -1    0    0  501    0 -0.00000000000E+00 -0.00000000000E+00 -0.19457529191E+04  0.19457529191E+04  0.00000000000E+00 0. -1.
         25    2    1    2    0    0 -0.71466535970E+02  0.32224169761E+02 -0.10891694108E+02  0.14795245605E+03  0.12500174947E+03 0.  0.
          2    1    1    2  501    0  0.34794331784E+02 -0.10525000314E+03 -0.18636890463E+04  0.18669828788E+04  0.00000000000E+00 0. -1.
          1    1    1    2  502    0  0.36672204186E+02  0.73025833378E+02  0.16769997869E+04  0.16789895497E+04  0.00000000000E+00 0. -1.
         22    1    3    3    0    0 -0.47205050275E+02  0.78711906706E+02  0.81999091079E+01  0.92147270921E+02  0.00000000000E+00 0. -1.
         22    1    3    3    0    0 -0.24261485695E+02 -0.46487736945E+02 -0.19091603216E+02  0.55805185133E+02  0.00000000000E+00 0. -1.
</event>
<event>
 7    1  0.6255318E-006  0.5211304E+02  0.7818608E-02  0.1498839E+00
          2   -1    0    0  502    0  0.00000000000E+00  0.00000000000E+00  0.12456562427E+03  0.12456562427E+03  0.00000000000E+00 0. -1.
          1   -1    0    0  501    0 -0.00000000000E+00 -0.00000000000E+00 -0.74098658681E+03  0.74098658681E+03  0.00000000000E+00 0. -1.
         25    2    1    2    0    0  0.26393401164E+02  0.23206072761E+02 -0.42306810964E+03  0.44254536327E+03  0.12499855886E+03 0.  0.
          2    1    1    2  501    0 -0.56929334142E+02 -0.11411406018E+02 -0.30303337468E+03  0.30854561323E+03  0.00000000000E+00 0. -1.
          1    1    1    2  502    0  0.30535932978E+02 -0.11794666744E+02  0.10968052178E+03  0.11446123459E+03  0.00000000000E+00 0. -1.
         22    1    3    3    0    0 -0.14205174932E+02  0.67918204659E+02 -0.23308202749E+03  0.24319107931E+03  0.00000000000E+00 0.  1.
         22    1    3    3    0    0  0.40598576096E+02 -0.44712131898E+02 -0.18998608215E+03  0.19935428395E+03  0.00000000000E+00 0.  1.
</event>
<event>
 7    1  0.6255318E-006  0.8759820E+02  0.7818608E-02  0.1373551E+00
          2   -1    0    0  502    0  0.00000000000E+00  0.00000000000E+00  0.96919396334E+03  0.96919396334E+03  0.00000000000E+00 0. -1.
          1   -1    0    0  501    0 -0.00000000000E+00 -0.00000000000E+00 -0.13384336352E+03  0.13384336352E+03  0.00000000000E+00 0. -1.
         25    2    1    2    0    0 -0.85489474471E+02  0.10011503578E+03  0.35806054222E+03  0.40145177766E+03  0.12499882901E+03 0.  0.
          2    1    1    2  501    0  0.30052423634E+02 -0.39977553413E+02 -0.10356035964E+03  0.11500478699E+03  0.00000000000E+00 0. -1.
          1    1    1    2  502    0  0.55437050837E+02 -0.60137482372E+02  0.58085041724E+03  0.58658076221E+03  0.00000000000E+00 0. -1.
         22    1    3    3    0    0 -0.67501535196E+02  0.87301978855E+02  0.12257335401E+03  0.16493125804E+03  0.00000000000E+00 0.  1.
         22    1    3    3    0    0 -0.17987939275E+02  0.12813056930E+02  0.23548718821E+03  0.23652051962E+03  0.00000000000E+00 0.  1.
</event>
<event>
 7    1  0.6255318E-006  0.6555453E+02  0.7818608E-02  0.1377122E+00
          2   -1    0    0  502    0  0.00000000000E+00  0.00000000000E+00  0.14160002977E+04  0.14160002977E+04  0.00000000000E+00 0. -1.
          1   -1    0    0  501    0 -0.00000000000E+00 -0.00000000000E+00 -0.88172119808E+03  0.88172119808E+03  0.00000000000E+00 0. -1.
         25    2    1    2    0    0 -0.16327952543E+01 -0.14275887136E+02  0.16533325392E+03  0.20777834760E+03  0.12502115782E+03 0.  0.
          2    1    1    2  501    0  0.65816657597E+02  0.46605707596E+01 -0.85837518343E+03  0.86090737531E+03  0.00000000000E+00 0. -1.
          1    1    1    2  502    0 -0.64183862343E+02  0.96153163762E+01  0.12273210291E+04  0.12290357729E+04  0.00000000000E+00 0. -1.
         22    1    3    3    0    0  0.33435523203E+02 -0.47860414369E+02  0.14274971275E+03  0.15422721539E+03  0.00000000000E+00 0.  1.
         22    1    3    3    0    0 -0.35068318457E+02  0.33584527234E+02  0.22583541166E+02  0.53551132206E+02  0.00000000000E+00 0.  1.
</event>
<event>
 7    1  0.6255318E-006  0.7667292E+02  0.7818608E-02  0.1346138E+00
          2   -1    0    0  502    0  0.00000000000E+00  0.00000000000E+00  0.18135409966E+04  0.18135409966E+04  0.00000000000E+00 0. -1.
          1   -1    0    0  501    0 -0.00000000000E+00 -0.00000000000E+00 -0.73095582962E+02  0.73095582962E+02  0.00000000000E+00 0. -1.
         25    2    1    2    0    0 -0.26569708687E+01  0.41723933870E+00  0.28232849556E+03  0.30877546958E+03  0.12500271047E+03 0.  0.
          2    1    1    2  501    0  0.32506690616E+02 -0.71041106287E+02 -0.32975132831E+02  0.84799074892E+02  0.00000000000E+00 0. -1.
          1    1    1    2  502    0 -0.29849719747E+02  0.70623866949E+02  0.14910920509E+04  0.14930620351E+04  0.00000000000E+00 0. -1.
         22    1    3    3    0    0 -0.58901705758E+02 -0.74190443900E+00  0.20402386285E+03  0.21235747686E+03  0.00000000000E+00 0. -1.
         22    1    3    3    0    0  0.56244734889E+02  0.11591437777E+01  0.78304632706E+02  0.96417992721E+02  0.00000000000E+00 0. -1.
</event>
<event>
 7    1  0.6255318E-006  0.4592021E+02  0.7818608E-02  0.1524723E+00
          2   -1    0    0  502    0  0.00000000000E+00  0.00000000000E+00  0.15663393697E+03  0.15663393697E+03  0.00000000000E+00 0. -1.
          1   -1    0    0  501    0 -0.00000000000E+00 -0.00000000000E+00 -0.58251906310E+03  0.58251906310E+03  0.00000000000E+00 0. -1.
         25    2    1    2    0    0  0.17902575971E+02  0.73587648551E+02  0.10363570860E+02  0.14653400053E+03  0.12501666074E+03 0.  0.
          2    1    1    2  501    0 -0.16541475759E+02 -0.42433081982E+02 -0.51026930001E+03  0.51229771168E+03  0.00000000000E+00 0. -1.
          1    1    1    2  502    0 -0.13611002120E+01 -0.31154566569E+02  0.74020603014E+02  0.80321287854E+02  0.00000000000E+00 0. -1.
         22    1    3    3    0    0 -0.16770506893E+02  0.37922126907E+02  0.62160038262E+02  0.74720867014E+02  0.00000000000E+00 0. -1.
         22    1    3    3    0    0  0.34673082864E+02  0.35665521644E+02 -0.51796467401E+02  0.71813133511E+02  0.00000000000E+00 0. -1.
</event>
<event>
 7    1  0.6255318E-006  0.1334596E+03  0.7818608E-02  0.1299904E+00
          2   -1    0    0  502    0  0.00000000000E+00  0.00000000000E+00  0.40717438770E+03  0.40717438770E+03  0.00000000000E+00 0. -1.
          1   -1    0    0  501    0 -0.00000000000E+00 -0.00000000000E+00 -0.18723003547E+04  0.18723003547E+04  0.00000000000E+00 0. -1.
         25    2    1    2    0    0 -0.13042460550E+03  0.12592111466E+03 -0.39822376594E+03  0.45504993628E+03  0.12498628690E+03 0.  0.
          2    1    1    2  501    0  0.60916959660E+02 -0.13340410952E+02 -0.14334102650E+04  0.14347661239E+04  0.00000000000E+00 0. -1.
          1    1    1    2  502    0  0.69507645843E+02 -0.11258070370E+03  0.36650806394E+03  0.38965868219E+03  0.00000000000E+00 0. -1.
         22    1    3    3    0    0 -0.77450440995E+02  0.25740060082E+02 -0.27843565662E+03  0.29015088554E+03  0.00000000000E+00 0.  1.
         22    1    3    3    0    0 -0.52974164508E+02  0.10018105457E+03 -0.11978810932E+03  0.16489905074E+03  0.00000000000E+00 0.  1.
</event>
<event>
 7    1  0.6255318E-006  0.9083638E+02  0.7818608E-02  0.1407231E+00
          2   -1    0    0  502    0  0.00000000000E+00  0.00000000000E+00  0.43591841593E+03  0.43591841593E+03  0.00000000000E+00 0. -1.
          1   -1    0    0  501    0 -0.00000000000E+00 -0.00000000000E+00 -0.32599231369E+03  0.32599231369E+03  0.00000000000E+00 0. -1.
         25    2    1    2    0    0  0.86981867955E+02  0.42743143314E+01  0.14669724618E+03  0.21149332114E+03  0.12500091094E+03 0.  0.
          2    1    1    2  501    0 -0.85289284390E+02  0.32486105136E+02 -0.28511274613E+03  0.29936413791E+03  0.00000000000E+00 0. -1.
          1    1    1    2  502    0 -0.16925835655E+01 -0.36760419468E+02  0.24834160220E+03  0.25105327056E+03  0.00000000000E+00 0. -1.
         22    1    3    3    0    0  0.10242925893E+03  0.13260772577E+02  0.15913900309E+03  0.18971774687E+03  0.00000000000E+00 0.  1.
         22    1    3    3    0    0 -0.15447390978E+02 -0.89864582459E+01 -0.12441756911E+02  0.21775574272E+02  0.00000000000E+00 0.  1.
</event>
<event>
 7    1  0.6255318E-006  0.1468705E+03  0.7818608E-02  0.1219377E+00
          2   -1    0    0  502    0  0.00000000000E+00  0.00000000000E+00  0.15551264083E+04  0.15551264083E+04  0.00000000000E+00 0. -1.
          1   -1    0    0  501    0 -0.00000000000E+00 -0.00000000000E+00 -0.48851354344E+02  0.48851354344E+02  0.00000000000E+00 0. -1.
         25    2    1    2    0    0  0.42741543552E+02  0.16982299859E+03  0.87804085626E+03  0.90401761318E+03  0.12500163709E+03 0.  0.
          2    1    1    2  501    0  0.75666065895E+02 -0.12916819765E+03  0.17767891651E+03  0.23233504726E+03  0.00000000000E+00 0. -1.
          1    1    1    2  502    0 -0.11840760945E+03 -0.40654800941E+02  0.45055528122E+03  0.46762510224E+03  0.00000000000E+00 0. -1.
         22    1    3    3    0    0  0.27936151406E+02  0.63577719643E+02  0.12179841673E+03  0.14020488333E+03  0.00000000000E+00 0.  1.
         22    1    3    3    0    0  0.14805392146E+02  0.10624527895E+03  0.75624243953E+03  0.76381272985E+03  0.00000000000E+00 0.  1.
</event>
<event>
 7    1  0.6255318E-006  0.1264833E+03  0.7818608E-02  0.1302310E+00
          2   -1    0    0  502    0  0.00000000000E+00  0.00000000000E+00  0.42412500218E+03  0.42412500218E+03  0.00000000000E+00 0. -1.
          1   -1    0    0  501    0 -0.00000000000E+00 -0.00000000000E+00 -0.16230730963E+04  0.16230730963E+04  0.00000000000E+00 0. -1.
         25    2    1    2    0    0  0.46938758032E+02  0.79647825047E+02 -0.50358931255E+02  0.16342580040E+03  0.12499978895E+03 0.  0.
          2    1    1    2  501    0  0.63717240467E+02 -0.90696908181E+01 -0.15037549693E+04  0.15051316068E+04  0.00000000000E+00 0. -1.
          1    1    1    2  502    0 -0.11065599850E+03 -0.70578134228E+02  0.35516580644E+03  0.37864069129E+03  0.00000000000E+00 0. -1.
         22    1    3    3    0    0  0.19543197474E+02  0.49383016964E+02 -0.91291571180E+02  0.10561614413E+03  0.00000000000E+00 0.  1.
         22    1    3    3    0    0  0.27395560557E+02  0.30264808083E+02  0.40932639925E+02  0.57809656268E+02  0.00000000000E+00 0.  1.
</event>
<event>
 7    1  0.6255318E-006  0.8968518E+02  0.7818608E-02  0.1450993E+00
          2   -1    0    0  502    0  0.00000000000E+00  0.00000000000E+00  0.63417960673E+03  0.63417960673E+03  0.00000000000E+00 0. -1.
          1   -1    0    0  501    0 -0.00000000000E+00 -0.00000000000E+00 -0.12839696043E+03  0.12839696043E+03  0.00000000000E+00 0. -1.
         25    2    1    2    0    0 -0.10198863740E+03 -0.53704580745E+02 -0.13102077746E+02  0.17053714307E+03  0.12500155428E+03 0.  0.
          2    1    1    2  501    0  0.24748027702E+02  0.10115781138E+02 -0.27587408869E+02  0.38416910746E+02  0.00000000000E+00 0. -1.
          1    1    1    2  502    0  0.77240609694E+02  0.43588799607E+02  0.54647213291E+03  0.55362251335E+03  0.00000000000E+00 0. -1.
         22    1    3    3    0    0 -0.71188437062E+02  0.12639432055E+02 -0.50688760411E+02  0.88300052356E+02  0.00000000000E+00 0.  1.
         22    1    3    3    0    0 -0.30800200333E+02 -0.66344012799E+02  0.37586682665E+02  0.82237090711E+02  0.00000000000E+00 0.  1.
</event>
<event>
 7    1  0.6255318E-006  0.1518923E+03  0.7818608E-02  0.1248404E+00
          2   -1    0    0  502    0  0.00000000000E+00  0.00000000000E+00  0.61254717678E+03  0.61254717678E+03  0.00000000000E+00 0. -1.
          1   -1    0    0  501    0 -0.00000000000E+00 -0.00000000000E+00 -0.14419036664E+04  0.14419036664E+04  0.00000000000E+00 0. -1.
         25    2    1    2    0    0 -0.35503215556E+02 -0.91831814256E+02  0.17232225061E+03  0.23455073115E+03  0.12500210800E+03 0.  0.
          2    1    1    2  501    0  0.12531141032E+03  0.88350906260E+02 -0.14016216950E+04  0.14099830524E+04  0.00000000000E+00 0. -1.
          1    1    1    2  502    0 -0.89808194764E+02  0.34809079953E+01  0.39994295485E+03  0.40991705954E+03  0.00000000000E+00 0. -1.
         22    1    3    3    0    0  0.17278313387E+02  0.25273854490E+02  0.30807188461E+02  0.43432599451E+02  0.00000000000E+00 0. -1.
         22    1    3    3    0    0 -0.52781528943E+02 -0.11710566875E+03  0.14151506215E+03  0.19111813170E+03  0.00000000000E+00 0. -1.
</event>
<event>
 7    1  0.6255318E-006  0.5693054E+02  0.7818608E-02  0.1508847E+00
          2   -1    0    0  502    0  0.00000000000E+00  0.00000000000E+00  0.24121688048E+04  0.24121688048E+04  0.00000000000E+00 0. -1.
          1   -1    0    0  501    0 -0.00000000000E+00 -0.00000000000E+00 -0.64155966718E+01  0.64155966718E+01  0.00000000000E+00 0. -1.
         25    2    1    2    0    0  0.40542930858E+02 -0.58658928435E+02  0.13400312170E+04  0.13477361336E+04  0.12499769616E+03 0.  0.
          2    1    1    2  501    0 -0.27440078208E+02  0.54873118986E+01  0.10814925562E+03  0.11171092147E+03  0.00000000000E+00 0. -1.
          1    1    1    2  502    0 -0.13102852651E+02  0.53171616536E+02  0.95757273550E+03  0.95913734643E+03  0.00000000000E+00 0. -1.
         22    1    3    3    0    0  0.82918555848E+02 -0.21392934036E+02  0.90946764994E+03  0.91349031238E+03  0.00000000000E+00 0.  1.
         22    1    3    3    0    0 -0.42375624989E+02 -0.37265994399E+02  0.43056356709E+03  0.43424582121E+03  0.00000000000E+00 0.  1.
</event>
<event>
 7    1  0.6255318E-006  0.8172515E+02  0.7818608E-02  0.1379486E+00
          2   -1    0    0  502    0  0.00000000000E+00  0.00000000000E+00  0.12211648894E+04  0.12211648894E+04  0.00000000000E+00 0. -1.
          1   -1    0    0  501    0 -0.00000000000E+00 -0.00000000000E+00 -0.12290191016E+03  0.12290191016E+03  0.00000000000E+00 0. -1.
         25    2    1    2    0    0  0.48938654868E+02 -0.48477883681E+01  0.51095033451E+03  0.52831319203E+03  0.12500436610E+03 0.  0.
          2    1    1    2  501    0 -0.72351840209E+02 -0.40529855620E+02 -0.98091545850E+02  0.12845002665E+03  0.00000000000E+00 0. -1.
          1    1    1    2  502    0  0.23413185341E+02  0.45377643988E+02  0.68540419056E+03  0.68730358085E+03  0.00000000000E+00 0. -1.
         22    1    3    3    0    0 -0.30873997094E+02  0.15737224883E+02  0.29733296880E+03  0.29934554995E+03  0.00000000000E+00 0. -1.
         22    1    3    3    0    0  0.79812651962E+02 -0.20585013251E+02  0.21361736572E+03  0.22896764208E+03  0.00000000000E+00 0. -1.
</event>
<event>
 7    1  0.6255318E-006  0.9729734E+02  0.7818608E-02  0.1355049E+00
          2   -1    0    0  502    0  0.00000000000E+00  0.00000000000E+00  0.23733352601E+04  0.23733352601E+04  0.00000000000E+00 0. -1.
          1   -1    0    0  501    0 -0.00000000000E+00 -0.00000000000E+00 -0.58544488397E+02  0.58544488397E+02  0.00000000000E+00 0. -1.
         25    2    1    2    0    0 -0.52605818510E+02  0.93266105349E+02  0.52436790654E+03  0.54958932923E+03  0.12498316227E+03 0.  0.
          2    1    1    2  501    0  0.52373866533E+02  0.42984845380E+01 -0.29156939292E+02  0.60096805022E+02  0.00000000000E+00 0. -1.
          1    1    1    2  502    0  0.23195197673E+00 -0.97564589887E+02  0.18195798044E+04  0.18221936142E+04  0.00000000000E+00 0. -1.
         22    1    3    3    0    0  0.82983294062E+01  0.82675970471E+02  0.42120677843E+03  0.42932426970E+03  0.00000000000E+00 0. -1.
         22    1    3    3    0    0 -0.60904147916E+02  0.10590134879E+02  0.10316112811E+03  0.12026505953E+03  0.00000000000E+00 0. -1.
</event>
<event>
 7    1  0.6255318E-006  0.1080298E+03  0.7818608E-02  0.1322255E+00
          2   -1    0    0  502    0  0.00000000000E+00  0.00000000000E+00  0.24904770189E+03  0.24904770189E+03  0.00000000000E+00 0. -1.
          1   -1    0    0  501    0 -0.00000000000E+00 -0.00000000000E+00 -0.33097078497E+03  0.33097078497E+03  0.00000000000E+00 0. -1.
         25    2    1    2    0    0  0.28109031534E+02  0.52247991271E+02 -0.96731773704E+02  0.16882504260E+03  0.12499955487E+03 0.  0.
          2    1    1    2  501    0  0.59108290231E+02  0.21561448821E+02 -0.17704592840E+03  0.18789344537E+03  0.00000000000E+00 0. -1.
          1    1    1    2  502    0 -0.87217321764E+02 -0.73809440092E+02  0.19185461902E+03  0.22329999889E+03  0.00000000000E+00 0. -1.
         22    1    3    3    0    0  0.31836868595E+02  0.12803869320E+02  0.23923436922E+02  0.41831281425E+02  0.00000000000E+00 0. -1.
         22    1    3    3    0    0 -0.37278370614E+01  0.39444121951E+02 -0.12065521063E+03  0.12699376117E+03  0.00000000000E+00 0. -1.
</event>
<event>
 7    1  0.6255318E-006  0.3015819E+02  0.7818608E-02  0.1641877E+00
          2   -1    0    0  502    0  0.00000000000E+00  0.00000000000E+00  0.96020045402E+03  0.96020045402E+03  0.00000000000E+00 0. -1.
          1   -1    0    0  501    0 -0.00000000000E+00 -0.00000000000E+00 -0.51981402211E+03  0.51981402211E+03  0.00000000000E+00 0. -1.
         25    2    1    2    0    0  0.39319438122E+02 -0.28528174645E+02  0.19831753726E+03  0.23940387652E+03  0.12499798217E+03 0.  0.
          2    1    1    2  501    0 -0.16474358207E+02  0.25223076623E+02 -0.49863642981E+03  0.49954569081E+03  0.00000000000E+00 0. -1.
          1    1    1    2  502    0 -0.22845079915E+02  0.33050980215E+01  0.74070532447E+03  0.74106490880E+03  0.00000000000E+00 0. -1.
         22    1    3    3    0    0  0.63367235902E+02  0.44915572036E+01  0.38132011070E+02  0.74092043703E+02  0.00000000000E+00 0.  1.
         22    1    3    3    0    0 -0.24047797780E+02 -0.33019731848E+02  0.16018552619E+03  0.16531183282E+03  0.00000000000E+00 0.  1.
</event>
<event>
 7    1  0.6255318E-006  0.9051162E+02  0.7818608E-02  0.1385955E+00
          2   -1    0    0  502    0  0.00000000000E+00  0.00000000000E+00  0.71637227810E+03  0.71637227810E+03  0.00000000000E+00 0. -1.
          1   -1    0    0  501    0 -0.00000000000E+00 -0.00000000000E+00 -0.18957963462E+03  0.18957963462E+03  0.00000000000E+00 0. -1.
         25    2    1    2    0    0 -0.88871692268E+02  0.83489049677E+01  0.33726959363E+03  0.37060046984E+03  0.12500419016E+03 0.  0.
          2    1    1    2  501    0  0.75842474345E+02 -0.50108622122E+02 -0.15950716447E+03  0.18359055107E+03  0.00000000000E+00 0. -1.
          1    1    1    2  502    0  0.13029217923E+02  0.41759717154E+02  0.34903021432E+03  0.35176089181E+03  0.00000000000E+00 0. -1.
         22    1    3    3    0    0  0.46420818307E+01  0.28993236897E+02  0.12336073179E+02  0.31848632796E+02  0.00000000000E+00 0. -1.
         22    1    3    3    0    0 -0.93513774099E+02 -0.20644331930E+02  0.32493352045E+03  0.33875183704E+03  0.00000000000E+00 0. -1.
</event>
<event>
 7    1  0.6255318E-006  0.7612827E+02  0.7818608E-02  0.1401740E+00
          2   -1    0    0  502    0  0.00000000000E+00  0.00000000000E+00  0.31235233698E+04  0.31235233698E+04  0.00000000000E+00 0. -1.
          1   -1    0    0  501    0 -0.00000000000E+00 -0.00000000000E+00 -0.46577216307E+03  0.46577216307E+03  0.00000000000E+00 0. -1.
         25    2    1    2    0    0  0.66346442788E+01 -0.11517360415E+03  0.59615517806E+03  0.61994789810E+03  0.12500168976E+03 0.  0.
          2    1    1    2  501    0 -0.18923233940E+02  0.41759737072E+02 -0.45216570335E+03  0.45448408961E+03  0.00000000000E+00 0. -1.
          1    1    1    2  502    0  0.12288589661E+02  0.73413867076E+02  0.25137617320E+04  0.25148635452E+04  0.00000000000E+00 0. -1.
         22    1    3    3    0    0  0.40555646782E+02 -0.40182288464E+02  0.86188496830E+02  0.10338197995E+03  0.00000000000E+00 0. -1.
         22    1    3    3    0    0 -0.33921002503E+02 -0.74991315684E+02  0.50996668123E+03  0.51656591815E+03  0.00000000000E+00 0. -1.
</event>
<event>
 7    1  0.6255318E-006  0.9293867E+02  0.7818608E-02  0.1465578E+00
          2   -1    0    0  502    0  0.00000000000E+00  0.00000000000E+00  0.34477238565E+03  0.34477238565E+03  0.00000000000E+00 0. -1.
          1   -1    0    0  501    0 -0.00000000000E+00 -0.00000000000E+00 -0.74572931711E+03  0.74572931711E+03  0.00000000000E+00 0. -1.
         25    2    1    2    0    0 -0.72814366880E+02  0.24838889407E+02 -0.80692678500E+02  0.16749961036E+03  0.12500363457E+03 0.  0.
          2    1    1    2  501    0 -0.20183670556E+02 -0.11439906650E+02 -0.61408540713E+03  0.61452350587E+03  0.00000000000E+00 0. -1.
          1    1    1    2  502    0  0.92998037435E+02 -0.13398982757E+02  0.29382115417E+03  0.30847858652E+03  0.00000000000E+00 0. -1.
         22    1    3    3    0    0  0.17479567106E+02  0.67928503527E+01 -0.72693218167E+02  0.75073177964E+02  0.00000000000E+00 0. -1.
         22    1    3    3    0    0 -0.90293933985E+02  0.18046039055E+02 -0.79994603324E+01  0.92426432397E+02  0.00000000000E+00 0. -1.
</event>
<event>
 7    1  0.6255318E-006  0.7130184E+02  0.7818608E-02  0.1442820E+00
          2   -1    0    0  502    0  0.00000000000E+00  0.00000000000E+00  0.71112926025E+02  0.71112926025E+02  0.00000000000E+00 0. -1.
          1   -1    0    0  501    0 -0.00000000000E+00 -0.00000000000E+00 -0.43821200317E+03  0.43821200317E+03  0.00000000000E+00 0. -1.
         25    2    1    2    0    0  0.10366795015E+03 -0.65021940285E+00 -0.32174373236E+03  0.36040481404E+03  0.12500053599E+03 0.  0.
          2    1    1    2  501    0 -0.35015262387E+02  0.70872807786E+01 -0.67606290762E+02  0.76465081570E+02  0.00000000000E+00 0. -1.
          1    1    1    2  502    0 -0.68652687760E+02 -0.64370613758E+01  0.22250945972E+02  0.72455033590E+02  0.00000000000E+00 0. -1.
         22    1    3    3    0    0  0.26764362497E+01  0.49544339067E+02 -0.99185467057E+02  0.11090338913E+03  0.00000000000E+00 0. -1.
         22    1    3    3    0    0  0.10099151390E+03 -0.50194558470E+02 -0.22255826530E+03  0.24950142491E+03  0.00000000000E+00 0. -1.
</event>
<event>
 7    1  0.6255318E-006  0.1019135E+03  0.7818608E-02  0.1442444E+00
          2   -1    0    0  502    0  0.00000000000E+00  0.00000000000E+00  0.99742969731E+03  0.99742969731E+03  0.00000000000E+00 0. -1.
          1   -1    0    0  501    0 -0.00000000000E+00 -0.00000000000E+00 -0.85933807530E+03  0.85933807530E+03  0.00000000000E+00 0. -1.
         25    2    1    2    0    0  0.42095851700E+02 -0.86476835411E+02  0.40649382632E+02  0.16287266724E+03  0.12499931853E+03 0.  0.
          2    1    1    2  501    0 -0.21022072749E+02 -0.13649400893E+02 -0.79510608515E+03  0.79550104986E+03  0.00000000000E+00 0. -1.
          1    1    1    2  502    0 -0.21073778952E+02  0.10012623630E+03  0.89254832453E+03  0.89839405551E+03  0.00000000000E+00 0. -1.
         22    1    3    3    0    0  0.56620395307E+02 -0.11221495161E+03  0.21127899774E+02  0.12745372760E+03  0.00000000000E+00 0.  1.
         22    1    3    3    0    0 -0.14524543607E+02  0.25738116198E+02  0.19521482858E+02  0.35418939642E+02  0.00000000000E+00 0.  1.
</event>
<event>
 7    1  0.6255318E-006  0.1589165E+03  0.7818608E-02  0.1265998E+00
          2   -1    0    0  502    0  0.00000000000E+00  0.00000000000E+00  0.16564762864E+04  0.16564762864E+04  0.00000000000E+00 0. -1.
          1   -1    0    0  501    0 -0.00000000000E+00 -0.00000000000E+00 -0.15972721887E+03  0.15972721887E+03  0.00000000000E+00 0. -1.
         25    2    1    2    0    0  0.15117931281E+03  0.12414664647E+03  0.55160612404E+03  0.59846746254E+03  0.12500565262E+03 0.  0.
          2    1    1    2  501    0 -0.79800963485E+02 -0.13504842598E+03 -0.89484020052E+02  0.18059252747E+03  0.00000000000E+00 0. -1.
          1    1    1    2  502    0 -0.71378349326E+02  0.10901779502E+02  0.10346269635E+04  0.10371435152E+04  0.00000000000E+00 0. -1.
         22    1    3    3    0    0  0.12310408437E+03  0.55536506531E+02  0.21579402329E+03  0.25457018606E+03  0.00000000000E+00 0.  1.
         22    1    3    3    0    0  0.28075228444E+02  0.68610139944E+02  0.33581210076E+03  0.34389727648E+03  0.00000000000E+00 0.  1.
</event>
<event>
 7    1  0.6255318E-006  0.2071187E+03  0.7818608E-02  0.1306416E+00
          2   -1    0    0  502    0  0.00000000000E+00  0.00000000000E+00  0.17546543240E+04  0.17546543240E+04  0.00000000000E+00 0. -1.
          1   -1    0    0  501    0 -0.00000000000E+00 -0.00000000000E+00 -0.10541158290E+04  0.10541158290E+04  0.00000000000E+00 0. -1.
         25    2    1    2    0    0  0.21829158486E+03 -0.10068111221E+03  0.23776454807E+03  0.36047489090E+03  0.12498905662E+03 0.  0.
          2    1    1    2  501    0 -0.36679646649E+02  0.93522704845E+01 -0.98529774793E+03  0.98602460087E+03  0.00000000000E+00 0. -1.
          1    1    1    2  502    0 -0.18161193821E+03  0.91328841724E+02  0.14480716948E+04  0.14622706613E+04  0.00000000000E+00 0. -1.
         22    1    3    3    0    0  0.81099411509E+02  0.15740899833E+01  0.14422040608E+03  0.16546636467E+03  0.00000000000E+00 0.  1.
         22    1    3    3    0    0  0.13719217335E+03 -0.10225520219E+03  0.93544141994E+02  0.19500852624E+03  0.00000000000E+00 0.  1.
</event>
<event>
 7    1  0.6255318E-006  0.7170862E+02  0.7818608E-02  0.1376144E+00
          2   -1    0    0  502    0  0.00000000000E+00  0.00000000000E+00  0.34102315363E+03  0.34102315363E+03  0.00000000000E+00 0. -1.
          1   -1    0    0  501    0 -0.00000000000E+00 -0.00000000000E+00 -0.40776064769E+03  0.40776064769E+03  0.00000000000E+00 0. -1.
         25    2    1    2    0    0  0.15546067681E+02 -0.14043110805E+02 -0.74209450035E+02  0.14686980045E+03  0.12499922651E+03 0.  0.
          2    1    1    2  501    0 -0.72604751559E+02  0.31966057658E+02 -0.28888656059E+03  0.29958091342E+03  0.00000000000E+00 0. -1.
          1    1    1    2  502    0  0.57058683878E+02 -0.17922946853E+02  0.29635851657E+03  0.30233308746E+03  0.00000000000E+00 0. -1.
         22    1    3    3    0    0 -0.10824996858E+02 -0.47079089380E+02 -0.89674934927E+02  0.10185880015E+03  0.00000000000E+00 0.  1.
         22    1    3    3    0    0  0.26371064539E+02  0.33035978575E+02  0.15465484891E+02  0.45011000303E+02  0.00000000000E+00 0.  1.
</event>
<event>
 7    1  0.6255318E-006  0.2400108E+03  0.7818608E-02  0.1308370E+00
          2   -1    0    0  502    0  0.00000000000E+00  0.00000000000E+00  0.37650840153E+04  0.37650840153E+04  0.00000000000E+00 0. -1.
          1   -1    0    0  501    0 -0.00000000000E+00 -0.00000000000E+00 -0.11957549855E+03  0.11957549855E+03  0.00000000000E+00 0. -1.
         25    2    1    2    0    0  0.21801397531E+03  0.69339687694E+01  0.11831144071E+04  0.12095303499E+04  0.12500317487E+03 0.  0.
          2    1    1    2  501    0  0.32044732136E+02 -0.16873869142E+01 -0.97705936264E+02  0.10284046924E+03  0.00000000000E+00 0. -1.
          1    1    1    2  502    0 -0.25005870745E+03 -0.52465818551E+01  0.25601000459E+04  0.25722886947E+04  0.00000000000E+00 0. -1.
         22    1    3    3    0    0  0.23263312888E+03  0.13957381929E+02  0.11372283376E+04  0.11608622972E+04  0.00000000000E+00 0. -1.
         22    1    3    3    0    0 -0.14619153571E+02 -0.70234131598E+01  0.45886069521E+02  0.48668052762E+02  0.00000000000E+00 0. -1.
</event>
<event>
 7    1  0.6255318E-006  0.2584239E+03  0.7818608E-02  0.1217277E+00
          2   -1    0    0  502    0  0.00000000000E+00  0.00000000000E+00  0.20782787499E+04  0.20782787499E+04  0.00000000000E+00 0. -1.
          1   -1    0    0  501    0 -0.00000000000E+00 -0.00000000000E+00 -0.24886063743E+03  0.24886063743E+03  0.00000000000E+00 0. -1.
         25    2    1    2    0    0 -0.20774165043E+03  0.79030019041E+02  0.31720061594E+03  0.40699344281E+03  0.12500037801E+03 0.  0.
          2    1    1    2  501    0 -0.58003435089E+02 -0.43895605682E+02 -0.18661730103E+03  0.20029288485E+03  0.00000000000E+00 0. -1.
          1    1    1    2  502    0  0.26574508552E+03 -0.35134413359E+02  0.16988347975E+04  0.17198530597E+04  0.00000000000E+00 0. -1.
         22    1    3    3    0    0 -0.13597811257E+03  0.18671549819E+02  0.98212668740E+02  0.16877322706E+03  0.00000000000E+00 0.  1.
         22    1    3    3    0    0 -0.71763537860E+02  0.60358469223E+02  0.21898794720E+03  0.23822021575E+03  0.00000000000E+00 0.  1.
</event>
<event>
 7    1  0.6255318E-006  0.3476421E+02  0.7818608E-02  0.1623556E+00
          2   -1    0    0  502    0  0.00000000000E+00  0.00000000000E+00  0.32769829846E+03  0.32769829846E+03  0.00000000000E+00 0. -1.
          1   -1    0    0  501    0 -0.00000000000E+00 -0.00000000000E+00 -0.13462354671E+03  0.13462354671E+03  0.00000000000E+00 0. -1.
         25    2    1    2    0    0 -0.25342191864E+02 -0.29877408591E+02 -0.25484841976E+02  0.13345230690E+03  0.12500061926E+03 0.  0.
          2    1    1    2  501    0 -0.82185503020E+01  0.20684838018E+02 -0.51747847109E+02  0.56331578829E+02  0.00000000000E+00 0. -1.
          1    1    1    2  502    0  0.33560742166E+02  0.91925705728E+01  0.27030744083E+03  0.27253795945E+03  0.00000000000E+00 0. -1.
         22    1    3    3    0    0  0.38440535942E+01 -0.18539624252E+01 -0.71814632433E+02  0.71941332739E+02  0.00000000000E+00 0. -1.
         22    1    3    3    0    0 -0.29186245459E+02 -0.28023446165E+02  0.46329790457E+02  0.61510974165E+02  0.00000000000E+00 0. -1.
</event>
<event>
 7    1  0.6255318E-006  0.7156114E+02  0.7818608E-02  0.1474732E+00
          2   -1    0    0  502    0  0.00000000000E+00  0.00000000000E+00  0.18231516378E+03  0.18231516378E+03  0.00000000000E+00 0. -1.
          1   -1    0    0  501    0 -0.00000000000E+00 -0.00000000000E+00 -0.52536815408E+03  0.52536815408E+03  0.00000000000E+00 0. -1.
         25    2    1    2    0    0  0.75542927536E+02 -0.28163640134E+02 -0.30533403946E+03  0.33963770835E+03  0.12499989102E+03 0.  0.
          2    1    1    2  501    0 -0.40836014398E+01  0.27922004139E+02 -0.19408440354E+03  0.19612513814E+03  0.00000000000E+00 0. -1.
          1    1    1    2  502    0 -0.71459326096E+02  0.24163599503E+00  0.15636545270E+03  0.17192047136E+03  0.00000000000E+00 0. -1.
         22    1    3    3    0    0  0.51034220968E+02 -0.58191027786E+02 -0.81207759193E+02  0.11218461382E+03  0.00000000000E+00 0.  1.
         22    1    3    3    0    0  0.24508706568E+02  0.30027387652E+02 -0.22412628027E+03  0.22745309453E+03  0.00000000000E+00 0.  1.
</event>
<event>
 7    1  0.6255318E-006  0.3221219E+03  0.7818608E-02  0.1310341E+00
          2   -1    0    0  502    0  0.00000000000E+00  0.00000000000E+00  0.25546307765E+04  0.25546307765E+04  0.00000000000E+00 0. -1.
          1   -1    0    0  501    0 -0.00000000000E+00 -0.00000000000E+00 -0.13308198809E+03  0.13308198809E+03  0.00000000000E+00 0. -1.
         25    2    1    2    0    0 -0.21483464046E+03  0.22310363062E+03  0.63007007967E+03  0.71312413984E+03  0.12501432236E+03 0.  0.
          2    1    1    2  501    0 -0.23485083742E+02  0.63877426640E-02 -0.75610598223E+02  0.79173933607E+02  0.00000000000E+00 0. -1.
          1    1    1    2  502    0  0.23831972420E+03 -0.22311001836E+03  0.18670893070E+04  0.18954146911E+04  0.00000000000E+00 0. -1.
         22    1    3    3    0    0 -0.97075688775E+02  0.18596029717E+03  0.37315832621E+03  0.42807949951E+03  0.00000000000E+00 0.  1.
         22    1    3    3    0    0 -0.11775895168E+03  0.37143333449E+02  0.25691175345E+03  0.28504464033E+03  0.00000000000E+00 0.  1.
</event>
<event>
 7    1  0.6255318E-006  0.5341712E+02  0.7818608E-02  0.1472616E+00
          2   -1    0    0  502    0  0.00000000000E+00  0.00000000000E+00  0.57046566737E+03  0.57046566737E+03  0.00000000000E+00 0. -1.
          1   -1    0    0  501    0 -0.00000000000E+00 -0.00000000000E+00 -0.31509846756E+03  0.31509846756E+03  0.00000000000E+00 0. -1.
         25    2    1    2    0    0  0.34421513752E+02 -0.44839548056E+02 -0.28881694760E+02  0.14019450359E+03  0.12499968346E+03 0.  0.
          2    1    1    2  501    0 -0.37387060994E+02 -0.86666240689E+01 -0.22755461454E+03  0.23076829354E+03  0.00000000000E+00 0. -1.
          1    1    1    2  502    0  0.29655472426E+01  0.53506172125E+02  0.51180350911E+03  0.51460133780E+03  0.00000000000E+00 0. -1.
         22    1    3    3    0    0  0.42607508341E+02  0.70978005976E+01  0.36319485174E+02  0.56434772469E+02  0.00000000000E+00 0.  1.
         22    1    3    3    0    0 -0.81859945889E+01 -0.51937348654E+02 -0.65201179935E+02  0.83759731121E+02  0.00000000000E+00 0.  1.
</event>
<event>
 7    1  0.6255318E-006  0.1309737E+03  0.7818608E-02  0.1375553E+00
          2   -1    0    0  502    0  0.00000000000E+00  0.00000000000E+00  0.38835198799E+03  0.38835198799E+03  0.00000000000E+00 0. -1.
          1   -1    0    0  501    0 -0.00000000000E+00 -0.00000000000E+00 -0.25149988178E+03  0.25149988178E+03  0.00000000000E+00 0. -1.
         25    2    1    2    0    0 -0.14074131828E+03 -0.67167399456E+02  0.37750616536E+02  0.20339709112E+03  0.12500275759E+03 0.  0.
          2    1    1    2  501    0  0.11872859070E+03  0.42711056370E+02 -0.14381477346E+03  0.19132015484E+03  0.00000000000E+00 0. -1.
          1    1    1    2  502    0  0.22012727581E+02  0.24456343086E+02  0.24291626313E+03  0.24513462380E+03  0.00000000000E+00 0. -1.
         22    1    3    3    0    0 -0.11913654571E+03 -0.10272827598E+03  0.37797267746E+02  0.16178766535E+03  0.00000000000E+00 0.  1.
         22    1    3    3    0    0 -0.21604772568E+02  0.35560876520E+02 -0.46651209880E-01  0.41609425770E+02  0.00000000000E+00 0.  1.
</event>
<event>
 7    1  0.6255318E-006  0.4388918E+02  0.7818608E-02  0.1500129E+00
          2   -1    0    0  502    0  0.00000000000E+00  0.00000000000E+00  0.36733656797E+03  0.36733656797E+03  0.00000000000E+00 0. -1.
          1   -1    0    0  501    0 -0.00000000000E+00 -0.00000000000E+00 -0.81846221282E+03  0.81846221282E+03  0.00000000000E+00 0. -1.
         25    2    1    2    0    0 -0.80661963014E+01  0.68020426124E+02  0.27781405000E+02  0.14521588477E+03  0.12499601926E+03 0.  0.
          2    1    1    2  501    0  0.25992605570E+02 -0.28435468424E+02 -0.75757159442E+03  0.75855053364E+03  0.00000000000E+00 0. -1.
          1    1    1    2  502    0 -0.17926409269E+02 -0.39584957701E+02  0.27866454458E+03  0.28203236238E+03  0.00000000000E+00 0. -1.
         22    1    3    3    0    0  0.32610831447E+02  0.83271843121E+02  0.42940697123E+02  0.99204685645E+02  0.00000000000E+00 0. -1.
         22    1    3    3    0    0 -0.40677027748E+02 -0.15251416997E+02 -0.15159292123E+02  0.46011199121E+02  0.00000000000E+00 0. -1.
</event>
<event>
 7    1  0.6255318E-006  0.7346640E+02  0.7818608E-02  0.1434673E+00
          2   -1    0    0  502    0  0.00000000000E+00  0.00000000000E+00  0.17022022726E+03  0.17022022726E+03  0.00000000000E+00 0. -1.
          1   -1    0    0  501    0 -0.00000000000E+00 -0.00000000000E+00 -0.46506895279E+03  0.46506895279E+03  0.00000000000E+00 0. -1.
         25    2    1    2    0    0  0.77526485988E+02  0.75388324140E+02 -0.16776832476E+03  0.23550773643E+03  0.12499571064E+03 0.  0.
          2    1    1    2  501    0 -0.22552989915E+02 -0.29146599997E+02 -0.25253815699E+03  0.25521301374E+03  0.00000000000E+00 0. -1.
          1    1    1    2  502    0 -0.54973496073E+02 -0.46241724143E+02  0.12545775622E+03  0.14456842988E+03  0.00000000000E+00 0. -1.
         22    1    3    3    0    0  0.30890545304E+02  0.81446049782E+02 -0.33645880805E+02  0.93379495123E+02  0.00000000000E+00 0. -1.
         22    1    3    3    0    0  0.46635940685E+02 -0.60577256421E+01 -0.13412244396E+03  0.14212824130E+03  0.00000000000E+00 0. -1.
</event>
<event>
 7    1  0.7963396E-006  0.5277611E+02  0.7818608E-02  0.1432014E+00
          2   -1    0    0  502    0  0.00000000000E+00  0.00000000000E+00  0.34460186176E+04  0.34460186176E+04  0.00000000000E+00 0. -1.
          1   -1    0    0  501    0 -0.00000000000E+00 -0.00000000000E+00 -0.63730905121E+03  0.63730905121E+03  0.00000000000E+00 0. -1.
         25    2    1    2    0    0  0.13756576201E+02 -0.97808897840E+00 -0.37887791015E+03  0.39920356335E+03  0.12499925660E+03 0.  0.
          2    1    1    2  501    0 -0.88158734956E+01 -0.51592721009E+02 -0.24530438864E+03  0.25082617800E+03  0.00000000000E+00 0. -1.
          1    1    1    2  502    0 -0.49407027055E+01  0.52570809987E+02  0.34328918652E+04  0.34332979274E+04  0.00000000000E+00 0. -1.
         22    1    3    3    0    0  0.32313462600E+01 -0.51458276796E+02 -0.75195797659E+02  0.91174578887E+02  0.00000000000E+00 0.  1.
         22    1    3    3    0    0  0.10525229941E+02  0.50480187818E+02 -0.30368211249E+03  0.30802898447E+03  0.00000000000E+00 0.  1.
</event>
<event>
 7    1  0.6255318E-006  0.1540598E+03  0.7818608E-02  0.1251605E+00
          2   -1    0    0  502    0  0.00000000000E+00  0.00000000000E+00  0.16945690799E+03  0.16945690799E+03  0.00000000000E+00 0. -1.
          1   -1    0    0  501    0 -0.00000000000E+00 -0.00000000000E+00 -0.51288166715E+03  0.51288166715E+03  0.00000000000E+00 0. -1.
         25    2    1    2    0    0 -0.49019583532E+02  0.11128497297E+03 -0.10482608132E+03  0.20346506618E+03  0.12498904373E+03 0.  0.
          2    1    1    2  501    0  0.60682564110E+02  0.60688769116E+02 -0.28722856447E+03  0.29977616405E+03  0.00000000000E+00 0. -1.
          1    1    1    2  502    0 -0.11662980578E+02 -0.17197374208E+03  0.48629886618E+02  0.17909734491E+03  0.00000000000E+00 0. -1.
         22    1    3    3    0    0  0.53411949921E+01 -0.24664080555E+02 -0.29462847519E+02  0.38793100127E+02  0.00000000000E+00 0.  1.
         22    1    3    3    0    0 -0.54360778524E+02  0.13594905352E+03 -0.75363233798E+02  0.16467196605E+03  0.00000000000E+00 0.  1.
</event>
<event>
 7    1  0.6255318E-006  0.1115482E+03  0.7818608E-02  0.1342908E+00
          2   -1    0    0  502    0  0.00000000000E+00  0.00000000000E+00  0.13808218520E+04  0.13808218520E+04  0.00000000000E+00 0. -1.
          1   -1    0    0  501    0 -0.00000000000E+00 -0.00000000000E+00 -0.10502611756E+04  0.10502611756E+04  0.00000000000E+00 0. -1.
         25    2    1    2    0    0 -0.45281055835E+02 -0.14788072747E+03  0.32892675844E+03  0.38436683428E+03  0.12500386915E+03 0.  0.
          2    1    1    2  501    0  0.53206124000E+02  0.97655072494E+02 -0.10188826023E+04  0.10249337355E+04  0.00000000000E+00 0. -1.
          1    1    1    2  502    0 -0.79250681658E+01  0.50225654975E+02  0.10205165202E+04  0.10217824578E+04  0.00000000000E+00 0. -1.
         22    1    3    3    0    0 -0.42235260821E+02 -0.57230492905E+02  0.26243742488E+03  0.27190540369E+03  0.00000000000E+00 0. -1.
         22    1    3    3    0    0 -0.30457950132E+01 -0.90650234564E+02  0.66489333552E+02  0.11246143059E+03  0.00000000000E+00 0. -1.
</event>
<event>
 7    1  0.6255318E-006  0.3126587E+02  0.7818608E-02  0.1621581E+00
          2   -1    0    0  502    0  0.00000000000E+00  0.00000000000E+00  0.33052364563E+04  0.33052364563E+04  0.00000000000E+00 0. -1.
          1   -1    0    0  501    0 -0.00000000000E+00 -0.00000000000E+00 -0.15047963307E+02  0.15047963307E+02  0.00000000000E+00 0. -1.
         25    2    1    2    0    0 -0.85192728398E+01 -0.38178749556E+02  0.14385584954E+04  0.14445105695E+04  0.12502018119E+03 0.  0.
          2    1    1    2  501    0 -0.14278104230E+02  0.27831929552E+02  0.84203395468E+01  0.32394176654E+02  0.00000000000E+00 0. -1.
          1    1    1    2  502    0  0.22797377070E+02  0.10346820004E+02  0.18432096580E+04  0.18433796734E+04  0.00000000000E+00 0. -1.
         22    1    3    3    0    0 -0.14317310881E+02 -0.83139684478E+02  0.83455386150E+03  0.83880709359E+03  0.00000000000E+00 0.  1.
         22    1    3    3    0    0  0.57980380409E+01  0.44960934921E+02  0.60400463392E+03  0.60570347590E+03  0.00000000000E+00 0.  1.
</event>
<event>
 7    1  0.6255318E-006  0.6276294E+02  0.7818608E-02  0.1460108E+00
          2   -1    0    0  502    0  0.00000000000E+00  0.00000000000E+00  0.11346350181E+04  0.11346350181E+04  0.00000000000E+00 0. -1.
          1   -1    0    0  501    0 -0.00000000000E+00 -0.00000000000E+00 -0.86756989269E+03  0.86756989269E+03  0.00000000000E+00 0. -1.
         25    2    1    2    0    0  0.73154197779E+02  0.63626898336E+02 -0.53998929215E+02  0.16715217827E+03  0.12499618994E+03 0.  0.
          2    1    1    2  501    0 -0.42640902939E+02 -0.45015451210E+02 -0.75542754909E+03  0.75796795406E+03  0.00000000000E+00 0. -1.
          1    1    1    2  502    0 -0.30513294840E+02 -0.18611447126E+02  0.10764916037E+04  0.10770847785E+04  0.00000000000E+00 0. -1.
         22    1    3    3    0    0  0.28255823404E+02  0.32758687009E+02  0.39730300654E+02  0.58736870199E+02  0.00000000000E+00 0.  1.
         22    1    3    3    0    0  0.44898374375E+02  0.30868211327E+02 -0.93729229869E+02  0.10841530807E+03  0.00000000000E+00 0.  1.
</event>
<event>
 7    1  0.6255318E-006  0.6422314E+02  0.7818608E-02  0.1429311E+00
          2   -1    0    0  502    0  0.00000000000E+00  0.00000000000E+00  0.11860091422E+03  0.11860091422E+03  0.00000000000E+00 0. -1.
          1   -1    0    0  501    0 -0.00000000000E+00 -0.00000000000E+00 -0.30177112987E+04  0.30177112987E+04  0.00000000000E+00 0. -1.
         25    2    1    2    0    0  0.12728016767E+02  0.27325296455E+02 -0.54573656817E+03  0.56067990297E+03  0.12499951007E+03 0.  0.
          2    1    1    2  501    0 -0.24352276148E+02  0.36527561596E+02 -0.24548138838E+04  0.24552064068E+04  0.00000000000E+00 0. -1.
          1    1    1    2  502    0  0.11624259382E+02 -0.63852858051E+02  0.10144006739E+03  0.12042590319E+03  0.00000000000E+00 0. -1.
         22    1    3    3    0    0 -0.45273773717E+02 -0.13712024605E+02 -0.11880343734E+03  0.12787490344E+03  0.00000000000E+00 0.  1.
         22    1    3    3    0    0  0.58001790484E+02  0.41037321061E+02 -0.42693313083E+03  0.43280499953E+03  0.00000000000E+00 0.  1.
</event>
<event>
 7    1  0.9531005E-006  0.8245706E+02  0.7818608E-02  0.1330268E+00
          2   -1    0    0  502    0  0.00000000000E+00  0.00000000000E+00  0.10810821648E+04  0.10810821648E+04  0.00000000000E+00 0. -1.
          1   -1    0    0  501    0 -0.00000000000E+00 -0.00000000000E+00 -0.12001634910E+04  0.12001634910E+04  0.00000000000E+00 0. -1.
         25    2    1    2    0    0 -0.61747795958E+02  0.16019223087E+02 -0.55567208708E+03  0.57311966119E+03  0.12500108747E+03 0.  0.
          2    1    1    2  501    0  0.55777499908E+01 -0.76586647296E+02 -0.63184886251E+03  0.63649792686E+03  0.00000000000E+00 0. -1.
          1    1    1    2  502    0  0.56170045967E+02  0.60567424209E+02  0.10684396233E+04  0.10716280678E+04  0.00000000000E+00 0. -1.
         22    1    3    3    0    0  0.31442956051E+02 -0.23161967340E+02 -0.16863175669E+03  0.17309478785E+03  0.00000000000E+00 0. -1.
         22    1    3    3    0    0 -0.93190752009E+02  0.39181190427E+02 -0.38704033039E+03  0.40002487334E+03  0.00000000000E+00 0. -1.
</event>
<event>
 7    1  0.6255318E-006  0.1097162E+03  0.7818608E-02  0.1307508E+00
          2   -1    0    0  502    0  0.00000000000E+00  0.00000000000E+00  0.14259285900E+04  0.14259285900E+04  0.00000000000E+00 0. -1.
          1   -1    0    0  501    0 -0.00000000000E+00 -0.00000000000E+00 -0.40855118789E+02  0.40855118789E+02  0.00000000000E+00 0. -1.
         25    2    1    2    0    0 -0.21043686234E+02  0.16815566557E+03  0.47500300067E+03  0.51958747954E+03  0.12499653455E+03 0.  0.
          2    1    1    2  501    0 -0.71820393527E+01 -0.70384573770E+02  0.65175026271E+02  0.96194355153E+02  0.00000000000E+00 0. -1.
          1    1    1    2  502    0  0.28225725587E+02 -0.97771091803E+02  0.84489544426E+03  0.85100187409E+03  0.00000000000E+00 0. -1.
         22    1    3    3    0    0 -0.12560311284E+01  0.18156966685E+03  0.37335663297E+03  0.41516779369E+03  0.00000000000E+00 0. -1.
         22    1    3    3    0    0 -0.19787655106E+02 -0.13414001281E+02  0.10164636770E+03  0.10441968584E+03  0.00000000000E+00 0. -1.
</event>
<event>
 7    1  0.6255318E-006  0.2052359E+03  0.7818608E-02  0.1326337E+00
          2   -1    0    0  502    0  0.00000000000E+00  0.00000000000E+00  0.81669339296E+03  0.81669339296E+03  0.00000000000E+00 0. -1.
          1   -1    0    0  501    0 -0.00000000000E+00 -0.00000000000E+00 -0.23983112892E+04  0.23983112892E+04  0.00000000000E+00 0. -1.
         25    2    1    2    0    0  0.71979044464E+02  0.16011194906E+03 -0.15472404397E+03  0.26529345145E+03  0.12499706607E+03 0.  0.
          2    1    1    2  501    0  0.89805038022E+01  0.30651442921E+02 -0.21740825175E+04  0.21743171234E+04  0.00000000000E+00 0. -1.
          1    1    1    2  502    0 -0.80959548266E+02 -0.19076339198E+03  0.74718866522E+03  0.77539410728E+03  0.00000000000E+00 0. -1.
         22    1    3    3    0    0  0.70270062716E+02  0.10914461849E+03 -0.16827756936E+03  0.21252710371E+03  0.00000000000E+00 0.  1.
         22    1    3    3    0    0  0.17089817481E+01  0.50967330564E+02  0.13553525390E+02  0.52766347741E+02  0.00000000000E+00 0.  1.
</event>
<event>
 7    1  0.6255318E-006  0.1191837E+03  0.7818608E-02  0.1348764E+00
          2   -1    0    0  502    0  0.00000000000E+00  0.00000000000E+00  0.13846440491E+04  0.13846440491E+04  0.00000000000E+00 0. -1.
          1   -1    0    0  501    0 -0.00000000000E+00 -0.00000000000E+00 -0.13259575571E+04  0.13259575571E+04  0.00000000000E+00 0. -1.
         25    2    1    2    0    0 -0.10388039087E+03 -0.14754281223E+01  0.50203159674E+03  0.52768789829E+03  0.12500192552E+03 0.  0.
          2    1    1    2  501    0  0.11121497665E+03 -0.43181970807E+02 -0.13098278375E+04  0.13152499449E+04  0.00000000000E+00 0. -1.
          1    1    1    2  502    0 -0.73345857836E+01  0.44657398929E+02  0.86648273273E+03  0.86766376296E+03  0.00000000000E+00 0. -1.
         22    1    3    3    0    0 -0.11816602337E+03 -0.23329198158E+02  0.47529060530E+03  0.49031481729E+03  0.00000000000E+00 0.  1.
         22    1    3    3    0    0  0.14285632497E+02  0.21853770036E+02  0.26740991436E+02  0.37373081002E+02  0.00000000000E+00 0.  1.
</event>
<event>
 7    1  0.6255318E-006  0.2038570E+03  0.7818608E-02  0.1360481E+00
          2   -1    0    0  502    0  0.00000000000E+00  0.00000000000E+00  0.73231162691E+03  0.73231162691E+03  0.00000000000E+00 0. -1.
          1   -1    0    0  501    0 -0.00000000000E+00 -0.00000000000E+00 -0.92911308207E+03  0.92911308207E+03  0.00000000000E+00 0. -1.
         25    2    1    2    0    0 -0.10100439593E+01 -0.22064300365E+03 -0.14314029511E+03  0.29120311996E+03  0.12500303094E+03 0.  0.
          2    1    1    2  501    0  0.15278919675E+02  0.18454065960E+02 -0.69612764433E+03  0.69653980155E+03  0.00000000000E+00 0. -1.
          1    1    1    2  502    0 -0.14268875716E+02  0.20218893769E+03  0.64246648428E+03  0.67368178746E+03  0.00000000000E+00 0. -1.
         22    1    3    3    0    0  0.56714370750E+01 -0.22220250361E+03 -0.15942177690E+03  0.27353504484E+03  0.00000000000E+00 0. -1.
         22    1    3    3    0    0 -0.66814810343E+01  0.15594999599E+01  0.16281481794E+02  0.17668075117E+02  0.00000000000E+00 0. -1.
</event>
<event>
 7    1  0.6255318E-006  0.1496073E+03  0.7818608E-02  0.1219537E+00
          2   -1    0    0  502    0  0.00000000000E+00  0.00000000000E+00  0.17157690977E+04  0.17157690977E+04  0.00000000000E+00 0. -1.
          1   -1    0    0  501    0 -0.00000000000E+00 -0.00000000000E+00 -0.23332102232E+03  0.23332102232E+03  0.00000000000E+00 0. -1.
         25    2    1    2    0    0  0.17824741905E+03  0.17667558318E+03  0.86717464013E+03  0.91137471695E+03  0.12500245647E+03 0.  0.
          2    1    1    2  501    0 -0.63792763618E+02 -0.13246993646E+03 -0.18034919262E+03  0.23268784247E+03  0.00000000000E+00 0. -1.
          1    1    1    2  502    0 -0.11445465543E+03 -0.44205646712E+02  0.79562262785E+03  0.80502756058E+03  0.00000000000E+00 0. -1.
         22    1    3    3    0    0  0.12849434237E+03  0.15654442071E+03  0.48704726212E+03  0.52747700160E+03  0.00000000000E+00 0.  1.
         22    1    3    3    0    0  0.49753076682E+02  0.20131162471E+02  0.38012737801E+03  0.38389771535E+03  0.00000000000E+00 0.  1.
</event>
<event>
 7    1  0.6255318E-006  0.5864984E+02  0.7818608E-02  0.1509833E+00
          2   -1    0    0  502    0  0.00000000000E+00  0.00000000000E+00  0.28329779686E+03  0.28329779686E+03  0.00000000000E+00 0. -1.
          1   -1    0    0  501    0 -0.00000000000E+00 -0.00000000000E+00 -0.92587546665E+02  0.92587546665E+02  0.00000000000E+00 0. -1.
         25    2    1    2    0    0 -0.77211125875E+01 -0.83034149765E+02  0.13032828256E+03  0.19890974298E+03  0.12500135603E+03 0.  0.
          2    1    1    2  501    0  0.31417733407E+01  0.56443609078E+02 -0.42429501611E+02  0.70682489716E+02  0.00000000000E+00 0. -1.
          1    1    1    2  502    0  0.45793392468E+01  0.26590540688E+02  0.10281146924E+03  0.10629311083E+03  0.00000000000E+00 0. -1.
         22    1    3    3    0    0 -0.56179784016E+02 -0.65253437461E+02  0.11758727978E+03  0.14574274458E+03  0.00000000000E+00 0.  1.
         22    1    3    3    0    0  0.48458671428E+02 -0.17780712304E+02  0.12741002787E+02  0.53166998398E+02  0.00000000000E+00 0.  1.
</event>
<event>
 7    1  0.6255318E-006  0.5411898E+02  0.7818608E-02  0.1434411E+00
          2   -1    0    0  502    0  0.00000000000E+00  0.00000000000E+00  0.97430132758E+02  0.97430132758E+02  0.00000000000E+00 0. -1.
          1   -1    0    0  501    0 -0.00000000000E+00 -0.00000000000E+00 -0.32392242346E+03  0.32392242346E+03  0.00000000000E+00 0. -1.
         25    2    1    2    0    0 -0.44539505513E+02  0.12034087064E+02 -0.88387536223E+02  0.15989540007E+03  0.12500238238E+03 0.  0.
          2    1    1    2  501    0  0.18055418789E+01 -0.50094312700E+02 -0.18235470638E+03  0.18911884910E+03  0.00000000000E+00 0. -1.
          1    1    1    2  502    0  0.42733963634E+02  0.38060225636E+02  0.44249951898E+02  0.72338307047E+02  0.00000000000E+00 0. -1.
         22    1    3    3    0    0  0.25674286775E+02 -0.24092989050E+02 -0.70690984032E+02  0.78973769988E+02  0.00000000000E+00 0.  1.
         22    1    3    3    0    0 -0.70213792288E+02  0.36127076114E+02 -0.17696552191E+02  0.80921630084E+02  0.00000000000E+00 0.  1.
</event>
<event>
 7    1  0.7250178E-006  0.8070819E+02  0.7818608E-02  0.1393060E+00
          2   -1    0    0  502    0  0.00000000000E+00  0.00000000000E+00  0.27193588785E+04  0.27193588785E+04  0.00000000000E+00 0. -1.
          1   -1    0    0  501    0 -0.00000000000E+00 -0.00000000000E+00 -0.58426568952E+03  0.58426568952E+03  0.00000000000E+00 0. -1.
         25    2    1    2    0    0  0.23346591017E+02 -0.33997744260E+02 -0.13064809734E+03  0.18545970348E+03  0.12500186539E+03 0.  0.
          2    1    1    2  501    0 -0.86250011376E+01 -0.45524672044E+02 -0.42434300669E+03  0.42686517044E+03  0.00000000000E+00 0. -1.
          1    1    1    2  502    0 -0.14721589880E+02  0.79522416304E+02  0.26900842930E+04  0.26912996941E+04  0.00000000000E+00 0. -1.
         22    1    3    3    0    0 -0.17345725697E+02  0.41950149578E+02 -0.42176513907E+02  0.61964082943E+02  0.00000000000E+00 0.  1.
         22    1    3    3    0    0  0.40692316714E+02 -0.75947893838E+02 -0.88471583430E+02  0.12349562054E+03  0.00000000000E+00 0.  1.
</event>
<event>
 7    1  0.6255318E-006  0.1925187E+03  0.7818608E-02  0.1209343E+00
          2   -1    0    0  502    0  0.00000000000E+00  0.00000000000E+00  0.15115882194E+03  0.15115882194E+03  0.00000000000E+00 0. -1.
          1   -1    0    0  501    0 -0.00000000000E+00 -0.00000000000E+00 -0.68561843397E+03  0.68561843397E+03  0.00000000000E+00 0. -1.
         25    2    1    2    0    0  0.47368662254E+02  0.10203818529E+02 -0.40498992540E+02  0.14004735198E+03  0.12500073729E+03 0.  0.
          2    1    1    2  501    0  0.14287935206E+03 -0.12903080275E+03 -0.41749737820E+03  0.45974723284E+03  0.00000000000E+00 0. -1.
          1    1    1    2  502    0 -0.19024801431E+03  0.11882698422E+03 -0.76463241292E+02  0.23698267109E+03  0.00000000000E+00 0. -1.
         22    1    3    3    0    0 -0.34270303462E+02  0.10790124954E+02  0.17438600402E+02  0.39937266805E+02  0.00000000000E+00 0.  1.
         22    1    3    3    0    0  0.81638965715E+02 -0.58630642501E+00 -0.57937592942E+02  0.10011008518E+03  0.00000000000E+00 0.  1.
</event>
<event>
 7    1  0.6255318E-006  0.7659733E+02  0.7818608E-02  0.1459578E+00
          2   -1    0    0  502    0  0.00000000000E+00  0.00000000000E+00  0.11262743617E+04  0.11262743617E+04  0.00000000000E+00 0. -1.
          1   -1    0    0  501    0 -0.00000000000E+00 -0.00000000000E+00 -0.42787749143E+02  0.42787749143E+02  0.00000000000E+00 0. -1.
         25    2    1    2    0    0  0.97082256490E+01  0.90963553172E+02  0.47872013010E+03  0.50315670307E+03  0.12500034889E+03 0.  0.
          2    1    1    2  501    0 -0.29715225153E+02 -0.69422321643E+02  0.17000435373E+02  0.77404574485E+02  0.00000000000E+00 0. -1.
          1    1    1    2  502    0  0.20006999504E+02 -0.21541231529E+02  0.58776604712E+03  0.58850083333E+03  0.00000000000E+00 0. -1.
         22    1    3    3    0    0  0.17908140142E+02  0.57081290374E+02  0.66438358962E+02  0.89403751239E+02  0.00000000000E+00 0.  1.
         22    1    3    3    0    0 -0.81999144928E+01  0.33882262798E+02  0.41228177114E+03  0.41375295183E+03  0.00000000000E+00 0.  1.
</event>
<event>
 7    1  0.6255318E-006  0.5467547E+02  0.7818608E-02  0.1439385E+00
          2   -1    0    0  502    0  0.00000000000E+00  0.00000000000E+00  0.69240143333E+03  0.69240143333E+03  0.00000000000E+00 0. -1.
          1   -1    0    0  501    0 -0.00000000000E+00 -0.00000000000E+00 -0.11196159115E+04  0.11196159115E+04  0.00000000000E+00 0. -1.
         25    2    1    2    0    0  0.95488294031E+02  0.22118885412E+02 -0.48758799843E+03  0.51280994903E+03  0.12499891289E+03 0.  0.
          2    1    1    2  501    0 -0.47878320600E+02 -0.17877058505E+02 -0.61751978768E+03  0.61963102810E+03  0.00000000000E+00 0. -1.
          1    1    1    2  502    0 -0.47609973431E+02 -0.42418269076E+01  0.67789330791E+03  0.67957636773E+03  0.00000000000E+00 0. -1.
         22    1    3    3    0    0 -0.29509247458E+02 -0.17341449157E+01 -0.63535486592E+02  0.70075395115E+02  0.00000000000E+00 0.  1.
         22    1    3    3    0    0  0.12499754149E+03  0.23853030328E+02 -0.42405251184E+03  0.44273455392E+03  0.00000000000E+00 0.  1.
</event>
<event>
 7    1  0.6255318E-006  0.5337504E+02  0.7818608E-02  0.1447608E+00
          2   -1    0    0  502    0  0.00000000000E+00  0.00000000000E+00  0.11246405900E+04  0.11246405900E+04  0.00000000000E+00 0. -1.
          1   -1    0    0  501    0 -0.00000000000E+00 -0.00000000000E+00 -0.22100930502E+03  0.22100930502E+03  0.00000000000E+00 0. -1.
         25    2    1    2    0    0  0.43075172796E+01 -0.85726823277E+02  0.14213729908E+03  0.20783539197E+03  0.12499958172E+03 0.  0.
          2    1    1    2  501    0  0.22148879483E+02  0.48024132103E+02 -0.18387237542E+03  0.19132678999E+03  0.00000000000E+00 0. -1.
          1    1    1    2  502    0 -0.26456396762E+02  0.37702691174E+02  0.94536636132E+03  0.94648771306E+03  0.00000000000E+00 0. -1.
         22    1    3    3    0    0 -0.37885229142E+01 -0.97330995825E+02  0.15860315400E+03  0.18612532367E+03  0.00000000000E+00 0. -1.
         22    1    3    3    0    0  0.80960401938E+01  0.11604172548E+02 -0.16465854917E+02  0.21710068297E+02  0.00000000000E+00 0. -1.
</event>
<event>
 7    1  0.6255318E-006  0.1375853E+03  0.7818608E-02  0.1304850E+00
          2   -1    0    0  502    0  0.00000000000E+00  0.00000000000E+00  0.46633827411E+03  0.46633827411E+03  0.00000000000E+00 0. -1.
          1   -1    0    0  501    0 -0.00000000000E+00 -0.00000000000E+00 -0.74331785297E+03  0.74331785297E+03  0.00000000000E+00 0. -1.
         25    2    1    2    0    0  0.48702993177E+02  0.17617042774E+03  0.16050431047E+03  0.27348657931E+03  0.12500109691E+03 0.  0.
          2    1    1    2  501    0 -0.16567257663E+02 -0.55379528131E+02 -0.66983903871E+03  0.67232856845E+03  0.00000000000E+00 0. -1.
          1    1    1    2  502    0 -0.32135735514E+02 -0.12079089961E+03  0.23235514938E+03  0.26384097932E+03  0.00000000000E+00 0. -1.
         22    1    3    3    0    0  0.10846019485E+02  0.17849301735E+03  0.15181810150E+03  0.23457648929E+03  0.00000000000E+00 0.  1.
         22    1    3    3    0    0  0.37856973692E+02 -0.23225896107E+01  0.86862089694E+01  0.38910090027E+02  0.00000000000E+00 0.  1.
</event>
<event>
 7    1  0.6255318E-006  0.4901072E+02  0.7818608E-02  0.1523443E+00
          2   -1    0    0  502    0  0.00000000000E+00  0.00000000000E+00  0.20605582669E+03  0.20605582669E+03  0.00000000000E+00 0. -1.
          1   -1    0    0  501    0 -0.00000000000E+00 -0.00000000000E+00 -0.13837450462E+04  0.13837450462E+04  0.00000000000E+00 0. -1.
         25    2    1    2    0    0  0.52993182972E+01 -0.19995396547E+02 -0.11460231141E+03  0.17081242318E+03  0.12496117587E+03 0.  0.
          2    1    1    2  501    0 -0.33767494176E+01  0.49400259125E+02 -0.12393199750E+04  0.12403087472E+04  0.00000000000E+00 0. -1.
          1    1    1    2  502    0 -0.19225688796E+01 -0.29404862578E+02  0.17623306689E+03  0.17867970248E+03  0.00000000000E+00 0. -1.
         22    1    3    3    0    0  0.28999406460E+02 -0.61595300870E+02 -0.99590539631E+02  0.12063673673E+03  0.00000000000E+00 0.  1.
         22    1    3    3    0    0 -0.23700088163E+02  0.41599904323E+02 -0.15011771776E+02  0.50175686448E+02  0.00000000000E+00 0.  1.
</event>
<event>
 7    1  0.6255318E-006  0.7143954E+02  0.7818608E-02  0.1357394E+00
          2   -1    0    0  502    0  0.00000000000E+00  0.00000000000E+00  0.15551052901E+04  0.15551052901E+04  0.00000000000E+00 0. -1.
          1   -1    0    0  501    0 -0.00000000000E+00 -0.00000000000E+00 -0.27959069274E+03  0.27959069274E+03  0.00000000000E+00 0. -1.
         25    2    1    2    0    0 -0.38025874825E+02 -0.90313749477E+02  0.40268548730E+03  0.43287679318E+03  0.12499670353E+03 0.  0.
          2    1    1    2  501    0 -0.28485902310E+02  0.64123585928E+02 -0.25869381214E+03  0.26804061136E+03  0.00000000000E+00 0. -1.
          1    1    1    2  502    0  0.66511777135E+02  0.26190163549E+02  0.11315229222E+04  0.11337785783E+04  0.00000000000E+00 0. -1.
         22    1    3    3    0    0  0.38468784279E+02 -0.63970898071E+02  0.23729352110E+03  0.24875758947E+03  0.00000000000E+00 0.  1.
         22    1    3    3    0    0 -0.76494659104E+02 -0.26342851406E+02  0.16539196620E+03  0.18411920371E+03  0.00000000000E+00 0.  1.
</event>
<event>
 7    1  0.6255318E-006  0.1289897E+03  0.7818608E-02  0.1239713E+00
          2   -1    0    0  502    0  0.00000000000E+00  0.00000000000E+00  0.21075988691E+04  0.21075988691E+04  0.00000000000E+00 0. -1.
          1   -1    0    0  501    0 -0.00000000000E+00 -0.00000000000E+00 -0.57636156589E+02  0.57636156589E+02  0.00000000000E+00 0. -1.
         25    2    1    2    0    0 -0.29176557852E+02 -0.32658517337E+02  0.44972448584E+03  0.46882250133E+03  0.12499829720E+03 0.  0.
          2    1    1    2  501    0  0.64183208063E+02 -0.11188774043E+03  0.48878322824E+02  0.13793999093E+03  0.00000000000E+00 0. -1.
          1    1    1    2  502    0 -0.35006650210E+02  0.14454625777E+03  0.15513599038E+04  0.15584725334E+04  0.00000000000E+00 0. -1.
         22    1    3    3    0    0  0.15342322215E+02 -0.61285063416E+02  0.12765151896E+03  0.14242947779E+03  0.00000000000E+00 0.  1.
         22    1    3    3    0    0 -0.44518880068E+02  0.28626546079E+02  0.32207296688E+03  0.32639302354E+03  0.00000000000E+00 0.  1.
</event>
<event>
 7    1  0.6255318E-006  0.1417878E+03  0.7818608E-02  0.1283709E+00
          2   -1    0    0  502    0  0.00000000000E+00  0.00000000000E+00  0.53737641295E+03  0.53737641295E+03  0.00000000000E+00 0. -1.
          1   -1    0    0  501    0 -0.00000000000E+00 -0.00000000000E+00 -0.48464076272E+03  0.48464076272E+03  0.00000000000E+00 0. -1.
         25    2    1    2    0    0 -0.89959622513E+02  0.61827315337E+02 -0.16601789828E+03  0.23473837984E+03  0.12499925526E+03 0.  0.
          2    1    1    2  501    0  0.15790949156E+03 -0.55106613572E+02 -0.25701180495E+03  0.30663857270E+03  0.00000000000E+00 0. -1.
          1    1    1    2  502    0 -0.67949869044E+02 -0.67207017645E+01  0.47576535346E+03  0.48064022313E+03  0.00000000000E+00 0. -1.
         22    1    3    3    0    0 -0.12100148407E+03  0.42241136262E+02 -0.11727530412E+03  0.17372152917E+03  0.00000000000E+00 0. -1.
         22    1    3    3    0    0  0.31041861559E+02  0.19586179075E+02 -0.48742594165E+02  0.61016850671E+02  0.00000000000E+00 0. -1.
</event>
<event>
 7    1  0.6255318E-006  0.4779303E+02  0.7818608E-02  0.1462019E+00
          2   -1    0    0  502    0  0.00000000000E+00  0.00000000000E+00  0.23921280274E+03  0.23921280274E+03  0.00000000000E+00 0. -1.
          1   -1    0    0  501    0 -0.00000000000E+00 -0.00000000000E+00 -0.11535512621E+04  0.11535512621E+04  0.00000000000E+00 0. -1.
         25    2    1    2    0    0  0.27113168250E+02  0.26758684649E+02 -0.53928044150E+02  0.14136643912E+03  0.12500034026E+03 0.  0.
          2    1    1    2  501    0 -0.41899824973E+02  0.19677356130E+02 -0.10523501704E+04  0.10533677776E+04  0.00000000000E+00 0. -1.
          1    1    1    2  502    0  0.14786656723E+02 -0.46436040779E+02  0.19193975523E+03  0.19802984810E+03  0.00000000000E+00 0. -1.
         22    1    3    3    0    0  0.68986389634E+02 -0.14723567445E+02 -0.19839308075E+02  0.73276896344E+02  0.00000000000E+00 0. -1.
         22    1    3    3    0    0 -0.41873221384E+02  0.41482252094E+02 -0.34088736076E+02  0.68089542773E+02  0.00000000000E+00 0. -1.
</event>
<event>
 7    1  0.6255318E-006  0.9545278E+02  0.7818608E-02  0.1291310E+00
          2   -1    0    0  502    0  0.00000000000E+00  0.00000000000E+00  0.20065310472E+04  0.20065310472E+04  0.00000000000E+00 0. -1.
          1   -1    0    0  501    0 -0.00000000000E+00 -0.00000000000E+00 -0.20296868547E+03  0.20296868547E+03  0.00000000000E+00 0. -1.
         25    2    1    2    0    0  0.87095019809E+01  0.33040907858E+02  0.12177245828E+03  0.17781760122E+03  0.12499204252E+03 0.  0.
          2    1    1    2  501    0 -0.94122870707E+02  0.15878226604E+02 -0.16051374857E+03  0.18675089384E+03  0.00000000000E+00 0. -1.
          1    1    1    2  502    0  0.85413368727E+02 -0.48919134462E+02  0.18423036520E+04  0.18449312376E+04  0.00000000000E+00 0. -1.
         22    1    3    3    0    0  0.66119586226E+02  0.89091516534E+01  0.54525288445E+02  0.86163679970E+02  0.00000000000E+00 0. -1.
         22    1    3    3    0    0 -0.57410084245E+02  0.24131756204E+02  0.67247169833E+02  0.91653921254E+02  0.00000000000E+00 0. -1.
</event>
<event>
 7    1  0.6255318E-006  0.4455467E+03  0.7818608E-02  0.1165129E+00
          2   -1    0    0  502    0  0.00000000000E+00  0.00000000000E+00  0.22756666486E+04  0.22756666486E+04  0.00000000000E+00 0. -1.
          1   -1    0    0  501    0 -0.00000000000E+00 -0.00000000000E+00 -0.82568065237E+03  0.82568065237E+03  0.00000000000E+00 0. -1.
         25    2    1    2    0    0  0.34725477652E+03 -0.19453493200E+03  0.61503794111E+03  0.74318654764E+03  0.12499942398E+03 0.  0.
          2    1    1    2  501    0 -0.36208024192E+03  0.26804747110E+03 -0.69398726988E+03  0.82738738152E+03  0.00000000000E+00 0. -1.
          1    1    1    2  502    0  0.14825465399E+02 -0.73512539101E+02  0.15289353250E+04  0.15307733718E+04  0.00000000000E+00 0. -1.
         22    1    3    3    0    0  0.33551515430E+03 -0.14522804793E+03  0.52299287173E+03  0.63810904127E+03  0.00000000000E+00 0. -1.
         22    1    3    3    0    0  0.11739622226E+02 -0.49306884074E+02  0.92045069382E+02  0.10507750637E+03  0.00000000000E+00 0. -1.
</event>
<event>
 7    1  0.6255318E-006  0.1241822E+03  0.7818608E-02  0.1289311E+00
          2   -1    0    0  502    0  0.00000000000E+00  0.00000000000E+00  0.87813406661E+03  0.87813406661E+03  0.00000000000E+00 0. -1.
          1   -1    0    0  501    0 -0.00000000000E+00 -0.00000000000E+00 -0.49751593535E+03  0.49751593535E+03  0.00000000000E+00 0. -1.
         25    2    1    2    0    0  0.55238568313E+02  0.31776552252E+01 -0.14591927099E+02  0.13747127059E+03  0.12499611586E+03 0.  0.
          2    1    1    2  501    0  0.72018758712E+02  0.16815131919E+02 -0.41310026628E+03  0.41966805963E+03  0.00000000000E+00 0. -1.
          1    1    1    2  502    0 -0.12725732702E+03 -0.19992787144E+02  0.80831032465E+03  0.81851067174E+03  0.00000000000E+00 0. -1.
         22    1    3    3    0    0  0.84555187777E+02  0.61830603061E+01  0.24746152529E+02  0.88318639481E+02  0.00000000000E+00 0. -1.
         22    1    3    3    0    0 -0.29316619464E+02 -0.30054050809E+01 -0.39338079628E+02  0.49152631113E+02  0.00000000000E+00 0. -1.
</event>
<event>
 7    1  0.6255318E-006  0.5296417E+02  0.7818608E-02  0.1498128E+00
          2   -1    0    0  502    0  0.00000000000E+00  0.00000000000E+00  0.55065152500E+03  0.55065152500E+03  0.00000000000E+00 0. -1.
          1   -1    0    0  501    0 -0.00000000000E+00 -0.00000000000E+00 -0.21255183253E+03  0.21255183253E+03  0.00000000000E+00 0. -1.
         25    2    1    2    0    0  0.26842108461E+02 -0.15090110910E+02  0.15561761754E+03  0.20195727092E+03  0.12498674391E+03 0.  0.
          2    1    1    2  501    0 -0.24896781870E+02  0.47398282237E+02 -0.18487222763E+03  0.19246866617E+03  0.00000000000E+00 0. -1.
          1    1    1    2  502    0 -0.19453265907E+01 -0.32308171326E+02  0.36735430255E+03  0.36877742045E+03  0.00000000000E+00 0. -1.
         22    1    3    3    0    0  0.12746139534E+02  0.42479927167E+02  0.13005485342E+03  0.13740914520E+03  0.00000000000E+00 0.  1.
         22    1    3    3    0    0  0.14095968928E+02 -0.57570038078E+02  0.25562764119E+02  0.64548125718E+02  0.00000000000E+00 0.  1.
</event>
<event>
 7    1  0.6255318E-006  0.4009452E+02  0.7818608E-02  0.1579231E+00
          2   -1    0    0  502    0  0.00000000000E+00  0.00000000000E+00  0.75061823039E+02  0.75061823039E+02  0.00000000000E+00 0. -1.
          1   -1    0    0  501    0 -0.00000000000E+00 -0.00000000000E+00 -0.10425897799E+04  0.10425897799E+04  0.00000000000E+00 0. -1.
         25    2    1    2    0    0  0.16566989120E+02 -0.16182405872E+02 -0.83159589194E+03  0.84125691265E+03  0.12500052080E+03 0.  0.
          2    1    1    2  501    0 -0.93136848867E+01 -0.23400647258E+02 -0.19954143703E+03  0.20112463825E+03  0.00000000000E+00 0. -1.
          1    1    1    2  502    0 -0.72533042333E+01  0.39583053130E+02  0.63609372097E+02  0.75270052052E+02  0.00000000000E+00 0. -1.
         22    1    3    3    0    0 -0.28875823426E+02 -0.58322851195E+02 -0.44022740561E+03  0.44501183895E+03  0.00000000000E+00 0.  1.
         22    1    3    3    0    0  0.45442812546E+02  0.42140445323E+02 -0.39136848633E+03  0.39624507371E+03  0.00000000000E+00 0.  1.
</event>
<event>
 7    1  0.6255318E-006  0.3777661E+02  0.7818608E-02  0.1593958E+00
          2   -1    0    0  502    0  0.00000000000E+00  0.00000000000E+00  0.20778406029E+03  0.20778406029E+03  0.00000000000E+00 0. -1.
          1   -1    0    0  501    0 -0.00000000000E+00 -0.00000000000E+00 -0.19001630236E+03  0.19001630236E+03  0.00000000000E+00 0. -1.
         25    2    1    2    0    0  0.19734943319E+02  0.14051428030E+02 -0.20449486139E+02  0.12895763320E+03  0.12499991624E+03 0.  0.
          2    1    1    2  501    0 -0.38875690084E+02  0.11242370547E+01 -0.11101197509E+03  0.11762755545E+03  0.00000000000E+00 0. -1.
          1    1    1    2  502    0  0.19140746765E+02 -0.15175665084E+02  0.14922921916E+03  0.15121517400E+03  0.00000000000E+00 0. -1.
         22    1    3    3    0    0  0.20587988254E+02  0.26381019269E+02 -0.70161008620E+02  0.77732815262E+02  0.00000000000E+00 0.  1.
         22    1    3    3    0    0 -0.85304493487E+00 -0.12329591239E+02  0.49711522481E+02  0.51224817942E+02  0.00000000000E+00 0.  1.
</event>
<event>
 7    1  0.6255318E-006  0.8628035E+02  0.7818608E-02  0.1464716E+00
          2   -1    0    0  502    0  0.00000000000E+00  0.00000000000E+00  0.13358693103E+04  0.13358693103E+04  0.00000000000E+00 0. -1.
          1   -1    0    0  501    0 -0.00000000000E+00 -0.00000000000E+00 -0.14960347570E+03  0.14960347570E+03  0.00000000000E+00 0. -1.
         25    2    1    2    0    0 -0.33491886026E+02  0.85581096344E+02  0.26183386955E+03  0.30434999351E+03  0.12500445120E+03 0.  0.
          2    1    1    2  501    0  0.52077385418E+02 -0.68642478662E+02 -0.11371531339E+03  0.14267100773E+03  0.00000000000E+00 0. -1.
          1    1    1    2  502    0 -0.18585499392E+02 -0.16938617682E+02  0.10381472784E+04  0.10384517847E+04  0.00000000000E+00 0. -1.
         22    1    3    3    0    0 -0.70207413715E+02  0.34427316219E+02  0.79760464014E+02  0.11169625178E+03  0.00000000000E+00 0.  1.
         22    1    3    3    0    0  0.36715527689E+02  0.51153780125E+02  0.18207340554E+03  0.19265374172E+03  0.00000000000E+00 0.  1.
</event>
<event>
 7    1  0.6255318E-006  0.5472697E+02  0.7818608E-02  0.1429654E+00
          2   -1    0    0  502    0  0.00000000000E+00  0.00000000000E+00  0.11079399307E+03  0.11079399307E+03  0.00000000000E+00 0. -1.
          1   -1    0    0  501    0 -0.00000000000E+00 -0.00000000000E+00 -0.28189918281E+04  0.28189918281E+04  0.00000000000E+00 0. -1.
         25    2    1    2    0    0  0.43394877165E+02  0.39630941163E+01 -0.18388713171E+04  0.18436300226E+04  0.12500047075E+03 0.  0.
          2    1    1    2  501    0 -0.13091191609E+02 -0.49689030500E+02 -0.97007834208E+03  0.97143829903E+03  0.00000000000E+00 0. -1.
          1    1    1    2  502    0 -0.30303685556E+02  0.45725936384E+02  0.10075182422E+03  0.11471749954E+03  0.00000000000E+00 0. -1.
         22    1    3    3    0    0  0.56405754091E+02  0.44996474626E+02 -0.65238390913E+03  0.65636198604E+03  0.00000000000E+00 0.  1.
         22    1    3    3    0    0 -0.13010876926E+02 -0.41033380510E+02 -0.11864874080E+04  0.11872680365E+04  0.00000000000E+00 0.  1.
</event>
<event>
 7    1  0.6255318E-006  0.2832484E+02  0.7818608E-02  0.1675242E+00
          2   -1    0    0  502    0  0.00000000000E+00  0.00000000000E+00  0.17140731231E+03  0.17140731231E+03  0.00000000000E+00 0. -1.
          1   -1    0    0  501    0 -0.00000000000E+00 -0.00000000000E+00 -0.43572788939E+03  0.43572788939E+03  0.00000000000E+00 0. -1.
         25    2    1    2    0    0  0.21884383908E+02  0.21111638192E+02  0.17067724831E+02  0.12977217784E+03  0.12499953354E+03 0.  0.
          2    1    1    2  501    0  0.65646453773E+01 -0.19311896763E+02 -0.37702094777E+03  0.37757229637E+03  0.00000000000E+00 0. -1.
          1    1    1    2  502    0 -0.28449029285E+02 -0.17997414295E+01  0.95632645863E+02  0.99790727481E+02  0.00000000000E+00 0. -1.
         22    1    3    3    0    0 -0.11944815928E+02  0.46885712963E+02  0.54669015397E+02  0.73004451591E+02  0.00000000000E+00 0. -1.
         22    1    3    3    0    0  0.33829199835E+02 -0.25774074771E+02 -0.37601290566E+02  0.56767726254E+02  0.00000000000E+00 0. -1.
</event>
<event>
 7    1  0.6255318E-006  0.9935836E+02  0.7818608E-02  0.1326094E+00
          2   -1    0    0  502    0  0.00000000000E+00  0.00000000000E+00  0.12306416562E+04  0.12306416562E+04  0.00000000000E+00 0. -1.
          1   -1    0    0  501    0 -0.00000000000E+00 -0.00000000000E+00 -0.21490766230E+03  0.21490766230E+03  0.00000000000E+00 0. -1.
         25    2    1    2    0    0  0.62092376235E+01 -0.90952023476E+02 -0.44100568164E+02  0.16085675868E+03  0.12497684384E+03 0.  0.
          2    1    1    2  501    0  0.59905885145E+02  0.91530465065E+02 -0.84638010381E+02  0.13831172731E+03  0.00000000000E+00 0. -1.
          1    1    1    2  502    0 -0.66115122769E+02 -0.57844158917E+00  0.11444725725E+04  0.11463808325E+04  0.00000000000E+00 0. -1.
         22    1    3    3    0    0  0.27134784761E+01 -0.10400701478E+03 -0.74248009525E+02  0.12781857849E+03  0.00000000000E+00 0.  1.
         22    1    3    3    0    0  0.34957591474E+01  0.13054991302E+02  0.30147441362E+02  0.33038180195E+02  0.00000000000E+00 0.  1.
</event>
<event>
 7    1  0.6255318E-006  0.1151930E+03  0.7818608E-02  0.1312465E+00
          2   -1    0    0  502    0  0.00000000000E+00  0.00000000000E+00  0.12798040025E+04  0.12798040025E+04  0.00000000000E+00 0. -1.
          1   -1    0    0  501    0 -0.00000000000E+00 -0.00000000000E+00 -0.23721339299E+03  0.23721339299E+03  0.00000000000E+00 0. -1.
         25    2    1    2    0    0 -0.61037168925E+01 -0.84222813076E+02  0.20671579404E+03  0.25590548601E+03  0.12500184264E+03 0.  0.
          2    1    1    2  501    0 -0.54977074266E+02  0.10469984975E+03 -0.19509180136E+03  0.22813449583E+03  0.00000000000E+00 0. -1.
          1    1    1    2  502    0  0.61080791158E+02 -0.20477036671E+02  0.10309666168E+04  0.10329774136E+04  0.00000000000E+00 0. -1.
         22    1    3    3    0    0 -0.13391098046E+01 -0.11547739238E+03  0.18296220908E+03  0.21636078969E+03  0.00000000000E+00 0. -1.
         22    1    3    3    0    0 -0.47646070879E+01  0.31254579304E+02  0.23753584956E+02  0.39544696312E+02  0.00000000000E+00 0. -1.
</event>
<event>
 7    1  0.6255318E-006  0.2394491E+03  0.7818608E-02  0.1198834E+00
          2   -1    0    0  502    0  0.00000000000E+00  0.00000000000E+00  0.57913772445E+03  0.57913772445E+03  0.00000000000E+00 0. -1.
          1   -1    0    0  501    0 -0.00000000000E+00 -0.00000000000E+00 -0.25672390923E+04  0.25672390923E+04  0.00000000000E+00 0. -1.
         25    2    1    2    0    0 -0.10287283066E+03 -0.18976575835E+03 -0.23019801482E+03  0.33942609919E+03  0.12500035380E+03 0.  0.
          2    1    1    2  501    0  0.79944028032E+02 -0.52522314204E+02 -0.22531275439E+04  0.22551570611E+04  0.00000000000E+00 0. -1.
          1    1    1    2  502    0  0.22928802628E+02  0.24228807256E+03  0.49522419087E+03  0.55179365647E+03  0.00000000000E+00 0. -1.
         22    1    3    3    0    0 -0.52998258700E+02 -0.97809285430E+02 -0.32729966867E+02  0.11596000376E+03  0.00000000000E+00 0. -1.
         22    1    3    3    0    0 -0.49874571960E+02 -0.91956472923E+02 -0.19746804796E+03  0.22346609543E+03  0.00000000000E+00 0. -1.
</event>
<event>
 7    1  0.6255318E-006  0.1649773E+03  0.7818608E-02  0.1321960E+00
          2   -1    0    0  502    0  0.00000000000E+00  0.00000000000E+00  0.25419435025E+02  0.25419435025E+02  0.00000000000E+00 0. -1.
          1   -1    0    0  501    0 -0.00000000000E+00 -0.00000000000E+00 -0.22681395001E+04  0.22681395001E+04  0.00000000000E+00 0. -1.
         25    2    1    2    0    0 -0.87558478417E+01  0.14123204529E+03 -0.13589668780E+04  0.13720202288E+04  0.12500150937E+03 0.  0.
          2    1    1    2  501    0 -0.31619880612E+02  0.26581067236E+02 -0.48848687078E+03  0.49023034679E+03  0.00000000000E+00 0. -1.
          1    1    1    2  502    0  0.40375728454E+02 -0.16781311252E+03 -0.39526631634E+03  0.43130835955E+03  0.00000000000E+00 0. -1.
         22    1    3    3    0    0 -0.19003492810E+02  0.15443420546E+03 -0.13256100889E+04  0.13347108917E+04  0.00000000000E+00 0.  1.
         22    1    3    3    0    0  0.10247644969E+02 -0.13202160170E+02 -0.33356789103E+02  0.37309337166E+02  0.00000000000E+00 0.  1.
</event>
<event>
 7    1  0.6255318E-006  0.9739189E+02  0.7818608E-02  0.1440645E+00
          2   -1    0    0  502    0  0.00000000000E+00  0.00000000000E+00  0.26180395507E+04  0.26180395507E+04  0.00000000000E+00 0. -1.
          1   -1    0    0  501    0 -0.00000000000E+00 -0.00000000000E+00 -0.10001405470E+03  0.10001405470E+03  0.00000000000E+00 0. -1.
         25    2    1    2    0    0  0.68825670965E+02  0.48616303751E+02  0.96777743481E+03  0.97944811823E+03  0.12499974003E+03 0.  0.
          2    1    1    2  501    0 -0.84981321749E+00  0.26568892942E+02 -0.90707593935E+02  0.94522462157E+02  0.00000000000E+00 0. -1.
          1    1    1    2  502    0 -0.67975857747E+02 -0.75185196693E+02  0.16409556552E+04  0.16440830251E+04  0.00000000000E+00 0. -1.
         22    1    3    3    0    0 -0.16811727522E+02 -0.42618728032E+00  0.18291493631E+02  0.24847425564E+02  0.00000000000E+00 0.  1.
         22    1    3    3    0    0  0.85637398487E+02  0.49042491031E+02  0.94948594118E+03  0.95460069267E+03  0.00000000000E+00 0.  1.
</event>
<event>
 7    1  0.6255318E-006  0.4791394E+02  0.7818608E-02  0.1486549E+00
          2   -1    0    0  502    0  0.00000000000E+00  0.00000000000E+00  0.23199801306E+04  0.23199801306E+04  0.00000000000E+00 0. -1.
          1   -1    0    0  501    0 -0.00000000000E+00 -0.00000000000E+00 -0.23606177656E+03  0.23606177656E+03  0.00000000000E+00 0. -1.
         25    2    1    2    0    0  0.40454931020E+02  0.55284107769E+01  0.91359177110E+03  0.92300672636E+03  0.12499731164E+03 0.  0.
          2    1    1    2  501    0 -0.24862444718E+02 -0.41028946317E+02 -0.22859578273E+03  0.23357557123E+03  0.00000000000E+00 0. -1.
          1    1    1    2  502    0 -0.15592486301E+02  0.35500535540E+02  0.13989223656E+04  0.13994596095E+04  0.00000000000E+00 0. -1.
         22    1    3    3    0    0  0.70027015820E+02  0.36237359625E+02  0.74285528711E+03  0.74702804952E+03  0.00000000000E+00 0.  1.
         22    1    3    3    0    0 -0.29572084800E+02 -0.30708948848E+02  0.17073648399E+03  0.17597867685E+03  0.00000000000E+00 0.  1.
</event>
<event>
 7    1  0.6255318E-006  0.5698797E+02  0.7818608E-02  0.1483670E+00
          2   -1    0    0  502    0  0.00000000000E+00  0.00000000000E+00  0.23885053622E+03  0.23885053622E+03  0.00000000000E+00 0. -1.
          1   -1    0    0  501    0 -0.00000000000E+00 -0.00000000000E+00 -0.10360197787E+03  0.10360197787E+03  0.00000000000E+00 0. -1.
         25    2    1    2    0    0  0.19664257293E+02 -0.33301573493E+02  0.14941560717E+03  0.19860594253E+03  0.12499447560E+03 0.  0.
          2    1    1    2  501    0 -0.52238096311E+02  0.26556604808E+02 -0.62175802153E+02  0.85439465931E+02  0.00000000000E+00 0. -1.
          1    1    1    2  502    0  0.32573839019E+02  0.67449686848E+01  0.48008753333E+02  0.58407105625E+02  0.00000000000E+00 0. -1.
         22    1    3    3    0    0 -0.41046076693E+01  0.42525488593E+02  0.21033017699E+02  0.47619878389E+02  0.00000000000E+00 0.  1.
         22    1    3    3    0    0  0.23768864962E+02 -0.75827062086E+02  0.12838258947E+03  0.15098606414E+03  0.00000000000E+00 0.  1.
</event>
<event>
 7    1  0.6255318E-006  0.1667234E+03  0.7818608E-02  0.1239757E+00
          2   -1    0    0  502    0  0.00000000000E+00  0.00000000000E+00  0.23692206672E+03  0.23692206672E+03  0.00000000000E+00 0. -1.
          1   -1    0    0  501    0 -0.00000000000E+00 -0.00000000000E+00 -0.88241316217E+03  0.88241316217E+03  0.00000000000E+00 0. -1.
         25    2    1    2    0    0  0.14688811896E+03 -0.79876233697E+02 -0.30738273609E+03  0.37157291070E+03  0.12500379720E+03 0.  0.
          2    1    1    2  501    0 -0.60798216645E+02 -0.65466300597E+02 -0.50349147757E+03  0.51135694739E+03  0.00000000000E+00 0. -1.
          1    1    1    2  502    0 -0.86089902318E+02  0.14534253429E+03  0.16538311821E+03  0.23640537080E+03  0.00000000000E+00 0. -1.
         22    1    3    3    0    0  0.14930532870E+03 -0.65020674368E+02 -0.17775320503E+03  0.24107254338E+03  0.00000000000E+00 0.  1.
         22    1    3    3    0    0 -0.24172097388E+01 -0.14855559330E+02 -0.12962953107E+03  0.13050036732E+03  0.00000000000E+00 0.  1.
</event>
<event>
 7    1  0.6255318E-006  0.1759006E+03  0.7818608E-02  0.1226094E+00
          2   -1    0    0  502    0  0.00000000000E+00  0.00000000000E+00  0.20013511234E+04  0.20013511234E+04  0.00000000000E+00 0. -1.
          1   -1    0    0  501    0 -0.00000000000E+00 -0.00000000000E+00 -0.21513471509E+03  0.21513471509E+03  0.00000000000E+00 0. -1.
         25    2    1    2    0    0  0.51961819896E+01  0.14620345563E+03  0.20562218785E+03  0.28161553011E+03  0.12499748763E+03 0.  0.
          2    1    1    2  501    0 -0.10225229014E+03 -0.15490113178E+03 -0.12674431896E+03  0.22475322880E+03  0.00000000000E+00 0. -1.
          1    1    1    2  502    0  0.97056108155E+02  0.86976761520E+01  0.17073385394E+04  0.17101170796E+04  0.00000000000E+00 0. -1.
         22    1    3    3    0    0  0.14274505212E+02  0.16785227714E+03  0.18668132030E+03  0.25145191148E+03  0.00000000000E+00 0. -1.
         22    1    3    3    0    0 -0.90783232219E+01 -0.21648821502E+02  0.18940867550E+02  0.30163618624E+02  0.00000000000E+00 0. -1.
</event>
<event>
 7    1  0.6255318E-006  0.3099188E+03  0.7818608E-02  0.1281630E+00
          2   -1    0    0  502    0  0.00000000000E+00  0.00000000000E+00  0.16542141634E+04  0.16542141634E+04  0.00000000000E+00 0. -1.
          1   -1    0    0  501    0 -0.00000000000E+00 -0.00000000000E+00 -0.16303949846E+04  0.16303949846E+04  0.00000000000E+00 0. -1.
         25    2    1    2    0    0  0.18657545986E+03  0.23313112468E+03 -0.92913304929E+03  0.98390715602E+03  0.12499817946E+03 0.  0.
          2    1    1    2  501    0 -0.21631759488E+03 -0.24455365134E+03 -0.63415829781E+03  0.71327171324E+03  0.00000000000E+00 0. -1.
          1    1    1    2  502    0  0.29742135027E+02  0.11422526651E+02  0.15871105259E+04  0.15874302788E+04  0.00000000000E+00 0. -1.
         22    1    3    3    0    0  0.14908630401E+03  0.13479617430E+03 -0.74688989369E+03  0.77346056651E+03  0.00000000000E+00 0. -1.
         22    1    3    3    0    0  0.37489155847E+02  0.98334950388E+02 -0.18224315560E+03  0.21044658951E+03  0.00000000000E+00 0. -1.
</event>
<event>
 7    1  0.6255318E-006  0.4174697E+03  0.7818608E-02  0.1087109E+00
          2   -1    0    0  502    0  0.00000000000E+00  0.00000000000E+00  0.33467260034E+03  0.33467260034E+03  0.00000000000E+00 0. -1.
          1   -1    0    0  501    0 -0.00000000000E+00 -0.00000000000E+00 -0.15892221999E+04  0.15892221999E+04  0.00000000000E+00 0. -1.
         25    2    1    2    0    0 -0.16392748071E+03 -0.20323787679E+03  0.53465508666E+02  0.29438297610E+03  0.12499969002E+03 0.  0.
          2    1    1    2  501    0  0.18616159653E+03  0.41234814719E+03 -0.13422565986E+04  0.14164532858E+04  0.00000000000E+00 0. -1.
          1    1    1    2  502    0 -0.22234115825E+02 -0.20911027040E+03  0.34241490344E+02  0.21305853833E+03  0.00000000000E+00 0. -1.
         22    1    3    3    0    0 -0.22780299453E+02 -0.12677686161E+03  0.28563390057E+02  0.13193627982E+03  0.00000000000E+00 0. -1.
         22    1    3    3    0    0 -0.14114718125E+03 -0.76461015183E+02  0.24902118609E+02  0.16244669627E+03  0.00000000000E+00 0. -1.
</event>
<event>
 7    1  0.6255318E-006  0.1704675E+03  0.7818608E-02  0.1292732E+00
          2   -1    0    0  502    0  0.00000000000E+00  0.00000000000E+00  0.17373450547E+04  0.17373450547E+04  0.00000000000E+00 0. -1.
          1   -1    0    0  501    0 -0.00000000000E+00 -0.00000000000E+00 -0.39155070562E+03  0.39155070562E+03  0.00000000000E+00 0. -1.
         25    2    1    2    0    0 -0.12061649470E+03 -0.60362809029E+02  0.64629580006E+03  0.67194891462E+03  0.12500030068E+03 0.  0.
          2    1    1    2  501    0  0.16749809248E+03  0.37454969647E+02 -0.35860231273E+03  0.39756018969E+03  0.00000000000E+00 0. -1.
          1    1    1    2  502    0 -0.46881597778E+02  0.22907839382E+02  0.10581008618E+04  0.10593866560E+04  0.00000000000E+00 0. -1.
         22    1    3    3    0    0  0.26505597246E+02 -0.90248204943E+01  0.91847933542E+02  0.96021023564E+02  0.00000000000E+00 0. -1.
         22    1    3    3    0    0 -0.14712209194E+03 -0.51337988535E+02  0.55444786652E+03  0.57592789105E+03  0.00000000000E+00 0. -1.
</event>
<event>
 7    1  0.6255318E-006  0.6397081E+02  0.7818608E-02  0.1428370E+00
          2   -1    0    0  502    0  0.00000000000E+00  0.00000000000E+00  0.29060829578E+03  0.29060829578E+03  0.00000000000E+00 0. -1.
          1   -1    0    0  501    0 -0.00000000000E+00 -0.00000000000E+00 -0.15957924126E+03  0.15957924126E+03  0.00000000000E+00 0. -1.
         25    2    1    2    0    0 -0.49805665565E+02  0.82978632137E+02 -0.40368757217E+02  0.16315438221E+03  0.12499463253E+03 0.  0.
          2    1    1    2  501    0  0.40749650364E+02 -0.39522012314E+02 -0.41013474989E+02  0.70033053573E+02  0.00000000000E+00 0. -1.
          1    1    1    2  502    0  0.90560152007E+01 -0.43456619823E+02  0.21241128673E+03  0.21700010126E+03  0.00000000000E+00 0. -1.
         22    1    3    3    0    0 -0.50095163024E+02  0.11006089529E+03 -0.83444022337E+01  0.12121285031E+03  0.00000000000E+00 0.  1.
         22    1    3    3    0    0  0.28949745887E+00 -0.27082263154E+02 -0.32024354984E+02  0.41941531904E+02  0.00000000000E+00 0.  1.
</event>
<event>
 7    1  0.6255318E-006  0.1209210E+03  0.7818608E-02  0.1256236E+00
          2   -1    0    0  502    0  0.00000000000E+00  0.00000000000E+00  0.30002448084E+03  0.30002448084E+03  0.00000000000E+00 0. -1.
          1   -1    0    0  501    0 -0.00000000000E+00 -0.00000000000E+00 -0.26282592620E+04  0.26282592620E+04  0.00000000000E+00 0. -1.
         25    2    1    2    0    0  0.96207116141E+01 -0.10626411144E+03  0.21710431342E+02  0.16577783927E+03  0.12500531866E+03 0.  0.
          2    1    1    2  501    0 -0.10395923156E+03  0.99177979320E+01 -0.25329981029E+04  0.25351499510E+04  0.00000000000E+00 0. -1.
          1    1    1    2  502    0  0.94338519943E+02  0.96346313506E+02  0.18305289044E+03  0.22735595257E+03  0.00000000000E+00 0. -1.
         22    1    3    3    0    0  0.51313019889E+01 -0.32737143563E+02 -0.51940449455E+02  0.61610560120E+02  0.00000000000E+00 0. -1.
         22    1    3    3    0    0  0.44894096251E+01 -0.73526967876E+02  0.73650880797E+02  0.10416727915E+03  0.00000000000E+00 0. -1.
</event>
<event>
 7    1  0.6255318E-006  0.8648879E+02  0.7818608E-02  0.1420993E+00
          2   -1    0    0  502    0  0.00000000000E+00  0.00000000000E+00  0.21302772228E+04  0.21302772228E+04  0.00000000000E+00 0. -1.
          1   -1    0    0  501    0 -0.00000000000E+00 -0.00000000000E+00 -0.31702447464E+03  0.31702447464E+03  0.00000000000E+00 0. -1.
         25    2    1    2    0    0  0.50171008438E+02 -0.72207436497E+02 -0.15041778174E+03  0.21443289986E+03  0.12499966201E+03 0.  0.
          2    1    1    2  501    0 -0.18316680730E+02  0.86060193943E+02 -0.12005942706E+03  0.14884933255E+03  0.00000000000E+00 0. -1.
          1    1    1    2  502    0 -0.31854327708E+02 -0.13852757445E+02  0.20837299569E+04  0.20840194650E+04  0.00000000000E+00 0. -1.
         22    1    3    3    0    0  0.75327969771E+02 -0.89560565473E+02 -0.13924859864E+03  0.18189439283E+03  0.00000000000E+00 0.  1.
         22    1    3    3    0    0 -0.25156961334E+02  0.17353128975E+02 -0.11169183103E+02  0.32538507033E+02  0.00000000000E+00 0.  1.
</event>
<event>
 7    1  0.7128145E-006  0.8840972E+02  0.7818608E-02  0.1417022E+00
          2   -1    0    0  502    0  0.00000000000E+00  0.00000000000E+00  0.10195653979E+04  0.10195653979E+04  0.00000000000E+00 0. -1.
          1   -1    0    0  501    0 -0.00000000000E+00 -0.00000000000E+00 -0.17988882545E+04  0.17988882545E+04  0.00000000000E+00 0. -1.
         25    2    1    2    0    0 -0.84155328974E+02 -0.80712614553E+02 -0.67533847008E+03  0.69663687437E+03  0.12499696002E+03 0.  0.
          2    1    1    2  501    0  0.52291652014E+02  0.66142939464E+02 -0.11109984608E+04  0.11141933787E+04  0.00000000000E+00 0. -1.
          1    1    1    2  502    0  0.31863676960E+02  0.14569675089E+02  0.10070140742E+04  0.10076233994E+04  0.00000000000E+00 0. -1.
         22    1    3    3    0    0  0.74827106951E+01 -0.56021491512E+02 -0.42799205728E+03  0.43170777102E+03  0.00000000000E+00 0. -1.
         22    1    3    3    0    0 -0.91638039669E+02 -0.24691123041E+02 -0.24734641280E+03  0.26492910334E+03  0.00000000000E+00 0. -1.
</event>
<event>
 7    1  0.6255318E-006  0.3156908E+03  0.7818608E-02  0.1268736E+00
          2   -1    0    0  502    0  0.00000000000E+00  0.00000000000E+00  0.44572226912E+03  0.44572226912E+03  0.00000000000E+00 0. -1.
          1   -1    0    0  501    0 -0.00000000000E+00 -0.00000000000E+00 -0.23765313894E+04  0.23765313894E+04  0.00000000000E+00 0. -1.
         25    2    1    2    0    0 -0.95971172119E+02  0.29267274839E+03 -0.15491950663E+04  0.15844546625E+04  0.12499368253E+03 0.  0.
          2    1    1    2  501    0  0.31223585789E+02  0.16668510386E+02 -0.75090180979E+03  0.75173551167E+03  0.00000000000E+00 0. -1.
          1    1    1    2  502    0  0.64747586330E+02 -0.30934125878E+03  0.36928775574E+03  0.48606348439E+03  0.00000000000E+00 0. -1.
         22    1    3    3    0    0 -0.68959466532E+02  0.11325919051E+03 -0.92395613065E+03  0.93342272504E+03  0.00000000000E+00 0.  1.
         22    1    3    3    0    0 -0.27011705587E+02  0.17941355788E+03 -0.62523893562E+03  0.65103193747E+03  0.00000000000E+00 0.  1.
</event>
<event>
 7    1  0.6255318E-006  0.1645095E+03  0.7818608E-02  0.1288087E+00
          2   -1    0    0  502    0  0.00000000000E+00  0.00000000000E+00  0.20432487883E+04  0.20432487883E+04  0.00000000000E+00 0. -1.
          1   -1    0    0  501    0 -0.00000000000E+00 -0.00000000000E+00 -0.50557310161E+03  0.50557310161E+03  0.00000000000E+00 0. -1.
         25    2    1    2    0    0 -0.28022031810E+01  0.12711927043E+03  0.42028778912E+03  0.45654586517E+03  0.12500056028E+03 0.  0.
          2    1    1    2  501    0  0.49972867943E+02 -0.15816669934E+03 -0.47281698560E+03  0.50106875195E+03  0.00000000000E+00 0. -1.
          1    1    1    2  502    0 -0.47170664762E+02  0.31047428907E+02  0.15902048831E+04  0.15912072727E+04  0.00000000000E+00 0. -1.
         22    1    3    3    0    0  0.13457519671E+02 -0.13446563873E+02  0.79762464449E+01  0.20628509957E+02  0.00000000000E+00 0. -1.
         22    1    3    3    0    0 -0.16259722852E+02  0.14056583430E+03  0.41231154267E+03  0.43591735522E+03  0.00000000000E+00 0. -1.
</event>
<event>
 7    1  0.6255318E-006  0.3245979E+02  0.7818608E-02  0.1574252E+00
          2   -1    0    0  502    0  0.00000000000E+00  0.00000000000E+00  0.15380928687E+04  0.15380928687E+04  0.00000000000E+00 0. -1.
          1   -1    0    0  501    0 -0.00000000000E+00 -0.00000000000E+00 -0.22788522313E+03  0.22788522313E+03  0.00000000000E+00 0. -1.
         25    2    1    2    0    0  0.20690442624E+02 -0.59316618618E+01  0.22140736000E+03  0.25516430866E+03  0.12499730526E+03 0.  0.
          2    1    1    2  501    0 -0.17790607756E+02 -0.26701251019E+02 -0.20957921823E+03  0.21202101605E+03  0.00000000000E+00 0. -1.
          1    1    1    2  502    0 -0.28998348676E+01  0.32632912881E+02  0.12983795038E+04  0.12987927671E+04  0.00000000000E+00 0. -1.
         22    1    3    3    0    0  0.23955786731E+02 -0.20904200232E+02 -0.14054266800E+01  0.31825155607E+02  0.00000000000E+00 0.  1.
         22    1    3    3    0    0 -0.32653441079E+01  0.14972538370E+02  0.22281278668E+03  0.22333915305E+03  0.00000000000E+00 0.  1.
</event>
<event>
 7    1  0.6255318E-006  0.6707649E+02  0.7818608E-02  0.1391851E+00
          2   -1    0    0  502    0  0.00000000000E+00  0.00000000000E+00  0.21879802759E+04  0.21879802759E+04  0.00000000000E+00 0. -1.
          1   -1    0    0  501    0 -0.00000000000E+00 -0.00000000000E+00 -0.10744074686E+03  0.10744074686E+03  0.00000000000E+00 0. -1.
         25    2    1    2    0    0  0.93503143011E+01 -0.12055822611E+03  0.80783542424E+02  0.19176389810E+03  0.12500279047E+03 0.  0.
          2    1    1    2  501    0 -0.15065282164E+02  0.54239855822E+02 -0.35995511389E+02  0.66817673758E+02  0.00000000000E+00 0. -1.
          1    1    1    2  502    0  0.57149678627E+01  0.66318370291E+02  0.20357514980E+04  0.20368394509E+04  0.00000000000E+00 0. -1.
         22    1    3    3    0    0  0.35034858668E+02 -0.55056336706E+02  0.99470935274E+02  0.11896683781E+03  0.00000000000E+00 0.  1.
         22    1    3    3    0    0 -0.25684544367E+02 -0.65501889408E+02 -0.18687392850E+02  0.72797060290E+02  0.00000000000E+00 0.  1.
</event>
<event>
 7    1  0.6255318E-006  0.5046079E+02  0.7818608E-02  0.1571532E+00
          2   -1    0    0  502    0  0.00000000000E+00  0.00000000000E+00  0.54365708327E+03  0.54365708327E+03  0.00000000000E+00 0. -1.
          1   -1    0    0  501    0 -0.00000000000E+00 -0.00000000000E+00 -0.55735024844E+02  0.55735024844E+02  0.00000000000E+00 0. -1.
         25    2    1    2    0    0 -0.28259854657E+02  0.21571145329E+02  0.44828500708E+03  0.46674254922E+03  0.12500090395E+03 0.  0.
          2    1    1    2  501    0  0.48462042929E+02 -0.15866225362E+02 -0.30513501492E+02  0.59425419522E+02  0.00000000000E+00 0. -1.
          1    1    1    2  502    0 -0.20202188272E+02 -0.57049199671E+01  0.70150552840E+02  0.73224139370E+02  0.00000000000E+00 0. -1.
         22    1    3    3    0    0  0.22121877398E+02  0.39741371411E+02  0.62723651176E+02  0.77479097040E+02  0.00000000000E+00 0.  1.
         22    1    3    3    0    0 -0.50381732055E+02 -0.18170226082E+02  0.38556135590E+03  0.38926345218E+03  0.00000000000E+00 0.  1.
</event>
<event>
 7    1  0.6255318E-006  0.2152668E+03  0.7818608E-02  0.1265357E+00
          2   -1    0    0  502    0  0.00000000000E+00  0.00000000000E+00  0.16174837294E+03  0.16174837294E+03  0.00000000000E+00 0. -1.
          1   -1    0    0  501    0 -0.00000000000E+00 -0.00000000000E+00 -0.96817798723E+03  0.96817798723E+03  0.00000000000E+00 0. -1.
         25    2    1    2    0    0 -0.18853177381E+02 -0.22607167954E+03 -0.39441446000E+03  0.47185979177E+03  0.12500020099E+03 0.  0.
          2    1    1    2  501    0 -0.31886036259E+02  0.20867612354E+03 -0.50688377289E+03  0.54908433147E+03  0.00000000000E+00 0. -1.
          1    1    1    2  502    0  0.50739213641E+02  0.17395555998E+02  0.94868618606E+02  0.10898223693E+03  0.00000000000E+00 0. -1.
         22    1    3    3    0    0 -0.65192096520E+02 -0.17067370139E+03 -0.31777032460E+03  0.36654808824E+03  0.00000000000E+00 0.  1.
         22    1    3    3    0    0  0.46338919139E+02 -0.55397978156E+02 -0.76644135398E+02  0.10531170354E+03  0.00000000000E+00 0.  1.
</event>
<event>
 7    1  0.6255318E-006  0.1226573E+03  0.7818608E-02  0.1298657E+00
          2   -1    0    0  502    0  0.00000000000E+00  0.00000000000E+00  0.12008372298E+04  0.12008372298E+04  0.00000000000E+00 0. -1.
          1   -1    0    0  501    0 -0.00000000000E+00 -0.00000000000E+00 -0.19704335540E+04  0.19704335540E+04  0.00000000000E+00 0. -1.
         25    2    1    2    0    0 -0.16201462552E+03  0.61675064678E+02 -0.17140869271E+03  0.27397190169E+03  0.12500844170E+03 0.  0.
          2    1    1    2  501    0  0.40120559003E+02 -0.55690965513E+02 -0.17438271402E+04  0.17451774230E+04  0.00000000000E+00 0. -1.
          1    1    1    2  502    0  0.12189406651E+03 -0.59840991650E+01  0.11456395087E+04  0.11521214592E+04  0.00000000000E+00 0. -1.
         22    1    3    3    0    0 -0.13115072206E+03  0.94507642440E+02 -0.10175805026E+03  0.19101546317E+03  0.00000000000E+00 0. -1.
         22    1    3    3    0    0 -0.30863903463E+02 -0.32832577762E+02 -0.69650642449E+02  0.82956438526E+02  0.00000000000E+00 0. -1.
</event>
<event>
 7    1  0.6255318E-006  0.9935252E+02  0.7818608E-02  0.1394701E+00
          2   -1    0    0  502    0  0.00000000000E+00  0.00000000000E+00  0.25607910015E+04  0.25607910015E+04  0.00000000000E+00 0. -1.
          1   -1    0    0  501    0 -0.00000000000E+00 -0.00000000000E+00 -0.34731044026E+04  0.34731044026E+04  0.00000000000E+00 0. -1.
         25    2    1    2    0    0  0.93219051151E+02 -0.44727874823E+02 -0.93202513566E+03  0.94603711465E+03  0.12499997810E+03 0.  0.
          2    1    1    2  501    0 -0.99299281497E+02  0.80796394111E+01 -0.25329588570E+04  0.25349173949E+04  0.00000000000E+00 0. -1.
          1    1    1    2  502    0  0.60802303465E+01  0.36648235411E+02  0.25526705915E+04  0.25529408946E+04  0.00000000000E+00 0. -1.
         22    1    3    3    0    0 -0.13511794621E+02 -0.41042842103E+02 -0.13143526712E+03  0.13835574771E+03  0.00000000000E+00 0. -1.
         22    1    3    3    0    0  0.10673084577E+03 -0.36850327192E+01 -0.80058986853E+03  0.80768136694E+03  0.00000000000E+00 0. -1.
</event>
<event>
 7    1  0.6255318E-006  0.1081279E+03  0.7818608E-02  0.1341074E+00
          2   -1    0    0  502    0  0.00000000000E+00  0.00000000000E+00  0.26515639472E+04  0.26515639472E+04  0.00000000000E+00 0. -1.
          1   -1    0    0  501    0 -0.00000000000E+00 -0.00000000000E+00 -0.23184391773E+04  0.23184391773E+04  0.00000000000E+00 0. -1.
         25    2    1    2    0    0 -0.12347228028E+03 -0.41162370942E+02  0.69413325370E+03  0.71720722055E+03  0.12500191415E+03 0.  0.
          2    1    1    2  501    0  0.10766880545E+03 -0.97333746684E+01 -0.23052703096E+04  0.23078038284E+04  0.00000000000E+00 0. -1.
          1    1    1    2  502    0  0.15803474831E+02  0.50895745611E+02  0.19442618258E+04  0.19449920755E+04  0.00000000000E+00 0. -1.
         22    1    3    3    0    0 -0.68895664737E+02 -0.17845617542E+02  0.61062065212E+03  0.61475414556E+03  0.00000000000E+00 0. -1.
         22    1    3    3    0    0 -0.54576615542E+02 -0.23316753401E+02  0.83512601577E+02  0.10245307499E+03  0.00000000000E+00 0. -1.
</event>
<event>
 7    1  0.6255318E-006  0.7084053E+02  0.7818608E-02  0.1513831E+00
          2   -1    0    0  502    0  0.00000000000E+00  0.00000000000E+00  0.63114552677E+02  0.63114552677E+02  0.00000000000E+00 0. -1.
          1   -1    0    0  501    0 -0.00000000000E+00 -0.00000000000E+00 -0.21899048783E+04  0.21899048783E+04  0.00000000000E+00 0. -1.
         25    2    1    2    0    0 -0.67998084542E+02  0.15691174164E+01 -0.60590950727E+03  0.62239693364E+03  0.12500164150E+03 0.  0.
          2    1    1    2  501    0  0.68501633769E+02  0.20168044983E+02 -0.15727552834E+04  0.15743755604E+04  0.00000000000E+00 0. -1.
          1    1    1    2  502    0 -0.50354922736E+00 -0.21737162400E+02  0.51874465021E+02  0.56246936914E+02  0.00000000000E+00 0. -1.
         22    1    3    3    0    0 -0.83316549875E+02  0.38576479888E+02 -0.29607061286E+03  0.30997999949E+03  0.00000000000E+00 0.  1.
         22    1    3    3    0    0  0.15318465333E+02 -0.37007362472E+02 -0.30983889441E+03  0.31241693416E+03  0.00000000000E+00 0.  1.
</event>
<event>
 7    1  0.6255318E-006  0.8726713E+02  0.7818608E-02  0.1448319E+00
          2   -1    0    0  502    0  0.00000000000E+00  0.00000000000E+00  0.75233386982E+03  0.75233386982E+03  0.00000000000E+00 0. -1.
          1   -1    0    0  501    0 -0.00000000000E+00 -0.00000000000E+00 -0.39388577747E+02  0.39388577747E+02  0.00000000000E+00 0. -1.
         25    2    1    2    0    0 -0.10376392830E+03  0.22197590864E+02  0.30605856621E+03  0.34721117011E+03  0.12499625930E+03 0.  0.
          2    1    1    2  501    0  0.76710577935E+02 -0.29507096782E+02  0.74452397770E+02  0.11089788574E+03  0.00000000000E+00 0. -1.
          1    1    1    2  502    0  0.27053350368E+02  0.73095059179E+01  0.33243432809E+03  0.33361339172E+03  0.00000000000E+00 0. -1.
         22    1    3    3    0    0 -0.80837639089E+02 -0.41146424334E+02  0.12838639463E+03  0.15719675077E+03  0.00000000000E+00 0.  1.
         22    1    3    3    0    0 -0.22926289214E+02  0.63344015198E+02  0.17767217159E+03  0.19001441933E+03  0.00000000000E+00 0.  1.
</event>
<event>
 7    1  0.6255318E-006  0.4569035E+02  0.7818608E-02  0.1591528E+00
          2   -1    0    0  502    0  0.00000000000E+00  0.00000000000E+00  0.42716460265E+03  0.42716460265E+03  0.00000000000E+00 0. -1.
          1   -1    0    0  501    0 -0.00000000000E+00 -0.00000000000E+00 -0.14140707641E+03  0.14140707641E+03  0.00000000000E+00 0. -1.
         25    2    1    2    0    0  0.75060947617E+01 -0.26587411920E+02  0.27976632348E+02  0.13103694009E+03  0.12499902312E+03 0.  0.
          2    1    1    2  501    0 -0.58679278103E+01 -0.19638345421E+02 -0.87144172909E+02  0.89522086994E+02  0.00000000000E+00 0. -1.
          1    1    1    2  502    0 -0.16381669514E+01  0.46225757341E+02  0.34492506679E+03  0.34801265198E+03  0.00000000000E+00 0. -1.
         22    1    3    3    0    0 -0.43104726372E+02  0.27047964897E+02 -0.31657855385E+01  0.50986586851E+02  0.00000000000E+00 0.  1.
         22    1    3    3    0    0  0.50610821134E+02 -0.53635376817E+02  0.31142417886E+02  0.80050353241E+02  0.00000000000E+00 0.  1.
</event>
<event>
 7    1  0.6255318E-006  0.1691140E+03  0.7818608E-02  0.1350916E+00
          2   -1    0    0  502    0  0.00000000000E+00  0.00000000000E+00  0.17815051525E+04  0.17815051525E+04  0.00000000000E+00 0. -1.
          1   -1    0    0  501    0 -0.00000000000E+00 -0.00000000000E+00 -0.54309926292E+03  0.54309926292E+03  0.00000000000E+00 0. -1.
         25    2    1    2    0    0  0.17859013684E+03 -0.75908739960E+02 -0.10628011788E+03  0.25411940216E+03  0.12499853327E+03 0.  0.
          2    1    1    2  501    0 -0.17624463037E+02  0.25883054096E+02 -0.35805475158E+03  0.35942142300E+03  0.00000000000E+00 0. -1.
          1    1    1    2  502    0 -0.16096567380E+03  0.50025685865E+02  0.17027407591E+04  0.17110635903E+04  0.00000000000E+00 0. -1.
         22    1    3    3    0    0 -0.17161659736E+02  0.66133097065E+01 -0.85899448405E+01  0.20298905945E+02  0.00000000000E+00 0.  1.
         22    1    3    3    0    0  0.19575179657E+03 -0.82522049667E+02 -0.97690173041E+02  0.23382049622E+03  0.00000000000E+00 0.  1.
</event>
<event>
 7    1  0.6255318E-006  0.1052709E+03  0.7818608E-02  0.1317278E+00
          2   -1    0    0  502    0  0.00000000000E+00  0.00000000000E+00  0.15957207081E+04  0.15957207081E+04  0.00000000000E+00 0. -1.
          1   -1    0    0  501    0 -0.00000000000E+00 -0.00000000000E+00 -0.56562609866E+03  0.56562609866E+03  0.00000000000E+00 0. -1.
         25    2    1    2    0    0  0.10534175531E+03 -0.11245438791E+03  0.37406537893E+03  0.42342162044E+03  0.12497234161E+03 0.  0.
          2    1    1    2  501    0 -0.39633010205E+02  0.96990468354E+02 -0.53490974788E+03  0.54507464152E+03  0.00000000000E+00 0. -1.
          1    1    1    2  502    0 -0.65708745100E+02  0.15463919557E+02  0.11909389784E+04  0.11928505448E+04  0.00000000000E+00 0. -1.
         22    1    3    3    0    0  0.40166602401E+02 -0.11679109044E+03  0.30134797753E+03  0.32567486596E+03  0.00000000000E+00 0.  1.
         22    1    3    3    0    0  0.65175152904E+02  0.43367025290E+01  0.72717401396E+02  0.97746754477E+02  0.00000000000E+00 0.  1.
</event>
<event>
 7    1  0.6255318E-006  0.1585015E+03  0.7818608E-02  0.1301478E+00
          2   -1    0    0  502    0  0.00000000000E+00  0.00000000000E+00  0.59884703672E+03  0.59884703672E+03  0.00000000000E+00 0. -1.
          1   -1    0    0  501    0 -0.00000000000E+00 -0.00000000000E+00 -0.46611177005E+03  0.46611177005E+03  0.00000000000E+00 0. -1.
         25    2    1    2    0    0  0.14896004866E+03  0.10616975834E+02  0.22418831111E+03  0.29696366266E+03  0.12500080731E+03 0.  0.
          2    1    1    2  501    0  0.12650627433E+02 -0.50182732161E+02 -0.40752864080E+03  0.41080157990E+03  0.00000000000E+00 0. -1.
          1    1    1    2  502    0 -0.16161067610E+03  0.39565756327E+02  0.31607559636E+03  0.35719356421E+03  0.00000000000E+00 0. -1.
         22    1    3    3    0    0  0.40799709116E+02 -0.18857684880E+02  0.16333740001E+03  0.16940878013E+03  0.00000000000E+00 0. -1.
         22    1    3    3    0    0  0.10816033955E+03  0.29474660714E+02  0.60850911095E+02  0.12755488253E+03  0.00000000000E+00 0. -1.
</event>
<event>
 7    1  0.6255318E-006  0.1270570E+03  0.7818608E-02  0.1397978E+00
          2   -1    0    0  502    0  0.00000000000E+00  0.00000000000E+00  0.17523035051E+04  0.17523035051E+04  0.00000000000E+00 0. -1.
          1   -1    0    0  501    0 -0.00000000000E+00 -0.00000000000E+00 -0.35260405159E+03  0.35260405159E+03  0.00000000000E+00 0. -1.
         25    2    1    2    0    0 -0.10176320450E+03  0.23074452217E+02  0.34745570686E+03  0.38371704514E+03  0.12500048947E+03 0.  0.
          2    1    1    2  501    0 -0.27918227932E+02 -0.46373883281E+01 -0.33077465911E+03  0.33198314405E+03  0.00000000000E+00 0. -1.
          1    1    1    2  502    0  0.12968143243E+03 -0.18437063889E+02  0.13830184058E+04  0.13892073675E+04  0.00000000000E+00 0. -1.
         22    1    3    3    0    0 -0.12292865608E+03  0.40463619986E+01  0.21018917952E+03  0.24353093996E+03  0.00000000000E+00 0. -1.
         22    1    3    3    0    0  0.21165451579E+02  0.19028090219E+02  0.13726652734E+03  0.14018610518E+03  0.00000000000E+00 0. -1.
</event>
<event>
 7    1  0.6255318E-006  0.6967843E+02  0.7818608E-02  0.1388675E+00
          2   -1    0    0  502    0  0.00000000000E+00  0.00000000000E+00  0.23621128341E+04  0.23621128341E+04  0.00000000000E+00 0. -1.
          1   -1    0    0  501    0 -0.00000000000E+00 -0.00000000000E+00 -0.88450899220E+03  0.88450899220E+03  0.00000000000E+00 0. -1.
         25    2    1    2    0    0 -0.53425793926E+02  0.75469204814E+02  0.19908860990E+03  0.25260957898E+03  0.12500163387E+03 0.  0.
          2    1    1    2  501    0  0.55275283505E+02 -0.59170427276E+01 -0.85628043442E+03  0.85808306750E+03  0.00000000000E+00 0. -1.
          1    1    1    2  502    0 -0.18494895789E+01 -0.69552162086E+02  0.21347956664E+04  0.21359291798E+04  0.00000000000E+00 0. -1.
         22    1    3    3    0    0  0.28197326768E+02 -0.12471967736E+02  0.69348849439E+02  0.75894019096E+02  0.00000000000E+00 0. -1.
         22    1    3    3    0    0 -0.81623120695E+02  0.87941172550E+02  0.12973976046E+03  0.17671555989E+03  0.00000000000E+00 0. -1.
</event>
<event>
 7    1  0.6255318E-006  0.2535196E+03  0.7818608E-02  0.1276271E+00
          2   -1    0    0  502    0  0.00000000000E+00  0.00000000000E+00  0.17018085823E+03  0.17018085823E+03  0.00000000000E+00 0. -1.
          1   -1    0    0  501    0 -0.00000000000E+00 -0.00000000000E+00 -0.13035468808E+04  0.13035468808E+04  0.00000000000E+00 0. -1.
         25    2    1    2    0    0  0.13763819814E+03 -0.18422233092E+03 -0.17804640540E+03  0.31655615895E+03  0.12500055398E+03 0.  0.
          2    1    1    2  501    0 -0.12976559960E+03  0.22444815054E+03 -0.10353167399E+04  0.10672847956E+04  0.00000000000E+00 0. -1.
          1    1    1    2  502    0 -0.78725985346E+01 -0.40225819628E+02  0.79997122721E+02  0.89886784435E+02  0.00000000000E+00 0. -1.
         22    1    3    3    0    0 -0.12778383051E+02  0.96785555612E+01 -0.14783766091E+02  0.21806449756E+02  0.00000000000E+00 0.  1.
         22    1    3    3    0    0  0.15041658119E+03 -0.19390088648E+03 -0.16326263931E+03  0.29474970919E+03  0.00000000000E+00 0.  1.
</event>
<event>
 7    1  0.6255318E-006  0.1127226E+03  0.7818608E-02  0.1388963E+00
          2   -1    0    0  502    0  0.00000000000E+00  0.00000000000E+00  0.92454417770E+03  0.92454417770E+03  0.00000000000E+00 0. -1.
          1   -1    0    0  501    0 -0.00000000000E+00 -0.00000000000E+00 -0.10976575344E+03  0.10976575344E+03  0.00000000000E+00 0. -1.
         25    2    1    2    0    0 -0.38877880611E+02 -0.73201963503E+02  0.44220920948E+03  0.46695208229E+03  0.12500098054E+03 0.  0.
          2    1    1    2  501    0  0.41110825555E+02  0.10741263759E+03 -0.62529650446E+02  0.13091039637E+03  0.00000000000E+00 0. -1.
          1    1    1    2  502    0 -0.22329449438E+01 -0.34210674089E+02  0.43509886522E+03  0.43644745249E+03  0.00000000000E+00 0. -1.
         22    1    3    3    0    0 -0.44400742245E+02 -0.95158632857E+02  0.22200112901E+03  0.24558316840E+03  0.00000000000E+00 0.  1.
         22    1    3    3    0    0  0.55228616338E+01  0.21956669354E+02  0.22020808047E+03  0.22136891388E+03  0.00000000000E+00 0.  1.
</event>
<event>
 7    1  0.6255318E-006  0.8545402E+02  0.7818608E-02  0.1402757E+00
          2   -1    0    0  502    0  0.00000000000E+00  0.00000000000E+00  0.13506220607E+04  0.13506220607E+04  0.00000000000E+00 0. -1.
          1   -1    0    0  501    0 -0.00000000000E+00 -0.00000000000E+00 -0.14546454038E+04  0.14546454038E+04  0.00000000000E+00 0. -1.
         25    2    1    2    0    0  0.72873581885E+02  0.80968893299E+02 -0.29495536322E+02  0.16840766431E+03  0.12499853646E+03 0.  0.
          2    1    1    2  501    0 -0.40459214028E+02 -0.21684187395E+01 -0.13539737006E+04  0.13545797990E+04  0.00000000000E+00 0. -1.
          1    1    1    2  502    0 -0.32414367857E+02 -0.78800474559E+02  0.12794458938E+04  0.12822800011E+04  0.00000000000E+00 0. -1.
         22    1    3    3    0    0 -0.28084074005E+02  0.31680467120E+02 -0.36422283775E+02  0.55847560063E+02  0.00000000000E+00 0. -1.
         22    1    3    3    0    0  0.10095765589E+03  0.49288426179E+02  0.69267474526E+01  0.11256010425E+03  0.00000000000E+00 0. -1.
</event>
<event>
 7    1  0.6255318E-006  0.7135716E+02  0.7818608E-02  0.1398024E+00
          2   -1    0    0  502    0  0.00000000000E+00  0.00000000000E+00  0.31899661824E+02  0.31899661824E+02  0.00000000000E+00 0. -1.
          1   -1    0    0  501    0 -0.00000000000E+00 -0.00000000000E+00 -0.16192936119E+04  0.16192936119E+04  0.00000000000E+00 0. -1.
         25    2    1    2    0    0  0.10542299739E+03  0.45872895723E+02 -0.37802557670E+03  0.41443976696E+03  0.12505459950E+03 0.  0.
          2    1    1    2  501    0 -0.68003909870E+02 -0.12149303745E+02 -0.11719971513E+04  0.11740312858E+04  0.00000000000E+00 0. -1.
          1    1    1    2  502    0 -0.37419087525E+02 -0.33723591978E+02 -0.37371222109E+02  0.62722221014E+02  0.00000000000E+00 0. -1.
         22    1    3    3    0    0  0.68479037659E+02  0.89206710752E+02 -0.26515655505E+03  0.28801946900E+03  0.00000000000E+00 0. -1.
         22    1    3    3    0    0  0.36943959735E+02 -0.43333815030E+02 -0.11286902166E+03  0.12642029796E+03  0.00000000000E+00 0. -1.
</event>
<event>
 7    1  0.6255318E-006  0.1244613E+03  0.7818608E-02  0.1434117E+00
          2   -1    0    0  502    0  0.00000000000E+00  0.00000000000E+00  0.27952122940E+03  0.27952122940E+03  0.00000000000E+00 0. -1.
          1   -1    0    0  501    0 -0.00000000000E+00 -0.00000000000E+00 -0.44283906421E+03  0.44283906421E+03  0.00000000000E+00 0. -1.
         25    2    1    2    0    0 -0.56697638669E+01 -0.10715771469E+03 -0.29245205232E+03  0.33566065912E+03  0.12499981253E+03 0.  0.
          2    1    1    2  501    0  0.12397185678E+02 -0.17986245538E+02 -0.11244512895E+03  0.11454738000E+03  0.00000000000E+00 0. -1.
          1    1    1    2  502    0 -0.67274218107E+01  0.12514396023E+03  0.24157934646E+03  0.27215225448E+03  0.00000000000E+00 0. -1.
         22    1    3    3    0    0  0.26912550046E+01 -0.12701547952E+03 -0.17502235695E+03  0.21627066450E+03  0.00000000000E+00 0. -1.
         22    1    3    3    0    0 -0.83610188715E+01  0.19857764825E+02 -0.11742969538E+03  0.11938999462E+03  0.00000000000E+00 0. -1.
</event>
<event>
 7    1  0.6255318E-006  0.1618472E+03  0.7818608E-02  0.1363540E+00
          2   -1    0    0  502    0  0.00000000000E+00  0.00000000000E+00  0.15754960350E+04  0.15754960350E+04  0.00000000000E+00 0. -1.
          1   -1    0    0  501    0 -0.00000000000E+00 -0.00000000000E+00 -0.15564452472E+03  0.15564452472E+03  0.00000000000E+00 0. -1.
         25    2    1    2    0    0 -0.51790986488E+02 -0.17859742148E+03  0.44573504451E+03  0.49888225274E+03  0.12499770780E+03 0.  0.
          2    1    1    2  501    0  0.33072140082E+02  0.15590913862E+03 -0.79586820764E+02  0.17814457049E+03  0.00000000000E+00 0. -1.
          1    1    1    2  502    0  0.18718846406E+02  0.22688282856E+02  0.10537032865E+04  0.10541137364E+04  0.00000000000E+00 0. -1.
         22    1    3    3    0    0 -0.72180599098E+02 -0.15912219096E+03  0.27485692407E+03  0.32569347438E+03  0.00000000000E+00 0. -1.
         22    1    3    3    0    0  0.20389612610E+02 -0.19475230514E+02  0.17087812044E+03  0.17318877836E+03  0.00000000000E+00 0. -1.
</event>
<event>
 7    1  0.6255318E-006  0.9477874E+02  0.7818608E-02  0.1307686E+00
          2   -1    0    0  502    0  0.00000000000E+00  0.00000000000E+00  0.99151079929E+03  0.99151079929E+03  0.00000000000E+00 0. -1.
          1   -1    0    0  501    0 -0.00000000000E+00 -0.00000000000E+00 -0.18447131810E+03  0.18447131810E+03  0.00000000000E+00 0. -1.
         25    2    1    2    0    0 -0.84771804754E+02  0.12995041451E+03  0.74670156651E+02  0.21278009575E+03  0.12500547083E+03 0.  0.
          2    1    1    2  501    0  0.74097962339E+02 -0.48882852978E+02 -0.96031849155E+02  0.13077521703E+03  0.00000000000E+00 0. -1.
          1    1    1    2  502    0  0.10673842416E+02 -0.81067561536E+02  0.82840117369E+03  0.83242680460E+03  0.00000000000E+00 0. -1.
         22    1    3    3    0    0 -0.15027797946E+02 -0.24976571611E+02  0.76374562524E+01  0.30132948388E+02  0.00000000000E+00 0.  1.
         22    1    3    3    0    0 -0.69744006808E+02  0.15492698612E+03  0.67032700399E+02  0.18264714736E+03  0.00000000000E+00 0.  1.
</event>
<event>
 7    1  0.6255318E-006  0.8298529E+02  0.7818608E-02  0.1367737E+00
          2   -1    0    0  502    0  0.00000000000E+00  0.00000000000E+00  0.65176695718E+03  0.65176695718E+03  0.00000000000E+00 0. -1.
          1   -1    0    0  501    0 -0.00000000000E+00 -0.00000000000E+00 -0.28885393225E+03  0.28885393225E+03  0.00000000000E+00 0. -1.
         25    2    1    2    0    0  0.72164792487E+02  0.33075310319E+02  0.12272167698E+03  0.19231991260E+03  0.12499842140E+03 0.  0.
          2    1    1    2  501    0 -0.81093840111E+02  0.21594447221E+02 -0.24550714382E+03  0.25945382773E+03  0.00000000000E+00 0. -1.
          1    1    1    2  502    0  0.89290476245E+01 -0.54669757540E+02  0.48569849177E+03  0.48884714911E+03  0.00000000000E+00 0. -1.
         22    1    3    3    0    0  0.77497391049E+02  0.49536125523E+02  0.14023106206E+03  0.16770338136E+03  0.00000000000E+00 0.  1.
         22    1    3    3    0    0 -0.53325985624E+01 -0.16460815204E+02 -0.17509385078E+02  0.24616531243E+02  0.00000000000E+00 0.  1.
</event>
<event>
 7    1  0.6255318E-006  0.1082885E+03  0.7818608E-02  0.1425669E+00
          2   -1    0    0  502    0  0.00000000000E+00  0.00000000000E+00  0.67898919330E+03  0.67898919330E+03  0.00000000000E+00 0. -1.
          1   -1    0    0  501    0 -0.00000000000E+00 -0.00000000000E+00 -0.10337422650E+04  0.10337422650E+04  0.00000000000E+00 0. -1.
         25    2    1    2    0    0 -0.72395929163E+02  0.11320797058E+03 -0.26776660926E+03  0.32462397539E+03  0.12499821280E+03 0.  0.
          2    1    1    2  501    0  0.17244911349E+02 -0.20472972914E+02 -0.73282732364E+03  0.73331604092E+03  0.00000000000E+00 0. -1.
          1    1    1    2  502    0  0.55151017814E+02 -0.92734997666E+02  0.64584086118E+03  0.65479144201E+03  0.00000000000E+00 0. -1.
         22    1    3    3    0    0 -0.41183253443E+02 -0.13185494690E+02 -0.12069204979E+03  0.12820486932E+03  0.00000000000E+00 0.  1.
         22    1    3    3    0    0 -0.31212675720E+02  0.12639346527E+03 -0.14707455947E+03  0.19641910607E+03  0.00000000000E+00 0.  1.
</event>
<event>
 7    1  0.6255318E-006  0.1042482E+03  0.7818608E-02  0.1327690E+00
          2   -1    0    0  502    0  0.00000000000E+00  0.00000000000E+00  0.36706380754E+03  0.36706380754E+03  0.00000000000E+00 0. -1.
          1   -1    0    0  501    0 -0.00000000000E+00 -0.00000000000E+00 -0.47414209986E+03  0.47414209986E+03  0.00000000000E+00 0. -1.
         25    2    1    2    0    0 -0.12309910274E+02  0.97524367200E+02  0.17057778367E+03  0.23320489958E+03  0.12500083527E+03 0.  0.
          2    1    1    2  501    0  0.61849177587E+02  0.59379456549E+01 -0.42034923253E+03  0.42491652975E+03  0.00000000000E+00 0. -1.
          1    1    1    2  502    0 -0.49539267312E+02 -0.10346231286E+03  0.14269315655E+03  0.18308447808E+03  0.00000000000E+00 0. -1.
         22    1    3    3    0    0  0.39880240707E+02 -0.85105925275E+01  0.40992482386E+02  0.57820821477E+02  0.00000000000E+00 0. -1.
         22    1    3    3    0    0 -0.52190150982E+02  0.10603495973E+03  0.12958530128E+03  0.17538407810E+03  0.00000000000E+00 0. -1.
</event>
<event>
 7    1  0.6255318E-006  0.1626901E+03  0.7818608E-02  0.1305056E+00
          2   -1    0    0  502    0  0.00000000000E+00  0.00000000000E+00  0.86061056207E+03  0.86061056207E+03  0.00000000000E+00 0. -1.
          1   -1    0    0  501    0 -0.00000000000E+00 -0.00000000000E+00 -0.29324249178E+03  0.29324249178E+03  0.00000000000E+00 0. -1.
         25    2    1    2    0    0 -0.18271918272E+03  0.93973341602E+02  0.16957928732E+03  0.29427663323E+03  0.12499725401E+03 0.  0.
          2    1    1    2  501    0  0.14409369820E+03 -0.64161076357E+02 -0.20285023313E+03  0.25695885792E+03  0.00000000000E+00 0. -1.
          1    1    1    2  502    0  0.38625484520E+02 -0.29812265245E+02  0.60063901610E+03  0.60261756270E+03  0.00000000000E+00 0. -1.
         22    1    3    3    0    0 -0.28560008158E+02  0.21719306946E+02  0.10705346484E+03  0.11290636250E+03  0.00000000000E+00 0. -1.
         22    1    3    3    0    0 -0.15415917457E+03  0.72254034656E+02  0.62525822488E+02  0.18137027073E+03  0.00000000000E+00 0. -1.
</event>
<event>
 7    1  0.6255318E-006  0.9962699E+02  0.7818608E-02  0.1450377E+00
          2   -1    0    0  502    0  0.00000000000E+00  0.00000000000E+00  0.53078442802E+03  0.53078442802E+03  0.00000000000E+00 0. -1.
          1   -1    0    0  501    0 -0.00000000000E+00 -0.00000000000E+00 -0.12794753816E+04  0.12794753816E+04  0.00000000000E+00 0. -1.
         25    2    1    2    0    0  0.30353883424E+01 -0.99672086217E+02  0.73363208186E+02  0.17592977627E+03  0.12500155003E+03 0.  0.
          2    1    1    2  501    0  0.21037182275E+02  0.97426966036E+02 -0.12258076962E+04  0.12298532778E+04  0.00000000000E+00 0. -1.
          1    1    1    2  502    0 -0.24072570617E+02  0.22451201816E+01  0.40375353445E+03  0.40447675558E+03  0.00000000000E+00 0. -1.
         22    1    3    3    0    0 -0.20030038831E+02 -0.34287879989E+02  0.95272778835E+02  0.10321707008E+03  0.00000000000E+00 0.  1.
         22    1    3    3    0    0  0.23065427174E+02 -0.65384206228E+02 -0.21909570649E+02  0.72712706185E+02  0.00000000000E+00 0.  1.
</event>
<event>
 7    1  0.6255318E-006  0.9000289E+02  0.7818608E-02  0.1330277E+00
          2   -1    0    0  502    0  0.00000000000E+00  0.00000000000E+00  0.31384279843E+03  0.31384279843E+03  0.00000000000E+00 0. -1.
          1   -1    0    0  501    0 -0.00000000000E+00 -0.00000000000E+00 -0.47842741146E+03  0.47842741146E+03  0.00000000000E+00 0. -1.
         25    2    1    2    0    0  0.44683609018E+02 -0.11748534359E+01  0.11740807773E+03  0.17722252129E+03  0.12500064056E+03 0.  0.
          2    1    1    2  501    0 -0.59757134206E+02  0.69887054978E+02 -0.43607633267E+03  0.44566543893E+03  0.00000000000E+00 0. -1.
          1    1    1    2  502    0  0.15073525188E+02 -0.68712201542E+02  0.15408364190E+03  0.16938224967E+03  0.00000000000E+00 0. -1.
         22    1    3    3    0    0  0.56973360961E+02 -0.46270180693E+02  0.32435034740E+02  0.80242912205E+02  0.00000000000E+00 0.  1.
         22    1    3    3    0    0 -0.12289751943E+02  0.45095327257E+02  0.84973042992E+02  0.96979609087E+02  0.00000000000E+00 0.  1.
</event>
<event>
 7    1  0.6255318E-006  0.1222662E+03  0.7818608E-02  0.1361058E+00
          2   -1    0    0  502    0  0.00000000000E+00  0.00000000000E+00  0.30972441981E+03  0.30972441981E+03  0.00000000000E+00 0. -1.
          1   -1    0    0  501    0 -0.00000000000E+00 -0.00000000000E+00 -0.14090340768E+03  0.14090340768E+03  0.00000000000E+00 0. -1.
         25    2    1    2    0    0  0.10943665765E+03 -0.69556888770E+02  0.22304265600E+02  0.18148332098E+03  0.12499669082E+03 0.  0.
          2    1    1    2  501    0 -0.31654593858E+02 -0.24047922176E+02 -0.33405862110E+02  0.51925595776E+02  0.00000000000E+00 0. -1.
          1    1    1    2  502    0 -0.77782063794E+02  0.93604810946E+02  0.17992260864E+03  0.21721891074E+03  0.00000000000E+00 0. -1.
         22    1    3    3    0    0  0.10095891240E+03  0.29878193540E+01  0.35893914760E+02  0.10719142771E+03  0.00000000000E+00 0.  1.
         22    1    3    3    0    0  0.84777452512E+01 -0.72544708124E+02 -0.13589649160E+02  0.74291893270E+02  0.00000000000E+00 0.  1.
</event>
<event>
 7    1  0.6255318E-006  0.5268153E+02  0.7818608E-02  0.1438668E+00
          2   -1    0    0  502    0  0.00000000000E+00  0.00000000000E+00  0.19656897254E+04  0.19656897254E+04  0.00000000000E+00 0. -1.
          1   -1    0    0  501    0 -0.00000000000E+00 -0.00000000000E+00 -0.44559195961E+02  0.44559195961E+02  0.00000000000E+00 0. -1.
         25    2    1    2    0    0 -0.73353498340E+02 -0.11959918637E+01  0.13136544432E+04  0.13216258391E+04  0.12499878473E+03 0.  0.
          2    1    1    2  501    0  0.36394949148E+02 -0.34100968474E+02 -0.23813675008E+02  0.55268069368E+02  0.00000000000E+00 0. -1.
          1    1    1    2  502    0  0.36958549192E+02  0.35296960337E+02  0.63128976118E+03  0.63335501288E+03  0.00000000000E+00 0. -1.
         22    1    3    3    0    0  0.14678815830E+02 -0.43054160169E+02  0.32300556636E+03  0.32619277160E+03  0.00000000000E+00 0.  1.
         22    1    3    3    0    0 -0.88032314170E+02  0.41858168306E+02  0.99064887686E+03  0.99543306748E+03  0.00000000000E+00 0.  1.
</event>
<event>
 7    1  0.6255318E-006  0.7786417E+02  0.7818608E-02  0.1457161E+00
          2   -1    0    0  502    0  0.00000000000E+00  0.00000000000E+00  0.76690645334E+03  0.76690645334E+03  0.00000000000E+00 0. -1.
          1   -1    0    0  501    0 -0.00000000000E+00 -0.00000000000E+00 -0.14833050251E+04  0.14833050251E+04  0.00000000000E+00 0. -1.
         25    2    1    2    0    0  0.18486288360E+02 -0.59129952711E+02  0.14582864130E+03  0.20181455661E+03  0.12500011388E+03 0.  0.
          2    1    1    2  501    0  0.42119524680E+01  0.77869376925E+02 -0.14539012744E+04  0.14559911731E+04  0.00000000000E+00 0. -1.
          1    1    1    2  502    0 -0.22698240828E+02 -0.18739424213E+02  0.59167406139E+03  0.59240574869E+03  0.00000000000E+00 0. -1.
         22    1    3    3    0    0 -0.91639871466E+01  0.37385992848E+02  0.32193937266E+02  0.50181079286E+02  0.00000000000E+00 0. -1.
         22    1    3    3    0    0  0.27650275506E+02 -0.96515945559E+02  0.11363470404E+03  0.15163347732E+03  0.00000000000E+00 0. -1.
</event>
