<event>
 7    1  0.6140348E-006  0.1011184E+03  0.7818608E-02  0.1392825E+00
          2   -1    0    0  502    0  0.00000000000E+00  0.00000000000E+00  0.17929732046E+04  0.17929732046E+04  0.00000000000E+00 0. -1.
          1   -1    0    0  501    0 -0.00000000000E+00 -0.00000000000E+00 -0.96887420851E+02  0.96887420851E+02  0.00000000000E+00 0. -1.
         25    2    1    2    0    0 -0.54062149341E+02 -0.11979897985E+03  0.78630649730E+03  0.80695588806E+03  0.12500154404E+03 0.  0.
          2    1    1    2  501    0  0.17667221441E+02  0.32568165276E+02 -0.80241229473E+02  0.88382526611E+02  0.00000000000E+00 0. -1.
          1    1    1    2  502    0  0.36394927900E+02  0.87230814577E+02  0.99002051597E+03  0.99452221083E+03  0.00000000000E+00 0. -1.
         22    1    3    3    0    0 -0.22446457492E+02  0.47516701698E+01  0.38269607458E+03  0.38338323819E+03  0.00000000000E+00 0.  1.
         22    1    3    3    0    0 -0.31615691848E+02 -0.12455065002E+03  0.40361042272E+03  0.42357264987E+03  0.00000000000E+00 0.  1.
</event>
<event>
 7    1  0.6140348E-006  0.7506339E+02  0.7818608E-02  0.1400243E+00
          2   -1    0    0  502    0  0.00000000000E+00  0.00000000000E+00  0.11181363561E+03  0.11181363561E+03  0.00000000000E+00 0. -1.
          1   -1    0    0  501    0 -0.00000000000E+00 -0.00000000000E+00 -0.34976248926E+03  0.34976248926E+03  0.00000000000E+00 0. -1.
         25    2    1    2    0    0 -0.72558304794E+02 -0.88328165611E+02 -0.14898026121E+03  0.22558328956E+03  0.12500451938E+03 0.  0.
          2    1    1    2  501    0  0.16462782407E+02  0.44077249453E+02 -0.14032445359E+03  0.14800263308E+03  0.00000000000E+00 0. -1.
          1    1    1    2  502    0  0.56095522388E+02  0.44250916158E+02  0.51355861148E+02  0.87990202222E+02  0.00000000000E+00 0. -1.
         22    1    3    3    0    0 -0.10467698482E+03 -0.58348187231E+02 -0.13250397044E+03  0.17865912875E+03  0.00000000000E+00 0.  1.
         22    1    3    3    0    0  0.32118680023E+02 -0.29979978381E+02 -0.16476290767E+02  0.46924160808E+02  0.00000000000E+00 0.  1.
</event>
<event>
 7    1  0.6140348E-006  0.1042153E+03  0.7818608E-02  0.1296598E+00
          2   -1    0    0  502    0  0.00000000000E+00  0.00000000000E+00  0.33405901115E+03  0.33405901115E+03  0.00000000000E+00 0. -1.
          1   -1    0    0  501    0 -0.00000000000E+00 -0.00000000000E+00 -0.14618905523E+04  0.14618905523E+04  0.00000000000E+00 0. -1.
         25    2    1    2    0    0  0.99665629481E+02  0.13915411113E+03 -0.18538939563E+03  0.28158473087E+03  0.12499451308E+03 0.  0.
          2    1    1    2  501    0 -0.83157245074E+02 -0.58488213380E+02 -0.12203185834E+04  0.12245462195E+04  0.00000000000E+00 0. -1.
          1    1    1    2  502    0 -0.16508384407E+02 -0.80665897749E+02  0.27787643787E+03  0.28981861317E+03  0.00000000000E+00 0. -1.
         22    1    3    3    0    0  0.60155331824E+02  0.11958422956E+03 -0.19493557125E+03  0.23647183521E+03  0.00000000000E+00 0. -1.
         22    1    3    3    0    0  0.39510297657E+02  0.19569881566E+02  0.95461756256E+01  0.45112895656E+02  0.00000000000E+00 0. -1.
</event>
<event>
 7    1  0.6140348E-006  0.6469724E+02  0.7818608E-02  0.1488426E+00
          2   -1    0    0  502    0  0.00000000000E+00  0.00000000000E+00  0.88072978290E+03  0.88072978290E+03  0.00000000000E+00 0. -1.
          1   -1    0    0  501    0 -0.00000000000E+00 -0.00000000000E+00 -0.25881854297E+03  0.25881854297E+03  0.00000000000E+00 0. -1.
         25    2    1    2    0    0 -0.39400837096E+02  0.49659084179E+01  0.40997307215E+03  0.43044096645E+03  0.12499767799E+03 0.  0.
          2    1    1    2  501    0  0.64425674895E+02  0.83369897234E+01 -0.24389277196E+03  0.25239623056E+03  0.00000000000E+00 0. -1.
          1    1    1    2  502    0 -0.25024837799E+02 -0.13302898141E+02  0.45583093974E+03  0.45671112887E+03  0.00000000000E+00 0. -1.
         22    1    3    3    0    0  0.19983566211E+02 -0.44421310944E+02  0.10356126235E+03  0.11444444436E+03  0.00000000000E+00 0.  1.
         22    1    3    3    0    0 -0.59384403307E+02  0.49387219362E+02  0.30641180980E+03  0.31599652209E+03  0.00000000000E+00 0.  1.
</event>
<event>
 7    1  0.6140348E-006  0.5427073E+02  0.7818608E-02  0.1528993E+00
          2   -1    0    0  502    0  0.00000000000E+00  0.00000000000E+00  0.65667799146E+03  0.65667799146E+03  0.00000000000E+00 0. -1.
          1   -1    0    0  501    0 -0.00000000000E+00 -0.00000000000E+00 -0.38223298868E+03  0.38223298868E+03  0.00000000000E+00 0. -1.
         25    2    1    2    0    0  0.32920082490E+02 -0.50331232673E+02 -0.55456997472E+02  0.14938975496E+03  0.12499942202E+03 0.  0.
          2    1    1    2  501    0  0.13317973891E+02  0.21921699708E+02 -0.27801049259E+03  0.27919126658E+03  0.00000000000E+00 0. -1.
          1    1    1    2  502    0 -0.46238056381E+02  0.28409532965E+02  0.60791249284E+03  0.61032995860E+03  0.00000000000E+00 0. -1.
         22    1    3    3    0    0  0.25662906807E+02 -0.23821197746E+02 -0.94991675393E+02  0.10123958041E+03  0.00000000000E+00 0. -1.
         22    1    3    3    0    0  0.72571756825E+01 -0.26510034927E+02  0.39534677921E+02  0.48150174549E+02  0.00000000000E+00 0. -1.
</event>
<event>
 7    1  0.6140348E-006  0.1345524E+03  0.7818608E-02  0.1288923E+00
          2   -1    0    0  502    0  0.00000000000E+00  0.00000000000E+00  0.15116220556E+04  0.15116220556E+04  0.00000000000E+00 0. -1.
          1   -1    0    0  501    0 -0.00000000000E+00 -0.00000000000E+00 -0.20964419540E+03  0.20964419540E+03  0.00000000000E+00 0. -1.
         25    2    1    2    0    0  0.23024679889E+02  0.66686306298E+02  0.54915949380E+03  0.56760735213E+03  0.12499902892E+03 0.  0.
          2    1    1    2  501    0 -0.24018665736E+02 -0.13518342727E+03 -0.17549424807E+03  0.22282209589E+03  0.00000000000E+00 0. -1.
          1    1    1    2  502    0  0.99398584731E+00  0.68497120973E+02  0.92831261449E+03  0.93083680300E+03  0.00000000000E+00 0. -1.
         22    1    3    3    0    0  0.64611768758E+02  0.28009441355E+02  0.42852635482E+03  0.43427416023E+03  0.00000000000E+00 0. -1.
         22    1    3    3    0    0 -0.41587088869E+02  0.38676864943E+02  0.12063313898E+03  0.13333319190E+03  0.00000000000E+00 0. -1.
</event>
<event>
 7    1  0.6140348E-006  0.5015022E+02  0.7818608E-02  0.1541678E+00
          2   -1    0    0  502    0  0.00000000000E+00  0.00000000000E+00  0.68125697972E+03  0.68125697972E+03  0.00000000000E+00 0. -1.
          1   -1    0    0  501    0 -0.00000000000E+00 -0.00000000000E+00 -0.43366582160E+02  0.43366582160E+02  0.00000000000E+00 0. -1.
         25    2    1    2    0    0 -0.46066396588E+02 -0.58745660218E+02  0.15073790303E+03  0.20956848059E+03  0.12499546856E+03 0.  0.
          2    1    1    2  501    0  0.15250897130E+02  0.20492403418E+02  0.11314969703E+00  0.25544887238E+02  0.00000000000E+00 0. -1.
          1    1    1    2  502    0  0.30815499457E+02  0.38253256800E+02  0.48703934484E+03  0.48951019405E+03  0.00000000000E+00 0. -1.
         22    1    3    3    0    0 -0.18449914438E+02 -0.38676001573E+02 -0.11021417713E+02  0.44245949971E+02  0.00000000000E+00 0.  1.
         22    1    3    3    0    0 -0.27616482150E+02 -0.20069658645E+02  0.16175932074E+03  0.16532253062E+03  0.00000000000E+00 0.  1.
</event>
<event>
 7    1  0.6140348E-006  0.5040018E+02  0.7818608E-02  0.1533095E+00
          2   -1    0    0  502    0  0.00000000000E+00  0.00000000000E+00  0.11928139813E+04  0.11928139813E+04  0.00000000000E+00 0. -1.
          1   -1    0    0  501    0 -0.00000000000E+00 -0.00000000000E+00 -0.93278292256E+02  0.93278292256E+02  0.00000000000E+00 0. -1.
         25    2    1    2    0    0 -0.29034392431E+02 -0.90474806144E+01  0.23966616362E+03  0.27201202744E+03  0.12500328091E+03 0.  0.
          2    1    1    2  501    0 -0.92404881099E+01 -0.25245637076E+02 -0.74033936314E+02  0.78763903776E+02  0.00000000000E+00 0. -1.
          1    1    1    2  502    0  0.38274880541E+02  0.34293117690E+02  0.93390346174E+03  0.93531634234E+03  0.00000000000E+00 0. -1.
         22    1    3    3    0    0  0.23081736620E+02  0.29481106315E+02  0.18021445585E+03  0.18406290308E+03  0.00000000000E+00 0. -1.
         22    1    3    3    0    0 -0.52116129051E+02 -0.38528586929E+02  0.59451707771E+02  0.87949124356E+02  0.00000000000E+00 0. -1.
</event>
<event>
 7    1  0.6140348E-006  0.4688842E+02  0.7818608E-02  0.1469762E+00
          2   -1    0    0  502    0  0.00000000000E+00  0.00000000000E+00  0.14571755692E+03  0.14571755692E+03  0.00000000000E+00 0. -1.
          1   -1    0    0  501    0 -0.00000000000E+00 -0.00000000000E+00 -0.13298423673E+03  0.13298423673E+03  0.00000000000E+00 0. -1.
         25    2    1    2    0    0  0.13163681182E+02 -0.43013030190E+01  0.40634365647E+01  0.12582918352E+03  0.12499875278E+03 0.  0.
          2    1    1    2  501    0 -0.23082385430E+02  0.47808460551E+02 -0.54139331260E+02  0.75825540596E+02  0.00000000000E+00 0. -1.
          1    1    1    2  502    0  0.99187042477E+01 -0.43507157532E+02  0.62809214886E+02  0.77047069542E+02  0.00000000000E+00 0. -1.
         22    1    3    3    0    0  0.45154531647E+02 -0.56748731304E+01  0.51417636018E+02  0.68665196476E+02  0.00000000000E+00 0. -1.
         22    1    3    3    0    0 -0.31990850465E+02  0.13735701114E+01 -0.47354199454E+02  0.57163987039E+02  0.00000000000E+00 0. -1.
</event>
<event>
 7    1  0.6140348E-006  0.6313126E+02  0.7818608E-02  0.1410688E+00
          2   -1    0    0  502    0  0.00000000000E+00  0.00000000000E+00  0.56778685644E+03  0.56778685644E+03  0.00000000000E+00 0. -1.
          1   -1    0    0  501    0 -0.00000000000E+00 -0.00000000000E+00 -0.23208313199E+03  0.23208313199E+03  0.00000000000E+00 0. -1.
         25    2    1    2    0    0  0.20197582995E+01  0.25582671541E+02 -0.14397800128E+03  0.19238799202E+03  0.12499968846E+03 0.  0.
          2    1    1    2  501    0  0.50468219927E+02  0.10443370333E+02 -0.51288384535E+02  0.72709033790E+02  0.00000000000E+00 0. -1.
          1    1    1    2  502    0 -0.52487978226E+02 -0.36026041875E+02  0.53097011026E+03  0.53477296261E+03  0.00000000000E+00 0. -1.
         22    1    3    3    0    0 -0.32285368737E+02 -0.72475216748E+01  0.72558821700E+01  0.33875056176E+02  0.00000000000E+00 0. -1.
         22    1    3    3    0    0  0.34305127036E+02  0.32830193216E+02 -0.15123388345E+03  0.15851293584E+03  0.00000000000E+00 0. -1.
</event>
<event>
 7    1  0.6140348E-006  0.7288526E+02  0.7818608E-02  0.1508344E+00
          2   -1    0    0  502    0  0.00000000000E+00  0.00000000000E+00  0.21023946038E+03  0.21023946038E+03  0.00000000000E+00 0. -1.
          1   -1    0    0  501    0 -0.00000000000E+00 -0.00000000000E+00 -0.11485717169E+04  0.11485717169E+04  0.00000000000E+00 0. -1.
         25    2    1    2    0    0 -0.53706162415E+02 -0.24358884103E-01 -0.88455380243E+03  0.89495633818E+03  0.12500826123E+03 0.  0.
          2    1    1    2  501    0 -0.18317889599E+02 -0.12062108976E+02 -0.25182172230E+03  0.25277503708E+03  0.00000000000E+00 0. -1.
          1    1    1    2  502    0  0.72024052014E+02  0.12086467860E+02  0.19804326816E+03  0.21107980206E+03  0.00000000000E+00 0. -1.
         22    1    3    3    0    0  0.11099712266E+02  0.37948623794E+02 -0.11227583271E+03  0.11903429872E+03  0.00000000000E+00 0.  1.
         22    1    3    3    0    0 -0.64805874681E+02 -0.37972982678E+02 -0.77227796972E+03  0.77592203946E+03  0.00000000000E+00 0.  1.
</event>
<event>
 7    1  0.6140348E-006  0.7885526E+02  0.7818608E-02  0.1333279E+00
          2   -1    0    0  502    0  0.00000000000E+00  0.00000000000E+00  0.44007473195E+03  0.44007473195E+03  0.00000000000E+00 0. -1.
          1   -1    0    0  501    0 -0.00000000000E+00 -0.00000000000E+00 -0.99960939698E+03  0.99960939698E+03  0.00000000000E+00 0. -1.
         25    2    1    2    0    0  0.19555151938E+02  0.29108020690E+02 -0.20861567552E+03  0.24571439948E+03  0.12500154080E+03 0.  0.
          2    1    1    2  501    0  0.43247034344E+02 -0.75709179539E+02 -0.76632367998E+03  0.77126789662E+03  0.00000000000E+00 0. -1.
          1    1    1    2  502    0 -0.62802186282E+02  0.46601158849E+02  0.41540469048E+03  0.42270183283E+03  0.00000000000E+00 0. -1.
         22    1    3    3    0    0  0.25380658179E+02  0.76126188169E+02 -0.15207276499E+03  0.17194621306E+03  0.00000000000E+00 0. -1.
         22    1    3    3    0    0 -0.58255062406E+01 -0.47018167479E+02 -0.56542910536E+02  0.73768186421E+02  0.00000000000E+00 0. -1.
</event>
<event>
 7    1  0.6140348E-006  0.8895301E+02  0.7818608E-02  0.1329597E+00
          2   -1    0    0  502    0  0.00000000000E+00  0.00000000000E+00  0.54355085512E+03  0.54355085512E+03  0.00000000000E+00 0. -1.
          1   -1    0    0  501    0 -0.00000000000E+00 -0.00000000000E+00 -0.19960983400E+03  0.19960983400E+03  0.00000000000E+00 0. -1.
         25    2    1    2    0    0 -0.10826522414E+03  0.53945857283E+02  0.56807372595E+01  0.17404251982E+03  0.12500805436E+03 0.  0.
          2    1    1    2  501    0  0.40295530415E+02 -0.76466288362E+02 -0.95894075618E+02  0.12909878685E+03  0.00000000000E+00 0. -1.
          1    1    1    2  502    0  0.67969693721E+02  0.22520431078E+02  0.43415435948E+03  0.44001938245E+03  0.00000000000E+00 0. -1.
         22    1    3    3    0    0 -0.88222992246E+02  0.73082305772E+02 -0.39381786910E+02  0.12114142528E+03  0.00000000000E+00 0.  1.
         22    1    3    3    0    0 -0.20042231890E+02 -0.19136448488E+02  0.45062524170E+02  0.52901094548E+02  0.00000000000E+00 0.  1.
</event>
<event>
 7    1  0.6140348E-006  0.1141727E+03  0.7818608E-02  0.1373333E+00
          2   -1    0    0  502    0  0.00000000000E+00  0.00000000000E+00  0.56411235117E+03  0.56411235117E+03  0.00000000000E+00 0. -1.
          1   -1    0    0  501    0 -0.00000000000E+00 -0.00000000000E+00 -0.92022805191E+02  0.92022805191E+02  0.00000000000E+00 0. -1.
         25    2    1    2    0    0  0.98319832092E+02  0.89738217636E+02  0.88080736537E+02  0.20273794181E+03  0.12499887924E+03 0.  0.
          2    1    1    2  501    0 -0.38129192968E+02  0.48892833312E+01 -0.13211891816E+02  0.40648425962E+02  0.00000000000E+00 0. -1.
          1    1    1    2  502    0 -0.60190639125E+02 -0.94627500968E+02  0.39722070126E+03  0.41274878859E+03  0.00000000000E+00 0. -1.
         22    1    3    3    0    0  0.39731385672E+02  0.90933953031E+02  0.10220937157E+03  0.14245814283E+03  0.00000000000E+00 0.  1.
         22    1    3    3    0    0  0.58588446420E+02 -0.11957353947E+01 -0.14128635031E+02  0.60279798979E+02  0.00000000000E+00 0.  1.
</event>
<event>
 7    1  0.6140348E-006  0.4698479E+02  0.7818608E-02  0.1498566E+00
          2   -1    0    0  502    0  0.00000000000E+00  0.00000000000E+00  0.29617302741E+03  0.29617302741E+03  0.00000000000E+00 0. -1.
          1   -1    0    0  501    0 -0.00000000000E+00 -0.00000000000E+00 -0.96297622078E+03  0.96297622078E+03  0.00000000000E+00 0. -1.
         25    2    1    2    0    0 -0.67452719309E+02 -0.36519697265E+02  0.47586039136E+02  0.15421146965E+03  0.12503275020E+03 0.  0.
          2    1    1    2  501    0  0.22467036790E+02  0.28608390688E+02 -0.90662279412E+03  0.90735224614E+03  0.00000000000E+00 0. -1.
          1    1    1    2  502    0  0.44985682518E+02  0.79113065767E+01  0.19223356161E+03  0.19758553239E+03  0.00000000000E+00 0. -1.
         22    1    3    3    0    0 -0.83830924232E+02 -0.15833124595E+02 -0.14697350621E+02  0.86569762661E+02  0.00000000000E+00 0.  1.
         22    1    3    3    0    0  0.16378204923E+02 -0.20686572670E+02  0.62283389757E+02  0.67641706993E+02  0.00000000000E+00 0.  1.
</event>
<event>
 7    1  0.6140348E-006  0.8569913E+02  0.7818608E-02  0.1459958E+00
          2   -1    0    0  502    0  0.00000000000E+00  0.00000000000E+00  0.62996825897E+02  0.62996825897E+02  0.00000000000E+00 0. -1.
          1   -1    0    0  501    0 -0.00000000000E+00 -0.00000000000E+00 -0.95668003727E+03  0.95668003727E+03  0.00000000000E+00 0. -1.
         25    2    1    2    0    0  0.72907267561E+02  0.15677519208E+02 -0.76607121491E+03  0.77977684251E+03  0.12500225410E+03 0.  0.
          2    1    1    2  501    0  0.13129363663E+02 -0.22677780040E+02 -0.14874032903E+03  0.15103094841E+03  0.00000000000E+00 0. -1.
          1    1    1    2  502    0 -0.86036631225E+02  0.70002608318E+01  0.21128332570E+02  0.88869072243E+02  0.00000000000E+00 0. -1.
         22    1    3    3    0    0 -0.12784898192E+02  0.66004469217E+01 -0.49775354142E+03  0.49796145184E+03  0.00000000000E+00 0.  1.
         22    1    3    3    0    0  0.85692165753E+02  0.90770722866E+01 -0.26831767350E+03  0.28181539068E+03  0.00000000000E+00 0.  1.
</event>
<event>
 7    1  0.6140348E-006  0.8000061E+02  0.7818608E-02  0.1402429E+00
          2   -1    0    0  502    0  0.00000000000E+00  0.00000000000E+00  0.29116763786E+04  0.29116763786E+04  0.00000000000E+00 0. -1.
          1   -1    0    0  501    0 -0.00000000000E+00 -0.00000000000E+00 -0.41258564390E+03  0.41258564390E+03  0.00000000000E+00 0. -1.
         25    2    1    2    0    0 -0.55255836692E+02  0.55485953570E+02  0.24951189063E+03  0.28984915583E+03  0.12499780415E+03 0.  0.
          2    1    1    2  501    0 -0.22946159245E+02 -0.36827858734E+02 -0.39060373114E+03  0.39300647855E+03  0.00000000000E+00 0. -1.
          1    1    1    2  502    0  0.78201995937E+02 -0.18658094836E+02  0.26401825752E+04  0.26414063881E+04  0.00000000000E+00 0. -1.
         22    1    3    3    0    0  0.20605969427E+01 -0.36030685539E+02  0.38240884609E+02  0.52581571067E+02  0.00000000000E+00 0. -1.
         22    1    3    3    0    0 -0.57316433635E+02  0.91516639109E+02  0.21127100602E+03  0.23726758477E+03  0.00000000000E+00 0. -1.
</event>
<event>
 7    1  0.6140348E-006  0.1193431E+03  0.7818608E-02  0.1312058E+00
          2   -1    0    0  502    0  0.00000000000E+00  0.00000000000E+00  0.24583850894E+04  0.24583850894E+04  0.00000000000E+00 0. -1.
          1   -1    0    0  501    0 -0.00000000000E+00 -0.00000000000E+00 -0.37585154683E+03  0.37585154683E+03  0.00000000000E+00 0. -1.
         25    2    1    2    0    0 -0.33198569343E+02 -0.15273625947E+03  0.22514104036E+03  0.30123869094E+03  0.12500300357E+03 0.  0.
          2    1    1    2  501    0  0.51061323630E+02  0.35887490912E+02 -0.33331294756E+03  0.33910572361E+03  0.00000000000E+00 0. -1.
          1    1    1    2  502    0 -0.17862754287E+02  0.11684876855E+03  0.21907054497E+04  0.21938922217E+04  0.00000000000E+00 0. -1.
         22    1    3    3    0    0 -0.24360471952E+02 -0.10179088926E+03  0.45186022334E+02  0.11400260674E+03  0.00000000000E+00 0. -1.
         22    1    3    3    0    0 -0.88380973905E+01 -0.50945370206E+02  0.17995501802E+03  0.18723608419E+03  0.00000000000E+00 0. -1.
</event>
<event>
 7    1  0.6140348E-006  0.3008354E+03  0.7818608E-02  0.1167690E+00
          2   -1    0    0  502    0  0.00000000000E+00  0.00000000000E+00  0.15160408307E+04  0.15160408307E+04  0.00000000000E+00 0. -1.
          1   -1    0    0  501    0 -0.00000000000E+00 -0.00000000000E+00 -0.34000409735E+03  0.34000409735E+03  0.00000000000E+00 0. -1.
         25    2    1    2    0    0  0.22542861258E+03  0.27384179790E+02  0.38416815345E+03  0.46344206418E+03  0.12500169620E+03 0.  0.
          2    1    1    2  501    0 -0.29769173200E+03 -0.10743161000E+03 -0.21330851646E+03  0.38165749216E+03  0.00000000000E+00 0. -1.
          1    1    1    2  502    0  0.72263119426E+02  0.80047430207E+02  0.10051770964E+04  0.10109453717E+04  0.00000000000E+00 0. -1.
         22    1    3    3    0    0  0.12275699654E+03  0.76484001710E+02  0.19708551596E+03  0.24446223291E+03  0.00000000000E+00 0. -1.
         22    1    3    3    0    0  0.10267161604E+03 -0.49099821920E+02  0.18708263750E+03  0.21897983127E+03  0.00000000000E+00 0. -1.
</event>
<event>
 7    1  0.6140348E-006  0.1273047E+03  0.7818608E-02  0.1351954E+00
          2   -1    0    0  502    0  0.00000000000E+00  0.00000000000E+00  0.26596899968E+03  0.26596899968E+03  0.00000000000E+00 0. -1.
          1   -1    0    0  501    0 -0.00000000000E+00 -0.00000000000E+00 -0.63439043623E+03  0.63439043623E+03  0.00000000000E+00 0. -1.
         25    2    1    2    0    0 -0.11723624616E+03 -0.20818379336E+02 -0.49229470364E+02  0.17951903624E+03  0.12500320511E+03 0.  0.
          2    1    1    2  501    0  0.12758868663E+03 -0.19092624099E+02 -0.50977616640E+03  0.52584707005E+03  0.00000000000E+00 0. -1.
          1    1    1    2  502    0 -0.10352440468E+02  0.39911003435E+02  0.19058420022E+03  0.19499332961E+03  0.00000000000E+00 0. -1.
         22    1    3    3    0    0 -0.56465233163E+02  0.52331299934E+02 -0.14915197758E+02  0.78417795385E+02  0.00000000000E+00 0. -1.
         22    1    3    3    0    0 -0.60771013001E+02 -0.73149679270E+02 -0.34314272606E+02  0.10110124086E+03  0.00000000000E+00 0. -1.
</event>
<event>
 7    1  0.6140348E-006  0.1174709E+03  0.7818608E-02  0.1400614E+00
          2   -1    0    0  502    0  0.00000000000E+00  0.00000000000E+00  0.20671502513E+04  0.20671502513E+04  0.00000000000E+00 0. -1.
          1   -1    0    0  501    0 -0.00000000000E+00 -0.00000000000E+00 -0.20676901690E+04  0.20676901690E+04  0.00000000000E+00 0. -1.
         25    2    1    2    0    0 -0.11427661412E+03  0.29505671070E+02  0.20636719144E+03  0.26859339562E+03  0.12500106123E+03 0.  0.
          2    1    1    2  501    0  0.11463142636E+02  0.27699140788E+02 -0.20345750755E+04  0.20347959072E+04  0.00000000000E+00 0. -1.
          1    1    1    2  502    0  0.10281347149E+03 -0.57204811858E+02  0.18276679664E+04  0.18314511175E+04  0.00000000000E+00 0. -1.
         22    1    3    3    0    0  0.25469245767E+02  0.85052225839E+01  0.56792380649E+02  0.62820345358E+02  0.00000000000E+00 0.  1.
         22    1    3    3    0    0 -0.13974585989E+03  0.21000448486E+02  0.14957481079E+03  0.20577305026E+03  0.00000000000E+00 0.  1.
</event>
<event>
 7    1  0.6140348E-006  0.9736300E+02  0.7818608E-02  0.1341905E+00
          2   -1    0    0  502    0  0.00000000000E+00  0.00000000000E+00  0.79356374561E+03  0.79356374561E+03  0.00000000000E+00 0. -1.
          1   -1    0    0  501    0 -0.00000000000E+00 -0.00000000000E+00 -0.14745226099E+04  0.14745226099E+04  0.00000000000E+00 0. -1.
         25    2    1    2    0    0  0.25082968084E+02  0.14448507702E+03  0.15559976117E+03  0.24767242444E+03  0.12500100553E+03 0.  0.
          2    1    1    2  501    0 -0.40986660707E+02 -0.87916640749E+02 -0.14253754676E+04  0.14286722738E+04  0.00000000000E+00 0. -1.
          1    1    1    2  502    0  0.15903692623E+02 -0.56568436266E+02  0.58881684215E+03  0.59174165733E+03  0.00000000000E+00 0. -1.
         22    1    3    3    0    0 -0.15934030554E+02 -0.40166412785E+01 -0.11753424355E+02  0.20203210659E+02  0.00000000000E+00 0.  1.
         22    1    3    3    0    0  0.41016998638E+02  0.14850171829E+03  0.16735318552E+03  0.22746921378E+03  0.00000000000E+00 0.  1.
</event>
<event>
 7    1  0.6140348E-006  0.2786989E+02  0.7818608E-02  0.1634901E+00
          2   -1    0    0  502    0  0.00000000000E+00  0.00000000000E+00  0.31847471478E+03  0.31847471478E+03  0.00000000000E+00 0. -1.
          1   -1    0    0  501    0 -0.00000000000E+00 -0.00000000000E+00 -0.15743710787E+03  0.15743710787E+03  0.00000000000E+00 0. -1.
         25    2    1    2    0    0 -0.88438683013E+01  0.18290318471E+02  0.26067277231E+02  0.12929599340E+03  0.12500080484E+03 0.  0.
          2    1    1    2  501    0 -0.19307254611E+02 -0.17408790963E+02 -0.10338438339E+03  0.10660284617E+03  0.00000000000E+00 0. -1.
          1    1    1    2  502    0  0.28151122912E+02 -0.88152750767E+00  0.23835471306E+03  0.24001298309E+03  0.00000000000E+00 0. -1.
         22    1    3    3    0    0  0.36083407790E+02  0.24709280379E+02  0.58842891283E+02  0.73314710046E+02  0.00000000000E+00 0. -1.
         22    1    3    3    0    0 -0.44927276092E+02 -0.64189619083E+01 -0.32775614052E+02  0.55981283350E+02  0.00000000000E+00 0. -1.
</event>
<event>
 7    1  0.6140348E-006  0.1274273E+03  0.7818608E-02  0.1376496E+00
          2   -1    0    0  502    0  0.00000000000E+00  0.00000000000E+00  0.54429825451E+03  0.54429825451E+03  0.00000000000E+00 0. -1.
          1   -1    0    0  501    0 -0.00000000000E+00 -0.00000000000E+00 -0.96774385850E+03  0.96774385850E+03  0.00000000000E+00 0. -1.
         25    2    1    2    0    0  0.92277467106E+02  0.12000352802E+03 -0.16487508733E+03  0.25636890733E+03  0.12500097819E+03 0.  0.
          2    1    1    2  501    0 -0.32483478382E+02 -0.84291863067E+01 -0.74870457017E+03  0.74945631023E+03  0.00000000000E+00 0. -1.
          1    1    1    2  502    0 -0.59793988724E+02 -0.11157434171E+03  0.49013405352E+03  0.50621689544E+03  0.00000000000E+00 0. -1.
         22    1    3    3    0    0  0.11671005829E+03  0.98022790635E+02 -0.96196159972E+02  0.18023153549E+03  0.00000000000E+00 0. -1.
         22    1    3    3    0    0 -0.24432591184E+02  0.21980737386E+02 -0.68678927360E+02  0.76137371844E+02  0.00000000000E+00 0. -1.
</event>
<event>
 7    1  0.6140348E-006  0.1974306E+03  0.7818608E-02  0.1279687E+00
          2   -1    0    0  502    0  0.00000000000E+00  0.00000000000E+00  0.21907413199E+04  0.21907413199E+04  0.00000000000E+00 0. -1.
          1   -1    0    0  501    0 -0.00000000000E+00 -0.00000000000E+00 -0.74870332815E+03  0.74870332815E+03  0.00000000000E+00 0. -1.
         25    2    1    2    0    0  0.13370121017E+03 -0.85324717770E+02  0.45583391984E+03  0.49856412477E+03  0.12500121185E+03 0.  0.
          2    1    1    2  501    0 -0.18369114943E+03  0.75505418638E+02 -0.71339193968E+03  0.74052114502E+03  0.00000000000E+00 0. -1.
          1    1    1    2  502    0  0.49989939263E+02  0.98192991323E+01  0.16995960116E+04  0.17003593783E+04  0.00000000000E+00 0. -1.
         22    1    3    3    0    0 -0.23634093423E+02 -0.35999599868E+01  0.41538920480E+02  0.47927153039E+02  0.00000000000E+00 0.  1.
         22    1    3    3    0    0  0.15733530359E+03 -0.81724757783E+02  0.41429499937E+03  0.45063697173E+03  0.00000000000E+00 0.  1.
</event>
<event>
 7    1  0.6140348E-006  0.7455385E+02  0.7818608E-02  0.1391643E+00
          2   -1    0    0  502    0  0.00000000000E+00  0.00000000000E+00  0.27825185033E+03  0.27825185033E+03  0.00000000000E+00 0. -1.
          1   -1    0    0  501    0 -0.00000000000E+00 -0.00000000000E+00 -0.11474990878E+04  0.11474990878E+04  0.00000000000E+00 0. -1.
         25    2    1    2    0    0  0.96955834440E+02 -0.50295882939E+02 -0.33961006875E+03  0.37800656093E+03  0.12499540647E+03 0.  0.
          2    1    1    2  501    0 -0.46467437765E+02  0.55258138231E+02 -0.78453344791E+03  0.78784859936E+03  0.00000000000E+00 0. -1.
          1    1    1    2  502    0 -0.50488396675E+02 -0.49622552920E+01  0.25489627921E+03  0.25989577782E+03  0.00000000000E+00 0. -1.
         22    1    3    3    0    0 -0.29122939508E+02 -0.91728597757E+01 -0.39695080272E+02  0.50079799919E+02  0.00000000000E+00 0.  1.
         22    1    3    3    0    0  0.12607877395E+03 -0.41123023164E+02 -0.29991498848E+03  0.32792676101E+03  0.00000000000E+00 0.  1.
</event>
<event>
 7    1  0.6140348E-006  0.3268802E+02  0.7818608E-02  0.1652826E+00
          2   -1    0    0  502    0  0.00000000000E+00  0.00000000000E+00  0.12522001639E+04  0.12522001639E+04  0.00000000000E+00 0. -1.
          1   -1    0    0  501    0 -0.00000000000E+00 -0.00000000000E+00 -0.22752095983E+03  0.22752095983E+03  0.00000000000E+00 0. -1.
         25    2    1    2    0    0 -0.37940715667E+02  0.22955360105E+02  0.10097626161E+04  0.10184356248E+04  0.12499653775E+03 0.  0.
          2    1    1    2  501    0  0.19932198842E+02  0.18253124656E+01 -0.22174655000E+03  0.22264805580E+03  0.00000000000E+00 0. -1.
          1    1    1    2  502    0  0.18008516825E+02 -0.24780672570E+02  0.23666313791E+03  0.23863744311E+03  0.00000000000E+00 0. -1.
         22    1    3    3    0    0 -0.55488497387E+02  0.13088189159E+01  0.18367281875E+03  0.19187597738E+03  0.00000000000E+00 0. -1.
         22    1    3    3    0    0  0.17547781720E+02  0.21646541189E+02  0.82608979737E+03  0.82655964740E+03  0.00000000000E+00 0. -1.
</event>
<event>
 7    1  0.6140348E-006  0.7956465E+02  0.7818608E-02  0.1447247E+00
          2   -1    0    0  502    0  0.00000000000E+00  0.00000000000E+00  0.15953202635E+04  0.15953202635E+04  0.00000000000E+00 0. -1.
          1   -1    0    0  501    0 -0.00000000000E+00 -0.00000000000E+00 -0.10047181220E+04  0.10047181220E+04  0.00000000000E+00 0. -1.
         25    2    1    2    0    0  0.68441585486E+02 -0.25566435399E+02  0.48303094689E+03  0.50426370596E+03  0.12500038503E+03 0.  0.
          2    1    1    2  501    0  0.12685466377E+02  0.28264383677E+02 -0.99236447972E+03  0.99284795263E+03  0.00000000000E+00 0. -1.
          1    1    1    2  502    0 -0.81127051863E+02 -0.26979482779E+01  0.10999356743E+04  0.11029267270E+04  0.00000000000E+00 0. -1.
         22    1    3    3    0    0  0.48918485200E+02  0.34382571507E+01  0.45952330979E+03  0.46213256978E+03  0.00000000000E+00 0.  1.
         22    1    3    3    0    0  0.19523100286E+02 -0.29004692549E+02  0.23507637098E+02  0.42131136189E+02  0.00000000000E+00 0.  1.
</event>
<event>
 7    1  0.6140348E-006  0.7927072E+02  0.7818608E-02  0.1363632E+00
          2   -1    0    0  502    0  0.00000000000E+00  0.00000000000E+00  0.17524118845E+03  0.17524118845E+03  0.00000000000E+00 0. -1.
          1   -1    0    0  501    0 -0.00000000000E+00 -0.00000000000E+00 -0.88251820991E+03  0.88251820991E+03  0.00000000000E+00 0. -1.
         25    2    1    2    0    0 -0.65701372883E+02 -0.80078023987E+02 -0.27843438929E+03  0.32230415770E+03  0.12500040242E+03 0.  0.
          2    1    1    2  501    0  0.75487675059E+02  0.20873845974E+02 -0.57351153838E+03  0.57883468382E+03  0.00000000000E+00 0. -1.
          1    1    1    2  502    0 -0.97863021754E+01  0.59204178013E+02  0.14466890621E+03  0.15662055685E+03  0.00000000000E+00 0. -1.
         22    1    3    3    0    0 -0.59617748157E+02 -0.16256924499E+02 -0.23939698814E+03  0.24724376922E+03  0.00000000000E+00 0.  1.
         22    1    3    3    0    0 -0.60836247265E+01 -0.63821099488E+02 -0.39037401154E+02  0.75060388478E+02  0.00000000000E+00 0.  1.
</event>
<event>
 7    1  0.6140348E-006  0.1152710E+03  0.7818608E-02  0.1344074E+00
          2   -1    0    0  502    0  0.00000000000E+00  0.00000000000E+00  0.11620212544E+04  0.11620212544E+04  0.00000000000E+00 0. -1.
          1   -1    0    0  501    0 -0.00000000000E+00 -0.00000000000E+00 -0.30695933905E+03  0.30695933905E+03  0.00000000000E+00 0. -1.
         25    2    1    2    0    0 -0.13350077629E+03  0.48984834375E+02 -0.29749751839E+02  0.19165159369E+03  0.12499325726E+03 0.  0.
          2    1    1    2  501    0  0.43431537486E+02  0.22060307398E+02 -0.19013625811E+03  0.19627723317E+03  0.00000000000E+00 0. -1.
          1    1    1    2  502    0  0.90069238801E+02 -0.71045141773E+02  0.10749479253E+04  0.10810517665E+04  0.00000000000E+00 0. -1.
         22    1    3    3    0    0 -0.32825598580E+02  0.10969009441E+02  0.47794627652E+02  0.59009876484E+02  0.00000000000E+00 0.  1.
         22    1    3    3    0    0 -0.10067517771E+03  0.38015824934E+02 -0.77544379491E+02  0.13264171720E+03  0.00000000000E+00 0.  1.
</event>
<event>
 7    1  0.6140348E-006  0.4341935E+02  0.7818608E-02  0.1593009E+00
          2   -1    0    0  502    0  0.00000000000E+00  0.00000000000E+00  0.39062200683E+03  0.39062200683E+03  0.00000000000E+00 0. -1.
          1   -1    0    0  501    0 -0.00000000000E+00 -0.00000000000E+00 -0.75077436419E+03  0.75077436419E+03  0.00000000000E+00 0. -1.
         25    2    1    2    0    0 -0.29428188245E+02 -0.35826793168E+02  0.23896129631E+03  0.27363559174E+03  0.12499743422E+03 0.  0.
          2    1    1    2  501    0 -0.10684489328E+02  0.18513181173E+02 -0.72972398219E+03  0.73003697603E+03  0.00000000000E+00 0. -1.
          1    1    1    2  502    0  0.40112677573E+02  0.17313611995E+02  0.13061032853E+03  0.13772380324E+03  0.00000000000E+00 0. -1.
         22    1    3    3    0    0 -0.10997033029E+02  0.28239953270E+02  0.54464630316E+01  0.30791129497E+02  0.00000000000E+00 0.  1.
         22    1    3    3    0    0 -0.18431155216E+02 -0.64066746439E+02  0.23351483328E+03  0.24284446225E+03  0.00000000000E+00 0.  1.
</event>
<event>
 7    1  0.6140348E-006  0.2099818E+03  0.7818608E-02  0.1273833E+00
          2   -1    0    0  502    0  0.00000000000E+00  0.00000000000E+00  0.26001463783E+03  0.26001463783E+03  0.00000000000E+00 0. -1.
          1   -1    0    0  501    0 -0.00000000000E+00 -0.00000000000E+00 -0.15924287790E+04  0.15924287790E+04  0.00000000000E+00 0. -1.
         25    2    1    2    0    0 -0.96511734478E+02 -0.22607037278E+03 -0.17076379676E+03  0.32435738143E+03  0.12500043305E+03 0.  0.
          2    1    1    2  501    0  0.39094924003E+02  0.32216284899E+02 -0.12884432289E+04  0.12894387369E+04  0.00000000000E+00 0. -1.
          1    1    1    2  502    0  0.57416810475E+02  0.19385408788E+03  0.12679288451E+03  0.23864729849E+03  0.00000000000E+00 0. -1.
         22    1    3    3    0    0 -0.12554374200E+03 -0.20030579747E+03 -0.15360069304E+03  0.28191632901E+03  0.00000000000E+00 0.  1.
         22    1    3    3    0    0  0.29032007522E+02 -0.25764575305E+02 -0.17163103717E+02  0.42441052421E+02  0.00000000000E+00 0.  1.
</event>
<event>
 7    1  0.6140348E-006  0.1144458E+03  0.7818608E-02  0.1269787E+00
          2   -1    0    0  502    0  0.00000000000E+00  0.00000000000E+00  0.20622214431E+04  0.20622214431E+04  0.00000000000E+00 0. -1.
          1   -1    0    0  501    0 -0.00000000000E+00 -0.00000000000E+00 -0.10780651888E+03  0.10780651888E+03  0.00000000000E+00 0. -1.
         25    2    1    2    0    0  0.40751792420E+02  0.11244508811E+03  0.13990238777E+03  0.22249028887E+03  0.12499857644E+03 0.  0.
          2    1    1    2  501    0  0.55825024452E+02 -0.10883323426E+03 -0.78942706296E+01  0.12257008503E+03  0.00000000000E+00 0. -1.
          1    1    1    2  502    0 -0.96576816871E+02 -0.36118538478E+01  0.18224068071E+04  0.18249675881E+04  0.00000000000E+00 0. -1.
         22    1    3    3    0    0  0.69167121335E+02  0.62410926537E+02  0.13595914260E+03  0.16481535997E+03  0.00000000000E+00 0. -1.
         22    1    3    3    0    0 -0.28415328915E+02  0.50034161571E+02  0.39432451697E+01  0.57674928902E+02  0.00000000000E+00 0. -1.
</event>
<event>
 7    1  0.6140348E-006  0.5176115E+02  0.7818608E-02  0.1464704E+00
          2   -1    0    0  502    0  0.00000000000E+00  0.00000000000E+00  0.21918342762E+04  0.21918342762E+04  0.00000000000E+00 0. -1.
          1   -1    0    0  501    0 -0.00000000000E+00 -0.00000000000E+00 -0.17276783123E+03  0.17276783123E+03  0.00000000000E+00 0. -1.
         25    2    1    2    0    0  0.45893775943E+00 -0.12886712864E+02 -0.64677495064E+02  0.14133308216E+03  0.12500233499E+03 0.  0.
          2    1    1    2  501    0 -0.28400470444E+02 -0.30833608364E+02 -0.63123235071E+02  0.75774936041E+02  0.00000000000E+00 0. -1.
          1    1    1    2  502    0  0.27941532684E+02  0.43720321228E+02  0.21468671751E+04  0.21474940892E+04  0.00000000000E+00 0. -1.
         22    1    3    3    0    0 -0.27464507603E+02 -0.32495463145E+02  0.22203477309E+02  0.47992173399E+02  0.00000000000E+00 0.  1.
         22    1    3    3    0    0  0.27923445363E+02  0.19608750281E+02 -0.86880972373E+02  0.93340908765E+02  0.00000000000E+00 0.  1.
</event>
<event>
 7    1  0.6140348E-006  0.4351344E+02  0.7818608E-02  0.1504570E+00
          2   -1    0    0  502    0  0.00000000000E+00  0.00000000000E+00  0.49046818749E+03  0.49046818749E+03  0.00000000000E+00 0. -1.
          1   -1    0    0  501    0 -0.00000000000E+00 -0.00000000000E+00 -0.13611019390E+04  0.13611019390E+04  0.00000000000E+00 0. -1.
         25    2    1    2    0    0 -0.90216033100E+00 -0.43308447228E+02 -0.20625243334E+03  0.24501495439E+03  0.12496329910E+03 0.  0.
          2    1    1    2  501    0 -0.33620382786E+02  0.28175767481E+02 -0.11342896224E+04  0.11351375033E+04  0.00000000000E+00 0. -1.
          1    1    1    2  502    0  0.34522543117E+02  0.15132679747E+02  0.46990830425E+03  0.47141766872E+03  0.00000000000E+00 0. -1.
         22    1    3    3    0    0 -0.58619771809E+02 -0.30862321730E+01 -0.67552397639E+02  0.89493736668E+02  0.00000000000E+00 0.  1.
         22    1    3    3    0    0  0.57717611478E+02 -0.40222215055E+02 -0.13870003570E+03  0.15552121772E+03  0.00000000000E+00 0.  1.
</event>
<event>
 7    1  0.6140348E-006  0.9740835E+02  0.7818608E-02  0.1346280E+00
          2   -1    0    0  502    0  0.00000000000E+00  0.00000000000E+00  0.65787996733E+03  0.65787996733E+03  0.00000000000E+00 0. -1.
          1   -1    0    0  501    0 -0.00000000000E+00 -0.00000000000E+00 -0.77686623059E+03  0.77686623059E+03  0.00000000000E+00 0. -1.
         25    2    1    2    0    0 -0.59506210521E+02 -0.13813770394E+03 -0.64191099905E+02  0.20583976783E+03  0.12500599336E+03 0.  0.
          2    1    1    2  501    0  0.44935254181E+02  0.83483785064E+02 -0.63697155674E+03  0.64398872936E+03  0.00000000000E+00 0. -1.
          1    1    1    2  502    0  0.14570956340E+02  0.54653918873E+02  0.58217639339E+03  0.58491770074E+03  0.00000000000E+00 0. -1.
         22    1    3    3    0    0 -0.42183068414E+01 -0.13391692824E+03 -0.21141166718E+02  0.13564102149E+03  0.00000000000E+00 0.  1.
         22    1    3    3    0    0 -0.55287903679E+02 -0.42207757006E+01 -0.43049933187E+02  0.70198746343E+02  0.00000000000E+00 0.  1.
</event>
<event>
 7    1  0.6140348E-006  0.1128802E+03  0.7818608E-02  0.1367645E+00
          2   -1    0    0  502    0  0.00000000000E+00  0.00000000000E+00  0.10476826690E+03  0.10476826690E+03  0.00000000000E+00 0. -1.
          1   -1    0    0  501    0 -0.00000000000E+00 -0.00000000000E+00 -0.22173056068E+04  0.22173056068E+04  0.00000000000E+00 0. -1.
         25    2    1    2    0    0  0.11066942436E+03 -0.47276643832E+02 -0.32484512839E+03  0.36828362735E+03  0.12500268074E+03 0.  0.
          2    1    1    2  501    0 -0.28101436899E+02 -0.29517074439E+02 -0.18321350620E+04  0.18325882882E+04  0.00000000000E+00 0. -1.
          1    1    1    2  502    0 -0.82567987461E+02  0.76793718271E+02  0.44442850479E+02  0.12120195823E+03  0.00000000000E+00 0. -1.
         22    1    3    3    0    0  0.10069596873E+03 -0.83166134710E+02 -0.28630079338E+03  0.31468147129E+03  0.00000000000E+00 0. -1.
         22    1    3    3    0    0  0.99734556350E+01  0.35889490878E+02 -0.38544335010E+02  0.53602156059E+02  0.00000000000E+00 0. -1.
</event>
<event>
 7    1  0.6140348E-006  0.9709862E+02  0.7818608E-02  0.1351791E+00
          2   -1    0    0  502    0  0.00000000000E+00  0.00000000000E+00  0.24842195385E+03  0.24842195385E+03  0.00000000000E+00 0. -1.
          1   -1    0    0  501    0 -0.00000000000E+00 -0.00000000000E+00 -0.34713021373E+03  0.34713021373E+03  0.00000000000E+00 0. -1.
         25    2    1    2    0    0  0.82543745471E+02 -0.68504506519E+02 -0.19927171935E+03  0.25853709214E+03  0.12500349015E+03 0.  0.
          2    1    1    2  501    0 -0.32909708323E+02  0.90112382355E+02 -0.94451114667E+02  0.13462653311E+03  0.00000000000E+00 0. -1.
          1    1    1    2  502    0 -0.49634037149E+02 -0.21607875836E+02  0.19501457413E+03  0.20238854233E+03  0.00000000000E+00 0. -1.
         22    1    3    3    0    0  0.89983616902E+02  0.31315494662E+01 -0.87363023719E+02  0.12545579232E+03  0.00000000000E+00 0. -1.
         22    1    3    3    0    0 -0.74398714313E+01 -0.71636055986E+02 -0.11190869563E+03  0.13308129982E+03  0.00000000000E+00 0. -1.
</event>
<event>
 7    1  0.6140348E-006  0.2198227E+02  0.7818608E-02  0.1719985E+00
          2   -1    0    0  502    0  0.00000000000E+00  0.00000000000E+00  0.97511090093E+03  0.97511090093E+03  0.00000000000E+00 0. -1.
          1   -1    0    0  501    0 -0.00000000000E+00 -0.00000000000E+00 -0.12294132775E+04  0.12294132775E+04  0.00000000000E+00 0. -1.
         25    2    1    2    0    0 -0.20448166525E+02  0.21294019660E+02 -0.91609750330E+03  0.92505538436E+03  0.12498506231E+03 0.  0.
          2    1    1    2  501    0 -0.15249023703E+01 -0.20653626919E+02 -0.30836499957E+03  0.30905965539E+03  0.00000000000E+00 0. -1.
          1    1    1    2  502    0  0.21973068895E+02 -0.64039274088E+00  0.97016012627E+03  0.97040913870E+03  0.00000000000E+00 0. -1.
         22    1    3    3    0    0 -0.31953157347E+02 -0.20426011897E+02 -0.80400005433E+03  0.80489397662E+03  0.00000000000E+00 0. -1.
         22    1    3    3    0    0  0.11504990822E+02  0.41720031557E+02 -0.11209744897E+03  0.12016140775E+03  0.00000000000E+00 0. -1.
</event>
<event>
 7    1  0.6140348E-006  0.9945587E+02  0.7818608E-02  0.1300595E+00
          2   -1    0    0  502    0  0.00000000000E+00  0.00000000000E+00  0.30976823372E+03  0.30976823372E+03  0.00000000000E+00 0. -1.
          1   -1    0    0  501    0 -0.00000000000E+00 -0.00000000000E+00 -0.20708415059E+04  0.20708415059E+04  0.00000000000E+00 0. -1.
         25    2    1    2    0    0 -0.11756299110E+02 -0.54720598533E+02 -0.20469524780E+03  0.24628357107E+03  0.12499159345E+03 0.  0.
          2    1    1    2  501    0 -0.67788571216E+02  0.78939448419E+02 -0.18378684777E+04  0.18408115787E+04  0.00000000000E+00 0. -1.
          1    1    1    2  502    0  0.79544870326E+02 -0.24218849886E+02  0.28149045338E+03  0.29351458981E+03  0.00000000000E+00 0. -1.
         22    1    3    3    0    0  0.55106951984E+01 -0.40299774767E+02 -0.21690578959E+03  0.22068656770E+03  0.00000000000E+00 0. -1.
         22    1    3    3    0    0 -0.17266994309E+02 -0.14420823766E+02  0.12210541786E+02  0.25597003365E+02  0.00000000000E+00 0. -1.
</event>
<event>
 7    1  0.6140348E-006  0.4696139E+02  0.7818608E-02  0.1502892E+00
          2   -1    0    0  502    0  0.00000000000E+00  0.00000000000E+00  0.12455881279E+03  0.12455881279E+03  0.00000000000E+00 0. -1.
          1   -1    0    0  501    0 -0.00000000000E+00 -0.00000000000E+00 -0.50174832849E+03  0.50174832849E+03  0.00000000000E+00 0. -1.
         25    2    1    2    0    0 -0.76812338383E+02 -0.22012614315E+02 -0.99196549436E+02  0.17846598768E+03  0.12500185128E+03 0.  0.
          2    1    1    2  501    0  0.41602867112E+02  0.19106526360E+02 -0.35771973835E+03  0.36063730964E+03  0.00000000000E+00 0. -1.
          1    1    1    2  502    0  0.35209471271E+02  0.29060879556E+01  0.79726772085E+02  0.87203843961E+02  0.00000000000E+00 0. -1.
         22    1    3    3    0    0  0.35086469773E+01 -0.59491874270E+02 -0.43532299291E+02  0.73801455198E+02  0.00000000000E+00 0.  1.
         22    1    3    3    0    0 -0.80320985360E+02  0.37479259955E+02 -0.55664250145E+02  0.10466453248E+03  0.00000000000E+00 0.  1.
</event>
<event>
 7    1  0.6140348E-006  0.3084599E+03  0.7818608E-02  0.1169336E+00
          2   -1    0    0  502    0  0.00000000000E+00  0.00000000000E+00  0.29010651280E+03  0.29010651280E+03  0.00000000000E+00 0. -1.
          1   -1    0    0  501    0 -0.00000000000E+00 -0.00000000000E+00 -0.77237169386E+03  0.77237169386E+03  0.00000000000E+00 0. -1.
         25    2    1    2    0    0  0.42841551318E+02  0.32884761164E+03 -0.16282206812E+03  0.39001577681E+03  0.12500052037E+03 0.  0.
          2    1    1    2  501    0  0.86849273586E+02 -0.55759126377E+02 -0.35347437759E+03  0.36823363794E+03  0.00000000000E+00 0. -1.
          1    1    1    2  502    0 -0.12969082490E+03 -0.27308848526E+03  0.34031264656E+02  0.30422879190E+03  0.00000000000E+00 0. -1.
         22    1    3    3    0    0  0.34219600402E+02  0.32394512808E+03 -0.17851197675E+03  0.37145383684E+03  0.00000000000E+00 0.  1.
         22    1    3    3    0    0  0.86219509166E+01  0.49024835629E+01  0.15689908632E+02  0.18561939973E+02  0.00000000000E+00 0.  1.
</event>
<event>
 7    1  0.6140348E-006  0.5279292E+02  0.7818608E-02  0.1495843E+00
          2   -1    0    0  502    0  0.00000000000E+00  0.00000000000E+00  0.76926230960E+02  0.76926230960E+02  0.00000000000E+00 0. -1.
          1   -1    0    0  501    0 -0.00000000000E+00 -0.00000000000E+00 -0.31839665910E+04  0.31839665910E+04  0.00000000000E+00 0. -1.
         25    2    1    2    0    0 -0.12423216754E+02 -0.75238739135E+02 -0.14637942476E+04  0.14710995021E+04  0.12499976638E+03 0.  0.
          2    1    1    2  501    0  0.23007641668E+02  0.23639556151E+02 -0.17068734629E+04  0.17071921973E+04  0.00000000000E+00 0. -1.
          1    1    1    2  502    0 -0.10584424913E+02  0.51599182984E+02  0.63627350409E+02  0.82601122604E+02  0.00000000000E+00 0. -1.
         22    1    3    3    0    0 -0.52187748686E+01 -0.10910724445E+03 -0.98029959240E+03  0.98636652278E+03  0.00000000000E+00 0.  1.
         22    1    3    3    0    0 -0.72044418857E+01  0.33868505311E+02 -0.48349465519E+03  0.48473297931E+03  0.00000000000E+00 0.  1.
</event>
<event>
 7    1  0.6140348E-006  0.1053850E+03  0.7818608E-02  0.1364901E+00
          2   -1    0    0  502    0  0.00000000000E+00  0.00000000000E+00  0.10534448215E+04  0.10534448215E+04  0.00000000000E+00 0. -1.
          1   -1    0    0  501    0 -0.00000000000E+00 -0.00000000000E+00 -0.32557053649E+04  0.32557053649E+04  0.00000000000E+00 0. -1.
         25    2    1    2    0    0  0.13253415260E+03 -0.69526083885E+02 -0.34794674242E+03  0.39886261730E+03  0.12500109590E+03 0.  0.
          2    1    1    2  501    0 -0.40446913775E+02  0.18939871216E+02 -0.28794424391E+04  0.28797887825E+04  0.00000000000E+00 0. -1.
          1    1    1    2  502    0 -0.92087238821E+02  0.50586212669E+02  0.10251286381E+04  0.10304987866E+04  0.00000000000E+00 0. -1.
         22    1    3    3    0    0  0.70688404667E+02 -0.56980054982E+02 -0.72241758732E+02  0.11602779376E+03  0.00000000000E+00 0. -1.
         22    1    3    3    0    0  0.61845747929E+02 -0.12546028903E+02 -0.27570498368E+03  0.28283482354E+03  0.00000000000E+00 0. -1.
</event>
<event>
 7    1  0.6140348E-006  0.4901173E+02  0.7818608E-02  0.1522726E+00
          2   -1    0    0  502    0  0.00000000000E+00  0.00000000000E+00  0.10476570005E+04  0.10476570005E+04  0.00000000000E+00 0. -1.
          1   -1    0    0  501    0 -0.00000000000E+00 -0.00000000000E+00 -0.73121834977E+02  0.73121834977E+02  0.00000000000E+00 0. -1.
         25    2    1    2    0    0 -0.12833280774E+01  0.20696597298E+02  0.91020939275E+03  0.91898343978E+03  0.12497770950E+03 0.  0.
          2    1    1    2  501    0 -0.89547482386E+01 -0.48478210781E+02 -0.57894412394E+02  0.76040038289E+02  0.00000000000E+00 0. -1.
          1    1    1    2  502    0  0.10238076316E+02  0.27781613483E+02  0.12222018513E+03  0.12575535737E+03  0.00000000000E+00 0. -1.
         22    1    3    3    0    0  0.58503269948E+02  0.26773441656E+02  0.38385346971E+03  0.38920808827E+03  0.00000000000E+00 0.  1.
         22    1    3    3    0    0 -0.59786598026E+02 -0.60768443578E+01  0.52635592304E+03  0.52977535151E+03  0.00000000000E+00 0.  1.
</event>
<event>
 7    1  0.6140348E-006  0.9388536E+02  0.7818608E-02  0.1445307E+00
          2   -1    0    0  502    0  0.00000000000E+00  0.00000000000E+00  0.11256956542E+04  0.11256956542E+04  0.00000000000E+00 0. -1.
          1   -1    0    0  501    0 -0.00000000000E+00 -0.00000000000E+00 -0.14598944857E+04  0.14598944857E+04  0.00000000000E+00 0. -1.
         25    2    1    2    0    0 -0.11173855252E+03  0.21556235888E+01 -0.26059729429E+03  0.30988029221E+03  0.12499877951E+03 0.  0.
          2    1    1    2  501    0  0.90797543976E+02 -0.18614777684E+02 -0.11726657485E+04  0.11763229411E+04  0.00000000000E+00 0. -1.
          1    1    1    2  502    0  0.20941008548E+02  0.16459154095E+02  0.10990642114E+04  0.10993869066E+04  0.00000000000E+00 0. -1.
         22    1    3    3    0    0 -0.79882161758E+02 -0.22498020761E+02 -0.25626284456E+03  0.26936585939E+03  0.00000000000E+00 0. -1.
         22    1    3    3    0    0 -0.31856390767E+02  0.24653644350E+02 -0.43344497327E+01  0.40514432822E+02  0.00000000000E+00 0. -1.
</event>
<event>
 7    1  0.6140348E-006  0.1183969E+03  0.7818608E-02  0.1352469E+00
          2   -1    0    0  502    0  0.00000000000E+00  0.00000000000E+00  0.86675800923E+02  0.86675800923E+02  0.00000000000E+00 0. -1.
          1   -1    0    0  501    0 -0.00000000000E+00 -0.00000000000E+00 -0.27516761740E+04  0.27516761740E+04  0.00000000000E+00 0. -1.
         25    2    1    2    0    0 -0.87419715877E+01 -0.78205548894E+02 -0.45705363857E+03  0.48032944229E+03  0.12500325859E+03 0.  0.
          2    1    1    2  501    0 -0.96903269345E+01 -0.43063562301E+02 -0.22324924807E+04  0.22329288053E+04  0.00000000000E+00 0. -1.
          1    1    1    2  502    0  0.18432298522E+02  0.12126911120E+03  0.24545746261E+02  0.12509372733E+03  0.00000000000E+00 0. -1.
         22    1    3    3    0    0 -0.35076891262E+02 -0.68337022841E+02 -0.44161820398E+03  0.44824878703E+03  0.00000000000E+00 0. -1.
         22    1    3    3    0    0  0.26334919674E+02 -0.98685260537E+01 -0.15435434588E+02  0.32080655256E+02  0.00000000000E+00 0. -1.
</event>
<event>
 7    1  0.6140348E-006  0.1027717E+03  0.7818608E-02  0.1311356E+00
          2   -1    0    0  502    0  0.00000000000E+00  0.00000000000E+00  0.34091148172E+04  0.34091148172E+04  0.00000000000E+00 0. -1.
          1   -1    0    0  501    0 -0.00000000000E+00 -0.00000000000E+00 -0.16231189718E+04  0.16231189718E+04  0.00000000000E+00 0. -1.
         25    2    1    2    0    0  0.62318368146E+02 -0.45915054806E+02  0.10393172258E+04  0.10496655809E+04  0.12500305839E+03 0.  0.
          2    1    1    2  501    0 -0.15329079078E+02  0.10169809757E+03 -0.16157470051E+04  0.16190169450E+04  0.00000000000E+00 0. -1.
          1    1    1    2  502    0 -0.46989289068E+02 -0.55783042760E+02  0.23624256247E+04  0.23635512631E+04  0.00000000000E+00 0. -1.
         22    1    3    3    0    0  0.85377451266E+02  0.41949072244E+01  0.47243726836E+03  0.48010819506E+03  0.00000000000E+00 0. -1.
         22    1    3    3    0    0 -0.23059083120E+02 -0.50109962031E+02  0.56687995745E+03  0.56955738584E+03  0.00000000000E+00 0. -1.
</event>
<event>
 7    1  0.6140348E-006  0.2525133E+02  0.7818608E-02  0.1684560E+00
          2   -1    0    0  502    0  0.00000000000E+00  0.00000000000E+00  0.48368692411E+03  0.48368692411E+03  0.00000000000E+00 0. -1.
          1   -1    0    0  501    0 -0.00000000000E+00 -0.00000000000E+00 -0.11254254990E+04  0.11254254990E+04  0.00000000000E+00 0. -1.
         25    2    1    2    0    0  0.10793525120E+02  0.99291598617E+01  0.13783046111E+03  0.18664654081E+03  0.12499842713E+03 0.  0.
          2    1    1    2  501    0  0.51323445437E+01 -0.24740423643E+02 -0.11005044096E+04  0.11007944336E+04  0.00000000000E+00 0. -1.
          1    1    1    2  502    0 -0.15925869664E+02  0.14811263782E+02  0.32093537361E+03  0.32167144868E+03  0.00000000000E+00 0. -1.
         22    1    3    3    0    0 -0.45692425501E+02 -0.54613392602E+01  0.11489728742E+03  0.12376999084E+03  0.00000000000E+00 0. -1.
         22    1    3    3    0    0  0.56485950622E+02  0.15390499122E+02  0.22933173689E+02  0.62876549971E+02  0.00000000000E+00 0. -1.
</event>
<event>
 7    1  0.6140348E-006  0.1833655E+03  0.7818608E-02  0.1280109E+00
          2   -1    0    0  502    0  0.00000000000E+00  0.00000000000E+00  0.24226324317E+04  0.24226324317E+04  0.00000000000E+00 0. -1.
          1   -1    0    0  501    0 -0.00000000000E+00 -0.00000000000E+00 -0.17753216467E+03  0.17753216467E+03  0.00000000000E+00 0. -1.
         25    2    1    2    0    0  0.10655474682E+03  0.98488501119E+02  0.64111861612E+03  0.66911274238E+03  0.12499953266E+03 0.  0.
          2    1    1    2  501    0  0.47272855488E+02  0.27386617149E+02 -0.15320739783E+03  0.16265686710E+03  0.00000000000E+00 0. -1.
          1    1    1    2  502    0 -0.15382760231E+03 -0.12587511827E+03  0.17571890487E+04  0.17683949869E+04  0.00000000000E+00 0. -1.
         22    1    3    3    0    0  0.12965049139E+03  0.74924007280E+02  0.58638741815E+03  0.60520497433E+03  0.00000000000E+00 0.  1.
         22    1    3    3    0    0 -0.23095744568E+02  0.23564493840E+02  0.54731197964E+02  0.63907768054E+02  0.00000000000E+00 0.  1.
</event>
<event>
 7    1  0.6140348E-006  0.4389382E+02  0.7818608E-02  0.1482881E+00
          2   -1    0    0  502    0  0.00000000000E+00  0.00000000000E+00  0.17642104683E+03  0.17642104683E+03  0.00000000000E+00 0. -1.
          1   -1    0    0  501    0 -0.00000000000E+00 -0.00000000000E+00 -0.29979126470E+03  0.29979126470E+03  0.00000000000E+00 0. -1.
         25    2    1    2    0    0 -0.24948631805E+02 -0.71557323779E+02 -0.15251161974E+03  0.21125309093E+03  0.12500075782E+03 0.  0.
          2    1    1    2  501    0 -0.76286787709E+01  0.42753233080E+02 -0.11048722765E+03  0.11871589259E+03  0.00000000000E+00 0. -1.
          1    1    1    2  502    0  0.32577310576E+02  0.28804090700E+02  0.13962862953E+03  0.14624332802E+03  0.00000000000E+00 0. -1.
         22    1    3    3    0    0  0.33087827020E+02 -0.13396773598E+02  0.25291496904E+01  0.35786511955E+02  0.00000000000E+00 0.  1.
         22    1    3    3    0    0 -0.58036458825E+02 -0.58160550181E+02 -0.15504076943E+03  0.17546657897E+03  0.00000000000E+00 0.  1.
</event>
<event>
 7    1  0.6140348E-006  0.4367544E+02  0.7818608E-02  0.1507975E+00
          2   -1    0    0  502    0  0.00000000000E+00  0.00000000000E+00  0.24987231379E+04  0.24987231379E+04  0.00000000000E+00 0. -1.
          1   -1    0    0  501    0 -0.00000000000E+00 -0.00000000000E+00 -0.16476907214E+02  0.16476907214E+02  0.00000000000E+00 0. -1.
         25    2    1    2    0    0  0.68909243555E+02 -0.30568276719E+02  0.85004922581E+03  0.86249163205E+03  0.12500090265E+03 0.  0.
          2    1    1    2  501    0 -0.26904275735E+02  0.24950368086E+02  0.23761358096E+02  0.43714563466E+02  0.00000000000E+00 0. -1.
          1    1    1    2  502    0 -0.42004967820E+02  0.56179086327E+01  0.16084356467E+04  0.16089938496E+04  0.00000000000E+00 0. -1.
         22    1    3    3    0    0  0.32258634808E+02 -0.34821751002E+02  0.91807688226E+02  0.10335291713E+03  0.00000000000E+00 0.  1.
         22    1    3    3    0    0  0.36650608747E+02  0.42534742828E+01  0.75824153758E+03  0.75913871491E+03  0.00000000000E+00 0.  1.
</event>
<event>
 7    1  0.6140348E-006  0.1777972E+03  0.7818608E-02  0.1351164E+00
          2   -1    0    0  502    0  0.00000000000E+00  0.00000000000E+00  0.16767990128E+04  0.16767990128E+04  0.00000000000E+00 0. -1.
          1   -1    0    0  501    0 -0.00000000000E+00 -0.00000000000E+00 -0.88350772146E+02  0.88350772146E+02  0.00000000000E+00 0. -1.
         25    2    1    2    0    0  0.14508095202E+03  0.11246280072E+03  0.10251830111E+04  0.10489621578E+04  0.12500015195E+03 0.  0.
          2    1    1    2  501    0  0.66276261530E+01 -0.28973300688E+02 -0.61265619276E+02  0.68094446810E+02  0.00000000000E+00 0. -1.
          1    1    1    2  502    0 -0.15170857817E+03 -0.83489500033E+02  0.62453084883E+03  0.64809318037E+03  0.00000000000E+00 0. -1.
         22    1    3    3    0    0  0.16065589604E+03  0.10864059219E+03  0.10030643005E+04  0.10216413687E+04  0.00000000000E+00 0.  1.
         22    1    3    3    0    0 -0.15574944017E+02  0.38222085269E+01  0.22118710613E+02  0.27320789124E+02  0.00000000000E+00 0.  1.
</event>
<event>
 7    1  0.6140348E-006  0.6535809E+02  0.7818608E-02  0.1529337E+00
          2   -1    0    0  502    0  0.00000000000E+00  0.00000000000E+00  0.10284872990E+04  0.10284872990E+04  0.00000000000E+00 0. -1.
          1   -1    0    0  501    0 -0.00000000000E+00 -0.00000000000E+00 -0.38620861997E+03  0.38620861997E+03  0.00000000000E+00 0. -1.
         25    2    1    2    0    0 -0.78477891781E+02  0.10637153797E+00  0.49342992372E+03  0.51503054921E+03  0.12499834471E+03 0.  0.
          2    1    1    2  501    0  0.63505481921E+02 -0.15186532256E+02 -0.37235085733E+03  0.37803272074E+03  0.00000000000E+00 0. -1.
          1    1    1    2  502    0  0.14972409861E+02  0.15080160718E+02  0.52119961269E+03  0.52163264906E+03  0.00000000000E+00 0. -1.
         22    1    3    3    0    0  0.63694762836E+01  0.47400109956E+02  0.12015518637E+03  0.12932366166E+03  0.00000000000E+00 0. -1.
         22    1    3    3    0    0 -0.84847368065E+02 -0.47293738418E+02  0.37327473735E+03  0.38570688755E+03  0.00000000000E+00 0. -1.
</event>
<event>
 7    1  0.6140348E-006  0.5521871E+02  0.7818608E-02  0.1509449E+00
          2   -1    0    0  502    0  0.00000000000E+00  0.00000000000E+00  0.69265287274E+02  0.69265287274E+02  0.00000000000E+00 0. -1.
          1   -1    0    0  501    0 -0.00000000000E+00 -0.00000000000E+00 -0.40507368025E+03  0.40507368025E+03  0.00000000000E+00 0. -1.
         25    2    1    2    0    0  0.64605797058E+02 -0.32957380159E+02 -0.73373261155E+02  0.16207451840E+03  0.12499766455E+03 0.  0.
          2    1    1    2  501    0 -0.36781562258E+02  0.40127281348E+02 -0.27540980220E+03  0.28073767325E+03  0.00000000000E+00 0. -1.
          1    1    1    2  502    0 -0.27824234800E+02 -0.71699011889E+01  0.12974670386E+02  0.31526775872E+02  0.00000000000E+00 0. -1.
         22    1    3    3    0    0  0.57698790636E+02 -0.20733513061E+02 -0.10828937740E+03  0.12444122413E+03  0.00000000000E+00 0. -1.
         22    1    3    3    0    0  0.69070064222E+01 -0.12223867099E+02  0.34916116243E+02  0.37633294276E+02  0.00000000000E+00 0. -1.
</event>
<event>
 7    1  0.6140348E-006  0.6343571E+02  0.7818608E-02  0.1502393E+00
          2   -1    0    0  502    0  0.00000000000E+00  0.00000000000E+00  0.77230739716E+03  0.77230739716E+03  0.00000000000E+00 0. -1.
          1   -1    0    0  501    0 -0.00000000000E+00 -0.00000000000E+00 -0.29492559837E+03  0.29492559837E+03  0.00000000000E+00 0. -1.
         25    2    1    2    0    0  0.38500961587E+02 -0.14292870098E+01  0.83642615962E+02  0.15528322067E+03  0.12502969452E+03 0.  0.
          2    1    1    2  501    0  0.26018243123E+02  0.34313435585E+01 -0.25683940964E+03  0.25817669422E+03  0.00000000000E+00 0. -1.
          1    1    1    2  502    0 -0.64519204710E+02 -0.20020565487E+01  0.65057859246E+03  0.65377308065E+03  0.00000000000E+00 0. -1.
         22    1    3    3    0    0  0.30720186765E+02 -0.31153329488E+01 -0.28999307236E+02  0.42360299744E+02  0.00000000000E+00 0. -1.
         22    1    3    3    0    0  0.77807748224E+01  0.16860459389E+01  0.11264192320E+03  0.11292292092E+03  0.00000000000E+00 0. -1.
</event>
<event>
 7    1  0.6140348E-006  0.7072157E+02  0.7818608E-02  0.1373493E+00
          2   -1    0    0  502    0  0.00000000000E+00  0.00000000000E+00  0.73619487629E+03  0.73619487629E+03  0.00000000000E+00 0. -1.
          1   -1    0    0  501    0 -0.00000000000E+00 -0.00000000000E+00 -0.28904389562E+03  0.28904389562E+03  0.00000000000E+00 0. -1.
         25    2    1    2    0    0  0.44294305658E+02 -0.11140416592E+03  0.25721358489E+03  0.31008966013E+03  0.12499558139E+03 0.  0.
          2    1    1    2  501    0  0.52531216947E+00  0.61975644330E+02 -0.25643448528E+03  0.26381793284E+03  0.00000000000E+00 0. -1.
          1    1    1    2  502    0 -0.44819617827E+02  0.49428521586E+02  0.44637188106E+03  0.45133117895E+03  0.00000000000E+00 0. -1.
         22    1    3    3    0    0  0.81871016606E+02 -0.84424284527E+02  0.13297357846E+03  0.17751702945E+03  0.00000000000E+00 0. -1.
         22    1    3    3    0    0 -0.37576710948E+02 -0.26979881389E+02  0.12424000643E+03  0.13257263067E+03  0.00000000000E+00 0. -1.
</event>
<event>
 7    1  0.6140348E-006  0.6627658E+02  0.7818608E-02  0.1409664E+00
          2   -1    0    0  502    0  0.00000000000E+00  0.00000000000E+00  0.60945859932E+03  0.60945859932E+03  0.00000000000E+00 0. -1.
          1   -1    0    0  501    0 -0.00000000000E+00 -0.00000000000E+00 -0.58150067383E+03  0.58150067383E+03  0.00000000000E+00 0. -1.
         25    2    1    2    0    0 -0.42155410210E+02 -0.70377831792E+02  0.29480793285E+03  0.33055566446E+03  0.12500084886E+03 0.  0.
          2    1    1    2  501    0 -0.71267743259E+01  0.65896850342E+02 -0.55959445344E+03  0.56350611187E+03  0.00000000000E+00 0. -1.
          1    1    1    2  502    0  0.49282184536E+02  0.44809814499E+01  0.29274444608E+03  0.29689749682E+03  0.00000000000E+00 0. -1.
         22    1    3    3    0    0 -0.43488707118E+02 -0.66580286933E+02  0.30730417906E+03  0.31742725264E+03  0.00000000000E+00 0. -1.
         22    1    3    3    0    0  0.13332969075E+01 -0.37975448592E+01 -0.12496246204E+02  0.13128411816E+02  0.00000000000E+00 0. -1.
</event>
<event>
 7    1  0.9767689E-006  0.4648276E+02  0.7818608E-02  0.1480838E+00
          2   -1    0    0  502    0  0.00000000000E+00  0.00000000000E+00  0.10852114549E+04  0.10852114549E+04  0.00000000000E+00 0. -1.
          1   -1    0    0  501    0 -0.00000000000E+00 -0.00000000000E+00 -0.90358246138E+03  0.90358246138E+03  0.00000000000E+00 0. -1.
         25    2    1    2    0    0  0.40916559846E+00  0.55421933082E+01 -0.46345075846E+03  0.48004588869E+03  0.12500626550E+03 0.  0.
          2    1    1    2  501    0  0.44088736295E+02 -0.18980336238E+02 -0.42999649306E+03  0.43266737094E+03  0.00000000000E+00 0. -1.
          1    1    1    2  502    0 -0.44497901894E+02  0.13438142930E+02  0.10750762450E+04  0.10760806566E+04  0.00000000000E+00 0. -1.
         22    1    3    3    0    0 -0.59294512972E+02  0.61978478613E+01 -0.30382536783E+03  0.30961929320E+03  0.00000000000E+00 0.  1.
         22    1    3    3    0    0  0.59703678570E+02 -0.65565455309E+00 -0.15962539063E+03  0.17042659549E+03  0.00000000000E+00 0.  1.
</event>
<event>
 7    1  0.6140348E-006  0.1406934E+03  0.7818608E-02  0.1260664E+00
          2   -1    0    0  502    0  0.00000000000E+00  0.00000000000E+00  0.48452373825E+03  0.48452373825E+03  0.00000000000E+00 0. -1.
          1   -1    0    0  501    0 -0.00000000000E+00 -0.00000000000E+00 -0.23543331128E+03  0.23543331128E+03  0.00000000000E+00 0. -1.
         25    2    1    2    0    0 -0.82421608488E+02  0.12351848852E+03 -0.19990223910E+02  0.19512321663E+03  0.12499328807E+03 0.  0.
          2    1    1    2  501    0  0.83783168629E+02  0.19057286372E+02 -0.98416118724E+02  0.13064659174E+03  0.00000000000E+00 0. -1.
          1    1    1    2  502    0 -0.13615601412E+01 -0.14257577489E+03  0.36749676960E+03  0.39418724116E+03  0.00000000000E+00 0. -1.
         22    1    3    3    0    0  0.23649398699E+02  0.72747970719E+02 -0.71599224845E+01  0.76829849619E+02  0.00000000000E+00 0. -1.
         22    1    3    3    0    0 -0.10607100719E+03  0.50770517797E+02 -0.12830301425E+02  0.11829336701E+03  0.00000000000E+00 0. -1.
</event>
<event>
 7    1  0.6140348E-006  0.5865736E+02  0.7818608E-02  0.1444658E+00
          2   -1    0    0  502    0  0.00000000000E+00  0.00000000000E+00  0.13222985263E+02  0.13222985263E+02  0.00000000000E+00 0. -1.
          1   -1    0    0  501    0 -0.00000000000E+00 -0.00000000000E+00 -0.26071470595E+04  0.26071470595E+04  0.00000000000E+00 0. -1.
         25    2    1    2    0    0 -0.44003248116E+02 -0.10809532888E+01 -0.79866677700E+03  0.80958592043E+03  0.12499315009E+03 0.  0.
          2    1    1    2  501    0 -0.30114088967E+01  0.42731270695E+02 -0.16710475304E+04  0.16715965060E+04  0.00000000000E+00 0. -1.
          1    1    1    2  502    0  0.47014657013E+02 -0.41650317406E+02 -0.12420976682E+03  0.13918761829E+03  0.00000000000E+00 0. -1.
         22    1    3    3    0    0 -0.47162736582E+01 -0.31292951161E+02 -0.68319810491E+03  0.68393065626E+03  0.00000000000E+00 0. -1.
         22    1    3    3    0    0 -0.39286974458E+02  0.30211997872E+02 -0.11546867210E+03  0.12565526417E+03  0.00000000000E+00 0. -1.
</event>
<event>
 7    1  0.6140348E-006  0.1297764E+03  0.7818608E-02  0.1261315E+00
          2   -1    0    0  502    0  0.00000000000E+00  0.00000000000E+00  0.19607835883E+04  0.19607835883E+04  0.00000000000E+00 0. -1.
          1   -1    0    0  501    0 -0.00000000000E+00 -0.00000000000E+00 -0.11063437400E+04  0.11063437400E+04  0.00000000000E+00 0. -1.
         25    2    1    2    0    0  0.63076410666E+02 -0.20090907462E+03  0.21862991593E+03  0.32827928119E+03  0.12500062588E+03 0.  0.
          2    1    1    2  501    0  0.21989300693E+01  0.92531908817E+02 -0.10471031915E+04  0.10511860363E+04  0.00000000000E+00 0. -1.
          1    1    1    2  502    0 -0.65275340735E+02  0.10837716581E+03  0.16829131238E+04  0.16876620107E+04  0.00000000000E+00 0. -1.
         22    1    3    3    0    0  0.84263701693E+02 -0.17052041852E+03  0.22048253165E+03  0.29118745048E+03  0.00000000000E+00 0.  1.
         22    1    3    3    0    0 -0.21187291028E+02 -0.30388656100E+02 -0.18526157122E+01  0.37091830713E+02  0.00000000000E+00 0.  1.
</event>
<event>
 7    1  0.6140348E-006  0.8667118E+02  0.7818608E-02  0.1486622E+00
          2   -1    0    0  502    0  0.00000000000E+00  0.00000000000E+00  0.37961818409E+04  0.37961818409E+04  0.00000000000E+00 0. -1.
          1   -1    0    0  501    0 -0.00000000000E+00 -0.00000000000E+00 -0.50703350337E+02  0.50703350337E+02  0.00000000000E+00 0. -1.
         25    2    1    2    0    0 -0.42784693847E+02  0.53739141412E+02  0.43200664745E+03  0.45494088890E+03  0.12499217416E+03 0.  0.
          2    1    1    2  501    0 -0.24316581723E+01  0.21285613227E+02 -0.35695707520E+02  0.41631404340E+02  0.00000000000E+00 0. -1.
          1    1    1    2  502    0  0.45216352020E+02 -0.75024754639E+02  0.33491675506E+04  0.33503128980E+04  0.00000000000E+00 0. -1.
         22    1    3    3    0    0  0.29332603667E+02  0.12588535608E+02  0.27906907725E+02  0.42398919389E+02  0.00000000000E+00 0.  1.
         22    1    3    3    0    0 -0.72117297514E+02  0.41150605804E+02  0.40409973972E+03  0.41254196951E+03  0.00000000000E+00 0.  1.
</event>
<event>
 7    1  0.6140348E-006  0.7191727E+02  0.7818608E-02  0.1401869E+00
          2   -1    0    0  502    0  0.00000000000E+00  0.00000000000E+00  0.72264518824E+03  0.72264518824E+03  0.00000000000E+00 0. -1.
          1   -1    0    0  501    0 -0.00000000000E+00 -0.00000000000E+00 -0.56739701620E+03  0.56739701620E+03  0.00000000000E+00 0. -1.
         25    2    1    2    0    0 -0.44640326975E+02 -0.77432478315E+02  0.14175971051E+03  0.20906944066E+03  0.12500267198E+03 0.  0.
          2    1    1    2  501    0 -0.19007196640E+02  0.44601250219E+02 -0.53028845321E+03  0.53250013019E+03  0.00000000000E+00 0. -1.
          1    1    1    2  502    0  0.63647523615E+02  0.32831228095E+02  0.54377691474E+03  0.54847263359E+03  0.00000000000E+00 0. -1.
         22    1    3    3    0    0  0.39352221845E+02 -0.52891186644E+02  0.55159721067E+02  0.85957372092E+02  0.00000000000E+00 0. -1.
         22    1    3    3    0    0 -0.83992548820E+02 -0.24541291671E+02  0.86599989448E+02  0.12311206857E+03  0.00000000000E+00 0. -1.
</event>
<event>
 7    1  0.6140348E-006  0.1640404E+03  0.7818608E-02  0.1242574E+00
          2   -1    0    0  502    0  0.00000000000E+00  0.00000000000E+00  0.37459720570E+03  0.37459720570E+03  0.00000000000E+00 0. -1.
          1   -1    0    0  501    0 -0.00000000000E+00 -0.00000000000E+00 -0.28769099654E+04  0.28769099654E+04  0.00000000000E+00 0. -1.
         25    2    1    2    0    0 -0.12250139053E+03 -0.13745438303E+02 -0.10731094571E+04  0.10873760393E+04  0.12500886480E+03 0.  0.
          2    1    1    2  501    0 -0.75186464000E+01 -0.87927445929E+02 -0.17769826631E+04  0.17791726028E+04  0.00000000000E+00 0. -1.
          1    1    1    2  502    0  0.13002003693E+03  0.10167288423E+03  0.34777936049E+03  0.38495852890E+03  0.00000000000E+00 0. -1.
         22    1    3    3    0    0 -0.13666790690E+03  0.16771494221E+02 -0.94239650066E+03  0.95240252218E+03  0.00000000000E+00 0.  1.
         22    1    3    3    0    0  0.14166516365E+02 -0.30516932524E+02 -0.13071295644E+03  0.13497351717E+03  0.00000000000E+00 0.  1.
</event>
<event>
 7    1  0.6140348E-006  0.6741631E+02  0.7818608E-02  0.1511356E+00
          2   -1    0    0  502    0  0.00000000000E+00  0.00000000000E+00  0.61725360685E+02  0.61725360685E+02  0.00000000000E+00 0. -1.
          1   -1    0    0  501    0 -0.00000000000E+00 -0.00000000000E+00 -0.10037995079E+04  0.10037995079E+04  0.00000000000E+00 0. -1.
         25    2    1    2    0    0 -0.24730206346E+02 -0.67346372536E+02 -0.22347713417E+03  0.26591984729E+03  0.12499687472E+03 0.  0.
          2    1    1    2  501    0  0.14976270031E+01  0.67348178432E+02 -0.75413991610E+03  0.75714267683E+03  0.00000000000E+00 0. -1.
          1    1    1    2  502    0  0.23232579343E+02 -0.18058961099E-02  0.35542903012E+02  0.42462344503E+02  0.00000000000E+00 0. -1.
         22    1    3    3    0    0  0.21378063788E+01  0.35909879789E+02 -0.73879581504E+02  0.82172271758E+02  0.00000000000E+00 0.  1.
         22    1    3    3    0    0 -0.26868012725E+02 -0.10325625233E+03 -0.14959755266E+03  0.18374757554E+03  0.00000000000E+00 0.  1.
</event>
<event>
 7    1  0.6140348E-006  0.1327838E+03  0.7818608E-02  0.1281378E+00
          2   -1    0    0  502    0  0.00000000000E+00  0.00000000000E+00  0.24323349379E+03  0.24323349379E+03  0.00000000000E+00 0. -1.
          1   -1    0    0  501    0 -0.00000000000E+00 -0.00000000000E+00 -0.15466269968E+04  0.15466269968E+04  0.00000000000E+00 0. -1.
         25    2    1    2    0    0 -0.20075814661E+03 -0.10440827577E+02 -0.25105808346E+03  0.34506715819E+03  0.12501335161E+03 0.  0.
          2    1    1    2  501    0  0.12793057353E+03 -0.54454073399E+01 -0.12380624768E+04  0.12446664535E+04  0.00000000000E+00 0. -1.
          1    1    1    2  502    0  0.72827573080E+02  0.15886234917E+02  0.18572705723E+03  0.20012687888E+03  0.00000000000E+00 0. -1.
         22    1    3    3    0    0 -0.49291645236E+02  0.18062635383E+02 -0.24427783304E+01  0.52553708270E+02  0.00000000000E+00 0. -1.
         22    1    3    3    0    0 -0.15146650138E+03 -0.28503462959E+02 -0.24861530512E+03  0.29251344992E+03  0.00000000000E+00 0. -1.
</event>
<event>
 7    1  0.6140348E-006  0.7756021E+02  0.7818608E-02  0.1350106E+00
          2   -1    0    0  502    0  0.00000000000E+00  0.00000000000E+00  0.13463185488E+04  0.13463185488E+04  0.00000000000E+00 0. -1.
          1   -1    0    0  501    0 -0.00000000000E+00 -0.00000000000E+00 -0.17437005607E+03  0.17437005607E+03  0.00000000000E+00 0. -1.
         25    2    1    2    0    0 -0.55184833229E+02  0.80250969358E+02  0.22163522652E+03  0.27245586062E+03  0.12499775379E+03 0.  0.
          2    1    1    2  501    0 -0.13472194186E+02 -0.76670680180E+02 -0.13762970694E+03  0.15811966813E+03  0.00000000000E+00 0. -1.
          1    1    1    2  502    0  0.68657027414E+02 -0.35802891780E+01  0.10879429732E+04  0.10901130761E+04  0.00000000000E+00 0. -1.
         22    1    3    3    0    0 -0.90309836619E+01 -0.22423120227E+02  0.11459983942E+03  0.11712163841E+03  0.00000000000E+00 0.  1.
         22    1    3    3    0    0 -0.46153849567E+02  0.10267408959E+03  0.10703538709E+03  0.15533422222E+03  0.00000000000E+00 0.  1.
</event>
<event>
 7    1  0.6140348E-006  0.4255642E+02  0.7818608E-02  0.1498746E+00
          2   -1    0    0  502    0  0.00000000000E+00  0.00000000000E+00  0.16885668126E+04  0.16885668126E+04  0.00000000000E+00 0. -1.
          1   -1    0    0  501    0 -0.00000000000E+00 -0.00000000000E+00 -0.34360774556E+03  0.34360774556E+03  0.00000000000E+00 0. -1.
         25    2    1    2    0    0  0.26654546335E+02 -0.49785356367E+02  0.10500515323E+04  0.10589727452E+04  0.12500403223E+03 0.  0.
          2    1    1    2  501    0  0.14119734390E+02  0.37543882535E+02 -0.33724268565E+03  0.33961969767E+03  0.00000000000E+00 0. -1.
          1    1    1    2  502    0 -0.40774280725E+02  0.12241473832E+02  0.63215022037E+03  0.63358211525E+03  0.00000000000E+00 0. -1.
         22    1    3    3    0    0  0.16748240947E+02 -0.13095752086E+02  0.97128293980E+03  0.97151559506E+03  0.00000000000E+00 0.  1.
         22    1    3    3    0    0  0.99063053879E+01 -0.36689604282E+02  0.78768592488E+02  0.87457150144E+02  0.00000000000E+00 0.  1.
</event>
<event>
 7    1  0.6140348E-006  0.7507107E+02  0.7818608E-02  0.1348640E+00
          2   -1    0    0  502    0  0.00000000000E+00  0.00000000000E+00  0.92019272579E+03  0.92019272579E+03  0.00000000000E+00 0. -1.
          1   -1    0    0  501    0 -0.00000000000E+00 -0.00000000000E+00 -0.10591289279E+04  0.10591289279E+04  0.00000000000E+00 0. -1.
         25    2    1    2    0    0 -0.56080196039E+02  0.13261200879E+03  0.55337991782E+02  0.19854276396E+03  0.12500401003E+03 0.  0.
          2    1    1    2  501    0  0.40351417129E+02 -0.62428256542E+02 -0.98449214844E+03  0.98729444161E+03  0.00000000000E+00 0. -1.
          1    1    1    2  502    0  0.15728778910E+02 -0.70183752247E+02  0.79021795459E+03  0.79348444807E+03  0.00000000000E+00 0. -1.
         22    1    3    3    0    0 -0.66193050112E+02  0.26729016595E+02  0.58253309901E+02  0.92137985248E+02  0.00000000000E+00 0.  1.
         22    1    3    3    0    0  0.10112854073E+02  0.10588299219E+03 -0.29153181183E+01  0.10640477871E+03  0.00000000000E+00 0.  1.
</event>
<event>
 7    1  0.6140348E-006  0.9303493E+02  0.7818608E-02  0.1449362E+00
          2   -1    0    0  502    0  0.00000000000E+00  0.00000000000E+00  0.62150459649E+02  0.62150459649E+02  0.00000000000E+00 0. -1.
          1   -1    0    0  501    0 -0.00000000000E+00 -0.00000000000E+00 -0.16915976125E+04  0.16915976125E+04  0.00000000000E+00 0. -1.
         25    2    1    2    0    0 -0.85510104951E+02 -0.45308206538E+02 -0.95512720999E+03  0.96812124295E+03  0.12500376862E+03 0.  0.
          2    1    1    2  501    0 -0.53842164123E+01  0.25522634836E+02 -0.69068336460E+03  0.69117574090E+03  0.00000000000E+00 0. -1.
          1    1    1    2  502    0  0.90894321363E+02  0.19785571702E+02  0.16363421761E+02  0.94451088270E+02  0.00000000000E+00 0. -1.
         22    1    3    3    0    0 -0.72852209275E+02 -0.68844584033E+02 -0.40057083340E+03  0.41292131662E+03  0.00000000000E+00 0. -1.
         22    1    3    3    0    0 -0.12657895676E+02  0.23536377496E+02 -0.55455637658E+03  0.55519992633E+03  0.00000000000E+00 0. -1.
</event>
<event>
 7    1  0.6140348E-006  0.1054392E+03  0.7818608E-02  0.1387353E+00
          2   -1    0    0  502    0  0.00000000000E+00  0.00000000000E+00  0.18132882554E+03  0.18132882554E+03  0.00000000000E+00 0. -1.
          1   -1    0    0  501    0 -0.00000000000E+00 -0.00000000000E+00 -0.34500423088E+03  0.34500423088E+03  0.00000000000E+00 0. -1.
         25    2    1    2    0    0  0.97595043002E+02  0.31592089780E+02 -0.82253261598E+02  0.18142634104E+03  0.12500826223E+03 0.  0.
          2    1    1    2  501    0 -0.13675599044E+02  0.34520160194E+02 -0.18940299072E+03  0.19300817693E+03  0.00000000000E+00 0. -1.
          1    1    1    2  502    0 -0.83919443958E+02 -0.66112249975E+02  0.10798084697E+03  0.15189853845E+03  0.00000000000E+00 0. -1.
         22    1    3    3    0    0 -0.27659504023E+02  0.40439412299E+01 -0.34900987988E+02  0.44715551948E+02  0.00000000000E+00 0.  1.
         22    1    3    3    0    0  0.12525454702E+03  0.27548148550E+02 -0.47352273609E+02  0.13671078909E+03  0.00000000000E+00 0.  1.
</event>
<event>
 7    1  0.6140348E-006  0.8554106E+02  0.7818608E-02  0.1328138E+00
          2   -1    0    0  502    0  0.00000000000E+00  0.00000000000E+00  0.24820242148E+04  0.24820242148E+04  0.00000000000E+00 0. -1.
          1   -1    0    0  501    0 -0.00000000000E+00 -0.00000000000E+00 -0.11141768244E+02  0.11141768244E+02  0.00000000000E+00 0. -1.
         25    2    1    2    0    0 -0.27300909491E+02  0.83032578324E+02  0.13499366104E+04  0.13585275895E+04  0.12501444146E+03 0.  0.
          2    1    1    2  501    0  0.75331233484E+02  0.37194180618E+01  0.54966043427E+03  0.55481097845E+03  0.00000000000E+00 0. -1.
          1    1    1    2  502    0 -0.48030323993E+02 -0.86751996386E+02  0.57128540182E+03  0.57982741504E+03  0.00000000000E+00 0. -1.
         22    1    3    3    0    0  0.81238610828E+01 -0.24588144487E+02  0.94343639915E+02  0.97833002410E+02  0.00000000000E+00 0. -1.
         22    1    3    3    0    0 -0.35424770574E+02  0.10762072281E+03  0.12555929705E+04  0.12606945871E+04  0.00000000000E+00 0. -1.
</event>
<event>
 7    1  0.6140348E-006  0.7043987E+02  0.7818608E-02  0.1403913E+00
          2   -1    0    0  502    0  0.00000000000E+00  0.00000000000E+00  0.41319174349E+03  0.41319174349E+03  0.00000000000E+00 0. -1.
          1   -1    0    0  501    0 -0.00000000000E+00 -0.00000000000E+00 -0.44391381705E+03  0.44391381705E+03  0.00000000000E+00 0. -1.
         25    2    1    2    0    0 -0.10918981788E+03  0.19159371732E+02 -0.38159249048E+02  0.17138020576E+03  0.12500219511E+03 0.  0.
          2    1    1    2  501    0  0.68164364779E+02  0.70967102368E+01 -0.33393545310E+03  0.34089533696E+03  0.00000000000E+00 0. -1.
          1    1    1    2  502    0  0.41025453101E+02 -0.26256081969E+02  0.34137262859E+03  0.34483001783E+03  0.00000000000E+00 0. -1.
         22    1    3    3    0    0 -0.13497189356E+03  0.17465274636E+02 -0.47134339602E+02  0.14402810087E+03  0.00000000000E+00 0.  1.
         22    1    3    3    0    0  0.25782075682E+02  0.16940970967E+01  0.89750905532E+01  0.27352104889E+02  0.00000000000E+00 0.  1.
</event>
<event>
 7    1  0.6140348E-006  0.7882944E+02  0.7818608E-02  0.1380869E+00
          2   -1    0    0  502    0  0.00000000000E+00  0.00000000000E+00  0.30337379681E+03  0.30337379681E+03  0.00000000000E+00 0. -1.
          1   -1    0    0  501    0 -0.00000000000E+00 -0.00000000000E+00 -0.99619487354E+03  0.99619487354E+03  0.00000000000E+00 0. -1.
         25    2    1    2    0    0 -0.34796316039E+01 -0.30549161976E+02 -0.22430583826E+03  0.25861729829E+03  0.12499775503E+03 0.  0.
          2    1    1    2  501    0 -0.32972276892E+02 -0.40653776182E+02 -0.74821210781E+03  0.75004083812E+03  0.00000000000E+00 0. -1.
          1    1    1    2  502    0  0.36451908496E+02  0.71202938159E+02  0.27969686935E+03  0.29091053394E+03  0.00000000000E+00 0. -1.
         22    1    3    3    0    0 -0.38520472683E+02 -0.41363202087E+02 -0.36541645295E+02  0.67305520899E+02  0.00000000000E+00 0.  1.
         22    1    3    3    0    0  0.35040841079E+02  0.10814040110E+02 -0.18776419297E+03  0.19131177739E+03  0.00000000000E+00 0.  1.
</event>
<event>
 7    1  0.6140348E-006  0.1200951E+03  0.7818608E-02  0.1286161E+00
          2   -1    0    0  502    0  0.00000000000E+00  0.00000000000E+00  0.53103509100E+03  0.53103509100E+03  0.00000000000E+00 0. -1.
          1   -1    0    0  501    0 -0.00000000000E+00 -0.00000000000E+00 -0.16485494678E+04  0.16485494678E+04  0.00000000000E+00 0. -1.
         25    2    1    2    0    0  0.56008879124E+02 -0.25643667745E+02 -0.37308015946E+03  0.39825597754E+03  0.12499770408E+03 0.  0.
          2    1    1    2  501    0 -0.11091770906E+03  0.82121817971E+02 -0.12560879235E+04  0.12636469455E+04  0.00000000000E+00 0. -1.
          1    1    1    2  502    0  0.54908829932E+02 -0.56478150226E+02  0.51165370615E+03  0.51768163583E+03  0.00000000000E+00 0. -1.
         22    1    3    3    0    0  0.70862294775E+02  0.32722201776E+02 -0.18575474432E+03  0.20148705256E+03  0.00000000000E+00 0. -1.
         22    1    3    3    0    0 -0.14853415651E+02 -0.58365869521E+02 -0.18732541513E+03  0.19676892498E+03  0.00000000000E+00 0. -1.
</event>
<event>
 7    1  0.6140348E-006  0.3256544E+02  0.7818608E-02  0.1599681E+00
          2   -1    0    0  502    0  0.00000000000E+00  0.00000000000E+00  0.30352206228E+04  0.30352206228E+04  0.00000000000E+00 0. -1.
          1   -1    0    0  501    0 -0.00000000000E+00 -0.00000000000E+00 -0.96589917802E+02  0.96589917802E+02  0.00000000000E+00 0. -1.
         25    2    1    2    0    0 -0.55948449874E+02  0.10022218135E+02  0.84191131117E+03  0.85303582507E+03  0.12499915630E+03 0.  0.
          2    1    1    2  501    0  0.27078876135E+02  0.40002003805E+01 -0.88849372042E+02  0.92970307346E+02  0.00000000000E+00 0. -1.
          1    1    1    2  502    0  0.28869573739E+02 -0.14022418515E+02  0.21855687659E+04  0.21858044082E+04  0.00000000000E+00 0. -1.
         22    1    3    3    0    0 -0.40301578819E+01  0.62522830959E+02  0.34031551004E+03  0.34603467013E+03  0.00000000000E+00 0.  1.
         22    1    3    3    0    0 -0.51918291992E+02 -0.52500612824E+02  0.50159580113E+03  0.50700115494E+03  0.00000000000E+00 0.  1.
</event>
<event>
 7    1  0.6140348E-006  0.9679580E+02  0.7818608E-02  0.1406492E+00
          2   -1    0    0  502    0  0.00000000000E+00  0.00000000000E+00  0.59633579579E+03  0.59633579579E+03  0.00000000000E+00 0. -1.
          1   -1    0    0  501    0 -0.00000000000E+00 -0.00000000000E+00 -0.16812064311E+04  0.16812064311E+04  0.00000000000E+00 0. -1.
         25    2    1    2    0    0 -0.49741903809E+02 -0.85628813397E+02  0.53710680161E+03  0.56028189438E+03  0.12500213662E+03 0.  0.
          2    1    1    2  501    0  0.34229846674E+02 -0.58988592898E+01 -0.16240333137E+04  0.16244047165E+04  0.00000000000E+00 0. -1.
          1    1    1    2  502    0  0.15512057135E+02  0.91527672686E+02  0.20558768592E+01  0.92855615951E+02  0.00000000000E+00 0. -1.
         22    1    3    3    0    0 -0.10333428883E+02  0.65366745136E+01  0.32966598902E+03  0.32989266767E+03  0.00000000000E+00 0. -1.
         22    1    3    3    0    0 -0.39408474926E+02 -0.92165487910E+02  0.20744081259E+03  0.23038922671E+03  0.00000000000E+00 0. -1.
</event>
<event>
 7    1  0.6140348E-006  0.8352595E+02  0.7818608E-02  0.1368449E+00
          2   -1    0    0  502    0  0.00000000000E+00  0.00000000000E+00  0.43048082195E+04  0.43048082195E+04  0.00000000000E+00 0. -1.
          1   -1    0    0  501    0 -0.00000000000E+00 -0.00000000000E+00 -0.75110820931E+02  0.75110820931E+02  0.00000000000E+00 0. -1.
         25    2    1    2    0    0 -0.13366527289E+03  0.11419556378E+02  0.44387579220E+03  0.48025710352E+03  0.12499742054E+03 0.  0.
          2    1    1    2  501    0  0.53939444718E+02  0.91558487018E+01 -0.43227657904E+02  0.69727495795E+02  0.00000000000E+00 0. -1.
          1    1    1    2  502    0  0.79725828168E+02 -0.20575405079E+02  0.38290492642E+04  0.38299344411E+04  0.00000000000E+00 0. -1.
         22    1    3    3    0    0 -0.13203853184E+03 -0.33095144877E+02  0.36668123005E+03  0.39113244173E+03  0.00000000000E+00 0. -1.
         22    1    3    3    0    0 -0.16267410471E+01  0.44514701254E+02  0.77194562148E+02  0.89124661791E+02  0.00000000000E+00 0. -1.
</event>
<event>
 7    1  0.6140348E-006  0.6451412E+02  0.7818608E-02  0.1455412E+00
          2   -1    0    0  502    0  0.00000000000E+00  0.00000000000E+00  0.96986984230E+03  0.96986984230E+03  0.00000000000E+00 0. -1.
          1   -1    0    0  501    0 -0.00000000000E+00 -0.00000000000E+00 -0.81553734794E+02  0.81553734794E+02  0.00000000000E+00 0. -1.
         25    2    1    2    0    0  0.59158417824E+02 -0.26547874616E+02  0.24677353082E+03  0.28412738592E+03  0.12500675130E+03 0.  0.
          2    1    1    2  501    0 -0.22944242684E+02 -0.27717186598E+02 -0.56079510630E+02  0.66630265028E+02  0.00000000000E+00 0. -1.
          1    1    1    2  502    0 -0.36214175140E+02  0.54265061214E+02  0.69762208732E+03  0.70066592615E+03  0.00000000000E+00 0. -1.
         22    1    3    3    0    0 -0.37157389643E+02 -0.60645128038E+01  0.39035164868E+02  0.54232776224E+02  0.00000000000E+00 0.  1.
         22    1    3    3    0    0  0.96315807467E+02 -0.20483361813E+02  0.20773836595E+03  0.22989460969E+03  0.00000000000E+00 0.  1.
</event>
<event>
 7    1  0.6140348E-006  0.9885902E+02  0.7818608E-02  0.1383138E+00
          2   -1    0    0  502    0  0.00000000000E+00  0.00000000000E+00  0.60671482131E+03  0.60671482131E+03  0.00000000000E+00 0. -1.
          1   -1    0    0  501    0 -0.00000000000E+00 -0.00000000000E+00 -0.17057636295E+04  0.17057636295E+04  0.00000000000E+00 0. -1.
         25    2    1    2    0    0 -0.93290208577E+02 -0.47930092478E+02 -0.19243450794E+02  0.16430244705E+03  0.12499850769E+03 0.  0.
          2    1    1    2  501    0 -0.53923147747E+01  0.40619562035E+02 -0.16091450960E+04  0.16096667251E+04  0.00000000000E+00 0. -1.
          1    1    1    2  502    0  0.98682523352E+02  0.73105304428E+01  0.52933973865E+03  0.53850927864E+03  0.00000000000E+00 0. -1.
         22    1    3    3    0    0 -0.82345574862E+02 -0.78543137510E+02 -0.45456668720E+02  0.12254030717E+03  0.00000000000E+00 0.  1.
         22    1    3    3    0    0 -0.10944633715E+02  0.30613045032E+02  0.26213217926E+02  0.41762139879E+02  0.00000000000E+00 0.  1.
</event>
<event>
 7    1  0.6140348E-006  0.5175467E+02  0.7818608E-02  0.1565930E+00
          2   -1    0    0  502    0  0.00000000000E+00  0.00000000000E+00  0.12219394483E+04  0.12219394483E+04  0.00000000000E+00 0. -1.
          1   -1    0    0  501    0 -0.00000000000E+00 -0.00000000000E+00 -0.28850210995E+02  0.28850210995E+02  0.00000000000E+00 0. -1.
         25    2    1    2    0    0  0.78169273251E+01  0.71499421362E+02  0.26579240308E+03  0.30239680149E+03  0.12499980963E+03 0.  0.
          2    1    1    2  501    0  0.47847941576E+00 -0.21193328659E+02  0.15632329095E+01  0.21256288936E+02  0.00000000000E+00 0. -1.
          1    1    1    2  502    0 -0.82954067408E+01 -0.50306092703E+02  0.92573360133E+03  0.92713656889E+03  0.00000000000E+00 0. -1.
         22    1    3    3    0    0 -0.33267465440E+02 -0.23460722193E+02  0.78339395002E+02  0.88284713014E+02  0.00000000000E+00 0.  1.
         22    1    3    3    0    0  0.41084392765E+02  0.94960143555E+02  0.18745300808E+03  0.21411208848E+03  0.00000000000E+00 0.  1.
</event>
<event>
 7    1  0.6140348E-006  0.3205537E+02  0.7818608E-02  0.1601107E+00
          2   -1    0    0  502    0  0.00000000000E+00  0.00000000000E+00  0.12225944881E+04  0.12225944881E+04  0.00000000000E+00 0. -1.
          1   -1    0    0  501    0 -0.00000000000E+00 -0.00000000000E+00 -0.23623452245E+02  0.23623452245E+02  0.00000000000E+00 0. -1.
         25    2    1    2    0    0 -0.42911909516E+02  0.40267461053E+02  0.29351640075E+03  0.32441528467E+03  0.12502199414E+03 0.  0.
          2    1    1    2  501    0  0.17963205704E+02 -0.20915874833E+02  0.16180346671E+02  0.31968018356E+02  0.00000000000E+00 0. -1.
          1    1    1    2  502    0  0.24948703812E+02 -0.19351586220E+02  0.88927428846E+03  0.88983463735E+03  0.00000000000E+00 0. -1.
         22    1    3    3    0    0  0.23133277166E+02  0.28768153910E+02  0.22698124191E+03  0.22996356096E+03  0.00000000000E+00 0.  1.
         22    1    3    3    0    0 -0.66045186682E+02  0.11499307143E+02  0.66535158842E+02  0.94451723705E+02  0.00000000000E+00 0.  1.
</event>
<event>
 7    1  0.6140348E-006  0.1678312E+03  0.7818608E-02  0.1293653E+00
          2   -1    0    0  502    0  0.00000000000E+00  0.00000000000E+00  0.26761366752E+03  0.26761366752E+03  0.00000000000E+00 0. -1.
          1   -1    0    0  501    0 -0.00000000000E+00 -0.00000000000E+00 -0.53371333042E+03  0.53371333042E+03  0.00000000000E+00 0. -1.
         25    2    1    2    0    0 -0.18218319368E+03  0.89690908792E+02 -0.96370143639E+02  0.25719149408E+03  0.12500033944E+03 0.  0.
          2    1    1    2  501    0  0.27178440286E+02 -0.44971421455E+02 -0.31962758504E+03  0.32391802896E+03  0.00000000000E+00 0. -1.
          1    1    1    2  502    0  0.15500475340E+03 -0.44719487337E+02  0.14989806578E+03  0.22021747489E+03  0.00000000000E+00 0. -1.
         22    1    3    3    0    0 -0.97857690264E+02  0.29984355223E+01 -0.94744370740E+02  0.13624101419E+03  0.00000000000E+00 0. -1.
         22    1    3    3    0    0 -0.84325503418E+02  0.86692473270E+02 -0.16257728984E+01  0.12095047989E+03  0.00000000000E+00 0. -1.
</event>
<event>
 7    1  0.6140348E-006  0.1001432E+03  0.7818608E-02  0.1291120E+00
          2   -1    0    0  502    0  0.00000000000E+00  0.00000000000E+00  0.17767075246E+03  0.17767075246E+03  0.00000000000E+00 0. -1.
          1   -1    0    0  501    0 -0.00000000000E+00 -0.00000000000E+00 -0.72897546143E+03  0.72897546143E+03  0.00000000000E+00 0. -1.
         25    2    1    2    0    0 -0.26760300230E+02  0.74497241770E+02 -0.13687273847E+03  0.20154696350E+03  0.12498431605E+03 0.  0.
          2    1    1    2  501    0  0.89423587421E+02  0.11566660227E+02 -0.53598523800E+03  0.54351682676E+03  0.00000000000E+00 0. -1.
          1    1    1    2  502    0 -0.62663287192E+02 -0.86063901997E+02  0.12155326750E+03  0.16158242364E+03  0.00000000000E+00 0. -1.
         22    1    3    3    0    0 -0.34168564820E+02  0.10804052824E+03 -0.99690394663E+02  0.15092521775E+03  0.00000000000E+00 0.  1.
         22    1    3    3    0    0  0.74082645899E+01 -0.33543286471E+02 -0.37182343809E+02  0.50621745749E+02  0.00000000000E+00 0.  1.
</event>
<event>
 7    1  0.6140348E-006  0.1632892E+03  0.7818608E-02  0.1212382E+00
          2   -1    0    0  502    0  0.00000000000E+00  0.00000000000E+00  0.10084058174E+04  0.10084058174E+04  0.00000000000E+00 0. -1.
          1   -1    0    0  501    0 -0.00000000000E+00 -0.00000000000E+00 -0.20385044006E+04  0.20385044006E+04  0.00000000000E+00 0. -1.
         25    2    1    2    0    0  0.60581712403E+02 -0.34321054403E+02 -0.18297149900E+03  0.23227271512E+03  0.12499586428E+03 0.  0.
          2    1    1    2  501    0  0.20312524715E+00 -0.12124666116E+03 -0.18217633958E+04  0.18257937081E+04  0.00000000000E+00 0. -1.
          1    1    1    2  502    0 -0.60784837650E+02  0.15556771556E+03  0.97463631166E+03  0.98884379486E+03  0.00000000000E+00 0. -1.
         22    1    3    3    0    0  0.87429450773E+01 -0.73946988611E+02 -0.72235236610E+02  0.10374259309E+03  0.00000000000E+00 0.  1.
         22    1    3    3    0    0  0.51838767326E+02  0.39625934208E+02 -0.11073626239E+03  0.12853012203E+03  0.00000000000E+00 0.  1.
</event>
<event>
 7    1  0.6140348E-006  0.5925633E+02  0.7818608E-02  0.1421390E+00
          2   -1    0    0  502    0  0.00000000000E+00  0.00000000000E+00  0.91589502116E+03  0.91589502116E+03  0.00000000000E+00 0. -1.
          1   -1    0    0  501    0 -0.00000000000E+00 -0.00000000000E+00 -0.10242446650E+03  0.10242446650E+03  0.00000000000E+00 0. -1.
         25    2    1    2    0    0  0.86720574990E+01 -0.17348588960E+02  0.42430215244E+03  0.44275705094E+03  0.12500124589E+03 0.  0.
          2    1    1    2  501    0 -0.58996577971E+02  0.12627517287E+02 -0.81937003851E+02  0.10175324567E+03  0.00000000000E+00 0. -1.
          1    1    1    2  502    0  0.50324520472E+02  0.47210716733E+01  0.47110540607E+03  0.47380919103E+03  0.00000000000E+00 0. -1.
         22    1    3    3    0    0 -0.23552092582E+02  0.30314616237E+02  0.45146942725E+02  0.59261483781E+02  0.00000000000E+00 0. -1.
         22    1    3    3    0    0  0.32224150081E+02 -0.47663205197E+02  0.37915520972E+03  0.38349556716E+03  0.00000000000E+00 0. -1.
</event>
<event>
 7    1  0.6140348E-006  0.4623433E+02  0.7818608E-02  0.1568255E+00
          2   -1    0    0  502    0  0.00000000000E+00  0.00000000000E+00  0.31046075804E+03  0.31046075804E+03  0.00000000000E+00 0. -1.
          1   -1    0    0  501    0 -0.00000000000E+00 -0.00000000000E+00 -0.85597333977E+03  0.85597333977E+03  0.00000000000E+00 0. -1.
         25    2    1    2    0    0 -0.23498342143E+02  0.55409776330E+01 -0.11925389009E+02  0.12786609881E+03  0.12499859921E+03 0.  0.
          2    1    1    2  501    0  0.42144239782E+02 -0.19655795207E+02 -0.78484639101E+03  0.78622283401E+03  0.00000000000E+00 0. -1.
          1    1    1    2  502    0 -0.18645897639E+02  0.14114817574E+02  0.25125919829E+03  0.25234516500E+03  0.00000000000E+00 0. -1.
         22    1    3    3    0    0 -0.65298815127E+02 -0.10485038200E+01 -0.40462632715E+02  0.76826162624E+02  0.00000000000E+00 0.  1.
         22    1    3    3    0    0  0.41800472984E+02  0.65894814530E+01  0.28537243706E+02  0.51039936186E+02  0.00000000000E+00 0.  1.
</event>
<event>
 7    1  0.6140348E-006  0.4202152E+02  0.7818608E-02  0.1572596E+00
          2   -1    0    0  502    0  0.00000000000E+00  0.00000000000E+00  0.64201909118E+03  0.64201909118E+03  0.00000000000E+00 0. -1.
          1   -1    0    0  501    0 -0.00000000000E+00 -0.00000000000E+00 -0.10392519922E+04  0.10392519922E+04  0.00000000000E+00 0. -1.
         25    2    1    2    0    0 -0.13436256972E+02  0.60199968480E+02  0.30917513413E+03  0.33914512277E+03  0.12500232609E+03 0.  0.
          2    1    1    2  501    0 -0.35979419825E+01 -0.41844779875E+02 -0.10233423823E+04  0.10242038675E+04  0.00000000000E+00 0. -1.
          1    1    1    2  502    0  0.17034198954E+02 -0.18355188605E+02  0.31693434715E+03  0.31792209311E+03  0.00000000000E+00 0. -1.
         22    1    3    3    0    0  0.64816871441E+01  0.76039478107E+02  0.30366424026E+03  0.31310698700E+03  0.00000000000E+00 0. -1.
         22    1    3    3    0    0 -0.19917944116E+02 -0.15839509627E+02  0.55108938749E+01  0.26038135769E+02  0.00000000000E+00 0. -1.
</event>
<event>
 7    1  0.6140348E-006  0.6136153E+02  0.7818608E-02  0.1393477E+00
          2   -1    0    0  502    0  0.00000000000E+00  0.00000000000E+00  0.88376310773E+03  0.88376310773E+03  0.00000000000E+00 0. -1.
          1   -1    0    0  501    0 -0.00000000000E+00 -0.00000000000E+00 -0.11105495702E+03  0.11105495702E+03  0.00000000000E+00 0. -1.
         25    2    1    2    0    0 -0.13369650798E+02 -0.24002296960E+02  0.37241108016E+02  0.13329240728E+03  0.12500043157E+03 0.  0.
          2    1    1    2  501    0  0.71573955940E+02  0.45730245706E+01 -0.41017267778E+02  0.82620578421E+02  0.00000000000E+00 0. -1.
          1    1    1    2  502    0 -0.58204305142E+02  0.19429272389E+02  0.77648431047E+03  0.77890507905E+03  0.00000000000E+00 0. -1.
         22    1    3    3    0    0  0.52002719657E+02  0.87421942701E+01  0.37307800046E+01  0.52864236795E+02  0.00000000000E+00 0. -1.
         22    1    3    3    0    0 -0.65372370455E+02 -0.32744491230E+02  0.33510328011E+02  0.80428170489E+02  0.00000000000E+00 0. -1.
</event>
<event>
 7    1  0.6140348E-006  0.2119850E+03  0.7818608E-02  0.1187659E+00
          2   -1    0    0  502    0  0.00000000000E+00  0.00000000000E+00  0.31885705143E+04  0.31885705143E+04  0.00000000000E+00 0. -1.
          1   -1    0    0  501    0 -0.00000000000E+00 -0.00000000000E+00 -0.23149931035E+03  0.23149931035E+03  0.00000000000E+00 0. -1.
         25    2    1    2    0    0  0.26904318509E+03 -0.18581252384E+03  0.89926921410E+03  0.96499791718E+03  0.12500132511E+03 0.  0.
          2    1    1    2  501    0 -0.16344963158E+03  0.12438696342E+03 -0.14338749113E+03  0.25049525214E+03  0.00000000000E+00 0. -1.
          1    1    1    2  502    0 -0.10559355352E+03  0.61425560418E+02  0.22011894810E+04  0.22045766553E+04  0.00000000000E+00 0. -1.
         22    1    3    3    0    0  0.50552331328E+02 -0.30878143650E+01  0.58944934696E+02  0.77714722714E+02  0.00000000000E+00 0.  1.
         22    1    3    3    0    0  0.21849085377E+03 -0.18272470947E+03  0.84032427940E+03  0.88728319446E+03  0.00000000000E+00 0.  1.
</event>
<event>
 7    1  0.6140348E-006  0.1622830E+03  0.7818608E-02  0.1287875E+00
          2   -1    0    0  502    0  0.00000000000E+00  0.00000000000E+00  0.27101909143E+03  0.27101909143E+03  0.00000000000E+00 0. -1.
          1   -1    0    0  501    0 -0.00000000000E+00 -0.00000000000E+00 -0.10978938657E+04  0.10978938657E+04  0.00000000000E+00 0. -1.
         25    2    1    2    0    0 -0.10275197328E+03  0.90048641616E+02  0.20438794239E+02  0.18630396480E+03  0.12499878848E+03 0.  0.
          2    1    1    2  501    0  0.15248939020E+03 -0.61475958448E+02 -0.10031586963E+04  0.10165430033E+04  0.00000000000E+00 0. -1.
          1    1    1    2  502    0 -0.49737416918E+02 -0.28572683168E+02  0.15584512778E+03  0.16606598904E+03  0.00000000000E+00 0. -1.
         22    1    3    3    0    0 -0.60325215323E+01  0.82047267322E+02 -0.13746528958E+02  0.83409306731E+02  0.00000000000E+00 0.  1.
         22    1    3    3    0    0 -0.96719451749E+02  0.80013742940E+01  0.34185323197E+02  0.10289465807E+03  0.00000000000E+00 0.  1.
</event>
<event>
 7    1  0.6140348E-006  0.4797975E+02  0.7818608E-02  0.1471572E+00
          2   -1    0    0  502    0  0.00000000000E+00  0.00000000000E+00  0.30404432013E+04  0.30404432013E+04  0.00000000000E+00 0. -1.
          1   -1    0    0  501    0 -0.00000000000E+00 -0.00000000000E+00 -0.17434819490E+02  0.17434819490E+02  0.00000000000E+00 0. -1.
         25    2    1    2    0    0 -0.88951394576E+01 -0.89596722183E+02  0.46582204520E+03  0.49063788432E+03  0.12501463755E+03 0.  0.
          2    1    1    2  501    0  0.74241459666E+01  0.42402446594E+02  0.91696850829E+02  0.10129855810E+03  0.00000000000E+00 0. -1.
          1    1    1    2  502    0  0.14709934910E+01  0.47194275589E+02  0.24654894858E+04  0.24659415783E+04  0.00000000000E+00 0. -1.
         22    1    3    3    0    0 -0.23984123010E+02 -0.92804837426E+02  0.17603269455E+03  0.20043823377E+03  0.00000000000E+00 0.  1.
         22    1    3    3    0    0  0.15088983553E+02  0.32081152436E+01  0.28978935065E+03  0.29019965055E+03  0.00000000000E+00 0.  1.
</event>
<event>
 7    1  0.6140348E-006  0.3694474E+02  0.7818608E-02  0.1535339E+00
          2   -1    0    0  502    0  0.00000000000E+00  0.00000000000E+00  0.59121556462E+03  0.59121556462E+03  0.00000000000E+00 0. -1.
          1   -1    0    0  501    0 -0.00000000000E+00 -0.00000000000E+00 -0.12555903908E+04  0.12555903908E+04  0.00000000000E+00 0. -1.
         25    2    1    2    0    0 -0.29934168139E+02 -0.54516046054E+02  0.12347572461E+03  0.18638349669E+03  0.12499799828E+03 0.  0.
          2    1    1    2  501    0  0.31334320539E+02  0.18004881348E+02 -0.12231041533E+04  0.12236379306E+04  0.00000000000E+00 0. -1.
          1    1    1    2  502    0 -0.14001524001E+01  0.36511164706E+02  0.43525360248E+03  0.43678452817E+03  0.00000000000E+00 0. -1.
         22    1    3    3    0    0 -0.41318335216E+02 -0.46136358999E+02 -0.16854754227E+00  0.61933810273E+02  0.00000000000E+00 0.  1.
         22    1    3    3    0    0  0.11384167076E+02 -0.83796870551E+01  0.12364427215E+03  0.12444968642E+03  0.00000000000E+00 0.  1.
</event>
<event>
 7    1  0.6140348E-006  0.4800058E+02  0.7818608E-02  0.1533091E+00
          2   -1    0    0  502    0  0.00000000000E+00  0.00000000000E+00  0.53549844753E+02  0.53549844753E+02  0.00000000000E+00 0. -1.
          1   -1    0    0  501    0 -0.00000000000E+00 -0.00000000000E+00 -0.43576648371E+03  0.43576648371E+03  0.00000000000E+00 0. -1.
         25    2    1    2    0    0 -0.15248153145E+01  0.31836364154E+02 -0.16079430600E+03  0.20614488824E+03  0.12500010784E+03 0.  0.
          2    1    1    2  501    0 -0.23779892236E+02 -0.44346784281E+02 -0.24267494680E+03  0.24783714482E+03  0.00000000000E+00 0. -1.
          1    1    1    2  502    0  0.25304707551E+02  0.12510420126E+02  0.21252613844E+02  0.35334295397E+02  0.00000000000E+00 0. -1.
         22    1    3    3    0    0 -0.42164140453E+02  0.30425696898E+02 -0.14035351483E+02  0.53856558218E+02  0.00000000000E+00 0.  1.
         22    1    3    3    0    0  0.40639325138E+02  0.14106672563E+01 -0.14675895452E+03  0.15228833002E+03  0.00000000000E+00 0.  1.
</event>
<event>
 7    1  0.6140348E-006  0.1518200E+03  0.7818608E-02  0.1348372E+00
          2   -1    0    0  502    0  0.00000000000E+00  0.00000000000E+00  0.13689944233E+03  0.13689944233E+03  0.00000000000E+00 0. -1.
          1   -1    0    0  501    0 -0.00000000000E+00 -0.00000000000E+00 -0.40972292266E+03  0.40972292266E+03  0.00000000000E+00 0. -1.
         25    2    1    2    0    0  0.54940555307E+02  0.16304599651E+03 -0.13820161293E+03  0.25362774352E+03  0.12499953948E+03 0.  0.
          2    1    1    2  501    0  0.11290593561E+02 -0.33811183868E+02 -0.14315499360E+03  0.14752635646E+03  0.00000000000E+00 0. -1.
          1    1    1    2  502    0 -0.66231148868E+02 -0.12923481265E+03  0.85331262139E+01  0.14546826500E+03  0.00000000000E+00 0. -1.
         22    1    3    3    0    0 -0.34888041679E+02  0.41450368919E+02 -0.68003620891E+02  0.86947116053E+02  0.00000000000E+00 0. -1.
         22    1    3    3    0    0  0.89828596986E+02  0.12159562759E+03 -0.70197992041E+02  0.16668062747E+03  0.00000000000E+00 0. -1.
</event>
<event>
 7    1  0.6140348E-006  0.2075822E+03  0.7818608E-02  0.1297861E+00
          2   -1    0    0  502    0  0.00000000000E+00  0.00000000000E+00  0.16698653230E+04  0.16698653230E+04  0.00000000000E+00 0. -1.
          1   -1    0    0  501    0 -0.00000000000E+00 -0.00000000000E+00 -0.50724946664E+03  0.50724946664E+03  0.00000000000E+00 0. -1.
         25    2    1    2    0    0  0.13794390724E+03 -0.12677558093E+03  0.42094447559E+03  0.47741323558E+03  0.12501430522E+03 0.  0.
          2    1    1    2  501    0 -0.17608171305E+03  0.11212018638E+03 -0.45590782306E+03  0.50142561661E+03  0.00000000000E+00 0. -1.
          1    1    1    2  502    0  0.38137805814E+02  0.14655394558E+02  0.11975792039E+04  0.11982759375E+04  0.00000000000E+00 0. -1.
         22    1    3    3    0    0  0.12249096538E+03 -0.31136798124E+02  0.20660814060E+03  0.24219921668E+03  0.00000000000E+00 0.  1.
         22    1    3    3    0    0  0.15452941858E+02 -0.95638782810E+02  0.21433633499E+03  0.23521401890E+03  0.00000000000E+00 0.  1.
</event>
<event>
 7    1  0.6140348E-006  0.8804282E+02  0.7818608E-02  0.1368928E+00
          2   -1    0    0  502    0  0.00000000000E+00  0.00000000000E+00  0.18673455324E+04  0.18673455324E+04  0.00000000000E+00 0. -1.
          1   -1    0    0  501    0 -0.00000000000E+00 -0.00000000000E+00 -0.20559249096E+03  0.20559249096E+03  0.00000000000E+00 0. -1.
         25    2    1    2    0    0 -0.10643452388E+02  0.13280450300E+03  0.12500630396E+04  0.12633421130E+04  0.12500148936E+03 0.  0.
          2    1    1    2  501    0 -0.12881011308E+02 -0.86768518579E+02 -0.18811769610E+03  0.20756436075E+03  0.00000000000E+00 0. -1.
          1    1    1    2  502    0  0.23524463696E+02 -0.46035984421E+02  0.59980769794E+03  0.60203154964E+03  0.00000000000E+00 0. -1.
         22    1    3    3    0    0  0.36349100533E+01  0.15537964193E+03  0.10990038683E+04  0.11099394345E+04  0.00000000000E+00 0. -1.
         22    1    3    3    0    0 -0.14278362441E+02 -0.22575138935E+02  0.15105917130E+03  0.15340267849E+03  0.00000000000E+00 0. -1.
</event>
<event>
 7    1  0.6140348E-006  0.9283892E+02  0.7818608E-02  0.1353968E+00
          2   -1    0    0  502    0  0.00000000000E+00  0.00000000000E+00  0.10841821374E+04  0.10841821374E+04  0.00000000000E+00 0. -1.
          1   -1    0    0  501    0 -0.00000000000E+00 -0.00000000000E+00 -0.64399709984E+03  0.64399709984E+03  0.00000000000E+00 0. -1.
         25    2    1    2    0    0  0.89647929770E+02  0.44681752278E+02  0.12058318120E+03  0.20049667699E+03  0.12500161438E+03 0.  0.
          2    1    1    2  501    0 -0.46979474969E+02 -0.80298893478E+02 -0.59961384559E+03  0.60678805788E+03  0.00000000000E+00 0. -1.
          1    1    1    2  502    0 -0.42668454800E+02  0.35617141200E+02  0.91921570199E+03  0.92089450241E+03  0.00000000000E+00 0. -1.
         22    1    3    3    0    0 -0.76866103712E+00  0.61561723541E+02  0.21279095283E+02  0.65140130037E+02  0.00000000000E+00 0. -1.
         22    1    3    3    0    0  0.90416590807E+02 -0.16879971262E+02  0.99304085920E+02  0.13535654695E+03  0.00000000000E+00 0. -1.
</event>
<event>
 7    1  0.6140348E-006  0.9436463E+02  0.7818608E-02  0.1310295E+00
          2   -1    0    0  502    0  0.00000000000E+00  0.00000000000E+00  0.12699847586E+04  0.12699847586E+04  0.00000000000E+00 0. -1.
          1   -1    0    0  501    0 -0.00000000000E+00 -0.00000000000E+00 -0.83119659314E+03  0.83119659314E+03  0.00000000000E+00 0. -1.
         25    2    1    2    0    0 -0.59413787168E+02 -0.15491167394E+03  0.49193980146E+03  0.53400109275E+03  0.12499909588E+03 0.  0.
          2    1    1    2  501    0  0.33617498275E+02  0.72816345994E+02 -0.80572309248E+03  0.80970492045E+03  0.00000000000E+00 0. -1.
          1    1    1    2  502    0  0.25796288893E+02  0.82095327945E+02  0.75257145645E+03  0.75747533851E+03  0.00000000000E+00 0. -1.
         22    1    3    3    0    0  0.97917156784E+01 -0.55782618807E+02  0.31278143259E+03  0.31786758695E+03  0.00000000000E+00 0. -1.
         22    1    3    3    0    0 -0.69205502847E+02 -0.99129055133E+02  0.17915836886E+03  0.21613350580E+03  0.00000000000E+00 0. -1.
</event>
<event>
 7    1  0.6140348E-006  0.8903584E+02  0.7818608E-02  0.1309549E+00
          2   -1    0    0  502    0  0.00000000000E+00  0.00000000000E+00  0.43394795744E+03  0.43394795744E+03  0.00000000000E+00 0. -1.
          1   -1    0    0  501    0 -0.00000000000E+00 -0.00000000000E+00 -0.69353275794E+03  0.69353275794E+03  0.00000000000E+00 0. -1.
         25    2    1    2    0    0  0.10667591268E+03 -0.13249319016E+03 -0.65739665380E+02  0.22109019609E+03  0.12499990166E+03 0.  0.
          2    1    1    2  501    0 -0.44063165526E+02  0.73363857033E+02 -0.54150355977E+03  0.54822433667E+03  0.00000000000E+00 0. -1.
          1    1    1    2  502    0 -0.62612747158E+02  0.59129333127E+02  0.34765842465E+03  0.35816618262E+03  0.00000000000E+00 0. -1.
         22    1    3    3    0    0  0.11782937928E+03 -0.10845402297E+03 -0.11298726689E+02  0.16054189156E+03  0.00000000000E+00 0.  1.
         22    1    3    3    0    0 -0.11153466592E+02 -0.24039167187E+02 -0.54440938691E+02  0.60548304531E+02  0.00000000000E+00 0.  1.
</event>
<event>
 7    1  0.6140348E-006  0.9020184E+02  0.7818608E-02  0.1479112E+00
          2   -1    0    0  502    0  0.00000000000E+00  0.00000000000E+00  0.12533928992E+04  0.12533928992E+04  0.00000000000E+00 0. -1.
          1   -1    0    0  501    0 -0.00000000000E+00 -0.00000000000E+00 -0.92173823705E+02  0.92173823705E+02  0.00000000000E+00 0. -1.
         25    2    1    2    0    0  0.50570688673E+02  0.57191634058E+02  0.10443131451E+04  0.10545332309E+04  0.12498845003E+03 0.  0.
          2    1    1    2  501    0 -0.72133434682E+02 -0.54733189498E+02 -0.62689585023E+02  0.11013146009E+03  0.00000000000E+00 0. -1.
          1    1    1    2  502    0  0.21562746009E+02 -0.24584445602E+01  0.17959551543E+03  0.18090203185E+03  0.00000000000E+00 0. -1.
         22    1    3    3    0    0  0.13354083705E+02 -0.36215872721E+02  0.46139154603E+03  0.46300332584E+03  0.00000000000E+00 0. -1.
         22    1    3    3    0    0  0.37216604969E+02  0.93407506779E+02  0.58292159904E+03  0.59152990510E+03  0.00000000000E+00 0. -1.
</event>
<event>
 7    1  0.6140348E-006  0.1433372E+03  0.7818608E-02  0.1337156E+00
          2   -1    0    0  502    0  0.00000000000E+00  0.00000000000E+00  0.27710680645E+04  0.27710680645E+04  0.00000000000E+00 0. -1.
          1   -1    0    0  501    0 -0.00000000000E+00 -0.00000000000E+00 -0.16947463476E+03  0.16947463476E+03  0.00000000000E+00 0. -1.
         25    2    1    2    0    0  0.89320383593E+02  0.58019389559E+02  0.73842912578E+03  0.75647038301E+03  0.12500194432E+03 0.  0.
          2    1    1    2  501    0 -0.13062132695E+03 -0.62929357163E+02 -0.12743838123E+03  0.19303516793E+03  0.00000000000E+00 0. -1.
          1    1    1    2  502    0  0.41300943361E+02  0.49099676041E+01  0.19906026852E+04  0.19910371483E+04  0.00000000000E+00 0. -1.
         22    1    3    3    0    0  0.88109580586E+02  0.23123972731E+02  0.23819827910E+03  0.25502242347E+03  0.00000000000E+00 0. -1.
         22    1    3    3    0    0  0.12108030077E+01  0.34895416827E+02  0.50023084668E+03  0.50144795955E+03  0.00000000000E+00 0. -1.
</event>
<event>
 7    1  0.6140348E-006  0.8674929E+02  0.7818608E-02  0.1349027E+00
          2   -1    0    0  502    0  0.00000000000E+00  0.00000000000E+00  0.41402953521E+04  0.41402953521E+04  0.00000000000E+00 0. -1.
          1   -1    0    0  501    0 -0.00000000000E+00 -0.00000000000E+00 -0.24946722046E+03  0.24946722046E+03  0.00000000000E+00 0. -1.
         25    2    1    2    0    0  0.74798986171E+02 -0.12491713057E+03  0.13878338164E+03  0.23682102025E+03  0.12499676303E+03 0.  0.
          2    1    1    2  501    0 -0.38256789336E+02  0.74784891491E+02 -0.19139298453E+03  0.20901587608E+03  0.00000000000E+00 0. -1.
          1    1    1    2  502    0 -0.36542196835E+02  0.50132239080E+02  0.39434377345E+04  0.39439256762E+04  0.00000000000E+00 0. -1.
         22    1    3    3    0    0 -0.81141600355E+01 -0.13563203675E+02  0.87349518282E+02  0.88767890766E+02  0.00000000000E+00 0. -1.
         22    1    3    3    0    0  0.82913146206E+02 -0.11135392690E+03  0.51433863359E+02  0.14805312948E+03  0.00000000000E+00 0. -1.
</event>
<event>
 7    1  0.6140348E-006  0.9535824E+02  0.7818608E-02  0.1364939E+00
          2   -1    0    0  502    0  0.00000000000E+00  0.00000000000E+00  0.30814472911E+04  0.30814472911E+04  0.00000000000E+00 0. -1.
          1   -1    0    0  501    0 -0.00000000000E+00 -0.00000000000E+00 -0.37762856256E+03  0.37762856256E+03  0.00000000000E+00 0. -1.
         25    2    1    2    0    0  0.17466082079E+02  0.88922397191E+02  0.22679517084E+03  0.27436270703E+03  0.12500635482E+03 0.  0.
          2    1    1    2  501    0 -0.49317334265E+02  0.15724572549E+01 -0.35130737193E+03  0.35475560835E+03  0.00000000000E+00 0. -1.
          1    1    1    2  502    0  0.31851252186E+02 -0.90494854446E+02  0.28283309297E+04  0.28299575383E+04  0.00000000000E+00 0. -1.
         22    1    3    3    0    0  0.52704015259E+02  0.89207460976E+02  0.10477102852E+03  0.14735213855E+03  0.00000000000E+00 0. -1.
         22    1    3    3    0    0 -0.35237933180E+02 -0.28506378528E+00  0.12202414232E+03  0.12701056848E+03  0.00000000000E+00 0. -1.
</event>
<event>
 7    1  0.6140348E-006  0.1021075E+03  0.7818608E-02  0.1418446E+00
          2   -1    0    0  502    0  0.00000000000E+00  0.00000000000E+00  0.81528257851E+03  0.81528257851E+03  0.00000000000E+00 0. -1.
          1   -1    0    0  501    0 -0.00000000000E+00 -0.00000000000E+00 -0.18882907217E+04  0.18882907217E+04  0.00000000000E+00 0. -1.
         25    2    1    2    0    0 -0.81924293131E+02 -0.99615778682E+02 -0.21130443650E+03  0.27732664184E+03  0.12500243287E+03 0.  0.
          2    1    1    2  501    0  0.70971759257E+02  0.71681102695E+02 -0.16421392771E+04  0.16452345051E+04  0.00000000000E+00 0. -1.
          1    1    1    2  502    0  0.10952533873E+02  0.27934675987E+02  0.78043557042E+03  0.78101215336E+03  0.00000000000E+00 0. -1.
         22    1    3    3    0    0 -0.25846888056E+02 -0.33812060185E+02 -0.18065066949E+03  0.18559628613E+03  0.00000000000E+00 0. -1.
         22    1    3    3    0    0 -0.56077405075E+02 -0.65803718497E+02 -0.30653767011E+02  0.91730355717E+02  0.00000000000E+00 0. -1.
</event>
<event>
 7    1  0.6140348E-006  0.4775032E+02  0.7818608E-02  0.1488006E+00
          2   -1    0    0  502    0  0.00000000000E+00  0.00000000000E+00  0.73429847806E+02  0.73429847806E+02  0.00000000000E+00 0. -1.
          1   -1    0    0  501    0 -0.00000000000E+00 -0.00000000000E+00 -0.86854067824E+03  0.86854067824E+03  0.00000000000E+00 0. -1.
         25    2    1    2    0    0 -0.23505158713E+02  0.75448061467E+02 -0.16637522601E+03  0.22259968971E+03  0.12500001424E+03 0.  0.
          2    1    1    2  501    0 -0.37967250130E+01 -0.38324592935E+02 -0.66163191787E+03  0.66275182708E+03  0.00000000000E+00 0. -1.
          1    1    1    2  502    0  0.27301883726E+02 -0.37123468532E+02  0.32896313455E+02  0.56619009261E+02  0.00000000000E+00 0. -1.
         22    1    3    3    0    0  0.24046122300E+02  0.89092168054E+02 -0.13663574298E+03  0.16487861192E+03  0.00000000000E+00 0.  1.
         22    1    3    3    0    0 -0.47551281013E+02 -0.13644106587E+02 -0.29739483030E+02  0.57721077792E+02  0.00000000000E+00 0.  1.
</event>
<event>
 7    1  0.6140348E-006  0.1537786E+03  0.7818608E-02  0.1315948E+00
          2   -1    0    0  502    0  0.00000000000E+00  0.00000000000E+00  0.52808249671E+03  0.52808249671E+03  0.00000000000E+00 0. -1.
          1   -1    0    0  501    0 -0.00000000000E+00 -0.00000000000E+00 -0.29761811046E+03  0.29761811046E+03  0.00000000000E+00 0. -1.
         25    2    1    2    0    0 -0.11743446501E+03  0.12462821936E+03  0.33491693356E+03  0.39638008812E+03  0.12499910097E+03 0.  0.
          2    1    1    2  501    0  0.13063472308E+03 -0.79764172252E+02 -0.24071472427E+03  0.28525660821E+03  0.00000000000E+00 0. -1.
          1    1    1    2  502    0 -0.13200258072E+02 -0.44864047106E+02  0.13626217696E+03  0.14406391084E+03  0.00000000000E+00 0. -1.
         22    1    3    3    0    0 -0.10047374917E+03  0.73997275718E+02  0.11371393146E+03  0.16882366331E+03  0.00000000000E+00 0. -1.
         22    1    3    3    0    0 -0.16960715841E+02  0.50630943640E+02  0.22120300210E+03  0.22755642481E+03  0.00000000000E+00 0. -1.
</event>
<event>
 7    1  0.6140348E-006  0.6760374E+02  0.7818608E-02  0.1391354E+00
          2   -1    0    0  502    0  0.00000000000E+00  0.00000000000E+00  0.46510636661E+03  0.46510636661E+03  0.00000000000E+00 0. -1.
          1   -1    0    0  501    0 -0.00000000000E+00 -0.00000000000E+00 -0.20195127088E+03  0.20195127088E+03  0.00000000000E+00 0. -1.
         25    2    1    2    0    0  0.18796951240E+02 -0.25474020180E+01  0.23913697626E+02  0.12867454417E+03  0.12500183498E+03 0.  0.
          2    1    1    2  501    0 -0.65367442895E+02  0.33785141656E+02 -0.13832319809E+03  0.15667688252E+03  0.00000000000E+00 0. -1.
          1    1    1    2  502    0  0.46570491655E+02 -0.31237739638E+02  0.37756459619E+03  0.38170621080E+03  0.00000000000E+00 0. -1.
         22    1    3    3    0    0  0.82634938957E+01  0.61193868204E+02  0.94302153493E+01  0.62465220713E+02  0.00000000000E+00 0.  1.
         22    1    3    3    0    0  0.10533457344E+02 -0.63741270222E+02  0.14483482277E+02  0.66209323452E+02  0.00000000000E+00 0.  1.
</event>
<event>
 7    1  0.6140348E-006  0.5558465E+02  0.7818608E-02  0.1514896E+00
          2   -1    0    0  502    0  0.00000000000E+00  0.00000000000E+00  0.81338017261E+03  0.81338017261E+03  0.00000000000E+00 0. -1.
          1   -1    0    0  501    0 -0.00000000000E+00 -0.00000000000E+00 -0.16105011905E+03  0.16105011905E+03  0.00000000000E+00 0. -1.
         25    2    1    2    0    0 -0.46775982515E+02 -0.42138091749E+02 -0.58988429802E+02  0.15188234717E+03  0.12500000486E+03 0.  0.
          2    1    1    2  501    0  0.52654987474E+02  0.15261090120E+02 -0.41792120371E+02  0.68934968649E+02  0.00000000000E+00 0. -1.
          1    1    1    2  502    0 -0.58790049595E+01  0.26877001629E+02  0.75311060373E+03  0.75361297585E+03  0.00000000000E+00 0. -1.
         22    1    3    3    0    0 -0.86458606143E+02 -0.13132619889E+02 -0.53270526240E+02  0.10239777950E+03  0.00000000000E+00 0. -1.
         22    1    3    3    0    0  0.39682623628E+02 -0.29005471860E+02 -0.57179035623E+01  0.49484567664E+02  0.00000000000E+00 0. -1.
</event>
<event>
 7    1  0.6140348E-006  0.1058729E+03  0.7818608E-02  0.1353020E+00
          2   -1    0    0  502    0  0.00000000000E+00  0.00000000000E+00  0.84291182478E+03  0.84291182478E+03  0.00000000000E+00 0. -1.
          1   -1    0    0  501    0 -0.00000000000E+00 -0.00000000000E+00 -0.15893467556E+04  0.15893467556E+04  0.00000000000E+00 0. -1.
         25    2    1    2    0    0  0.30268158716E+02  0.11447810154E+03 -0.53130514690E+02  0.18019217980E+03  0.12499989163E+03 0.  0.
          2    1    1    2  501    0  0.17797356023E+02 -0.10429908185E+03 -0.14700077628E+04  0.14738106619E+04  0.00000000000E+00 0. -1.
          1    1    1    2  502    0 -0.48065514739E+02 -0.10179019684E+02  0.77670334665E+03  0.77825573872E+03  0.00000000000E+00 0. -1.
         22    1    3    3    0    0  0.73889496246E+02  0.57607202449E+02 -0.54719200895E+02  0.10850086809E+03  0.00000000000E+00 0. -1.
         22    1    3    3    0    0 -0.43621337531E+02  0.56870899086E+02  0.15886862044E+01  0.71691311710E+02  0.00000000000E+00 0. -1.
</event>
<event>
 7    1  0.6140348E-006  0.1777420E+03  0.7818608E-02  0.1203776E+00
          2   -1    0    0  502    0  0.00000000000E+00  0.00000000000E+00  0.20249799924E+04  0.20249799924E+04  0.00000000000E+00 0. -1.
          1   -1    0    0  501    0 -0.00000000000E+00 -0.00000000000E+00 -0.66052658243E+03  0.66052658243E+03  0.00000000000E+00 0. -1.
         25    2    1    2    0    0 -0.94267316077E+02 -0.13789310828E+03  0.46702869958E+03  0.51150910969E+03  0.12499970749E+03 0.  0.
          2    1    1    2  501    0  0.11136895547E+03 -0.50160663956E+02 -0.62656214190E+03  0.63835668252E+03  0.00000000000E+00 0. -1.
          1    1    1    2  502    0 -0.17101639388E+02  0.18805377224E+03  0.15239868523E+04  0.15356407826E+04  0.00000000000E+00 0. -1.
         22    1    3    3    0    0 -0.55450379015E+02 -0.77108764931E+02  0.40621495825E+03  0.41717034706E+03  0.00000000000E+00 0.  1.
         22    1    3    3    0    0 -0.38816937063E+02 -0.60784343352E+02  0.60813741330E+02  0.94338762628E+02  0.00000000000E+00 0.  1.
</event>
<event>
 7    1  0.6140348E-006  0.1330405E+03  0.7818608E-02  0.1299792E+00
          2   -1    0    0  502    0  0.00000000000E+00  0.00000000000E+00  0.17454048474E+04  0.17454048474E+04  0.00000000000E+00 0. -1.
          1   -1    0    0  501    0 -0.00000000000E+00 -0.00000000000E+00 -0.21185366212E+03  0.21185366212E+03  0.00000000000E+00 0. -1.
         25    2    1    2    0    0 -0.86102703106E+02  0.17349453145E+03  0.82534353405E+03  0.85693079630E+03  0.12499765007E+03 0.  0.
          2    1    1    2  501    0  0.53272705552E+02 -0.12016860021E+03 -0.17279091869E+03  0.21710636844E+03  0.00000000000E+00 0. -1.
          1    1    1    2  502    0  0.32829997554E+02 -0.53325931232E+02  0.88099856989E+03  0.88322134476E+03  0.00000000000E+00 0. -1.
         22    1    3    3    0    0 -0.60001529763E+02  0.63475421141E+01  0.25398268586E+03  0.26105110530E+03  0.00000000000E+00 0.  1.
         22    1    3    3    0    0 -0.26101173343E+02  0.16714698933E+03  0.57136084819E+03  0.59587969099E+03  0.00000000000E+00 0.  1.
</event>
<event>
 7    1  0.6140348E-006  0.7591875E+02  0.7818608E-02  0.1508275E+00
          2   -1    0    0  502    0  0.00000000000E+00  0.00000000000E+00  0.43522793013E+03  0.43522793013E+03  0.00000000000E+00 0. -1.
          1   -1    0    0  501    0 -0.00000000000E+00 -0.00000000000E+00 -0.71435834956E+03  0.71435834956E+03  0.00000000000E+00 0. -1.
         25    2    1    2    0    0  0.21590520483E+01  0.62259653421E+02 -0.39161516725E+03  0.41577428433E+03  0.12499956135E+03 0.  0.
          2    1    1    2  501    0  0.52444369357E+01 -0.81981924217E+02 -0.30496263073E+03  0.31583341520E+03  0.00000000000E+00 0. -1.
          1    1    1    2  502    0 -0.74034889840E+01  0.19722270796E+02  0.41744737855E+03  0.41797858016E+03  0.00000000000E+00 0. -1.
         22    1    3    3    0    0 -0.56081342500E+02  0.25626420316E+02 -0.11234215718E+03  0.12815065616E+03  0.00000000000E+00 0. -1.
         22    1    3    3    0    0  0.58240394548E+02  0.36633233105E+02 -0.27927301008E+03  0.28762362817E+03  0.00000000000E+00 0. -1.
</event>
<event>
 7    1  0.6140348E-006  0.1257102E+03  0.7818608E-02  0.1379185E+00
          2   -1    0    0  502    0  0.00000000000E+00  0.00000000000E+00  0.28914022421E+03  0.28914022421E+03  0.00000000000E+00 0. -1.
          1   -1    0    0  501    0 -0.00000000000E+00 -0.00000000000E+00 -0.36215122189E+03  0.36215122189E+03  0.00000000000E+00 0. -1.
         25    2    1    2    0    0 -0.70702790772E+01 -0.97885505686E+02  0.12662609185E+03  0.20320302787E+03  0.12500296928E+03 0.  0.
          2    1    1    2  501    0 -0.77839438533E+01  0.12766358656E+03 -0.30865457329E+03  0.33410511329E+03  0.00000000000E+00 0. -1.
          1    1    1    2  502    0  0.14854222930E+02 -0.29778080870E+02  0.10901748376E+03  0.11398330494E+03  0.00000000000E+00 0. -1.
         22    1    3    3    0    0 -0.50074735565E+02 -0.19851214712E+01  0.62396128565E+02  0.80029349047E+02  0.00000000000E+00 0.  1.
         22    1    3    3    0    0  0.43004456487E+02 -0.95900384215E+02  0.64229963283E+02  0.12317367882E+03  0.00000000000E+00 0.  1.
</event>
<event>
 7    1  0.6140348E-006  0.7035706E+02  0.7818608E-02  0.1453702E+00
          2   -1    0    0  502    0  0.00000000000E+00  0.00000000000E+00  0.89310462083E+03  0.89310462083E+03  0.00000000000E+00 0. -1.
          1   -1    0    0  501    0 -0.00000000000E+00 -0.00000000000E+00 -0.11117381448E+03  0.11117381448E+03  0.00000000000E+00 0. -1.
         25    2    1    2    0    0  0.78961473225E+02  0.28318962975E+02  0.18758102207E+03  0.24051598116E+03  0.12499767772E+03 0.  0.
          2    1    1    2  501    0 -0.27523295238E+02  0.18937449192E+02 -0.79535189715E+02  0.86267057244E+02  0.00000000000E+00 0. -1.
          1    1    1    2  502    0 -0.51438177987E+02 -0.47256412167E+02  0.67388497400E+03  0.67749539691E+03  0.00000000000E+00 0. -1.
         22    1    3    3    0    0 -0.21730042731E+02 -0.23268689435E+02  0.17751446574E+02  0.36451893238E+02  0.00000000000E+00 0.  1.
         22    1    3    3    0    0  0.10069151596E+03  0.51587652410E+02  0.16982957549E+03  0.20406408792E+03  0.00000000000E+00 0.  1.
</event>
<event>
 7    1  0.6140348E-006  0.4489162E+02  0.7818608E-02  0.1591883E+00
          2   -1    0    0  502    0  0.00000000000E+00  0.00000000000E+00  0.19212882745E+03  0.19212882745E+03  0.00000000000E+00 0. -1.
          1   -1    0    0  501    0 -0.00000000000E+00 -0.00000000000E+00 -0.39296366206E+03  0.39296366206E+03  0.00000000000E+00 0. -1.
         25    2    1    2    0    0  0.36731820157E+02  0.88002104880E+01  0.30977488161E+02  0.13420262735E+03  0.12499628033E+03 0.  0.
          2    1    1    2  501    0 -0.16055982468E+01  0.20753982758E+02 -0.33620553417E+03  0.33684932381E+03  0.00000000000E+00 0. -1.
          1    1    1    2  502    0 -0.35126221910E+02 -0.29554193246E+02  0.10439321140E+03  0.11404053836E+03  0.00000000000E+00 0. -1.
         22    1    3    3    0    0 -0.43658816521E+02  0.17971121207E+02  0.24074743735E+02  0.52996667285E+02  0.00000000000E+00 0. -1.
         22    1    3    3    0    0  0.80390636678E+02 -0.91709107189E+01  0.69027444260E+01  0.81205960061E+02  0.00000000000E+00 0. -1.
</event>
<event>
 7    1  0.6140348E-006  0.1733637E+03  0.7818608E-02  0.1314699E+00
          2   -1    0    0  502    0  0.00000000000E+00  0.00000000000E+00  0.36383197654E+03  0.36383197654E+03  0.00000000000E+00 0. -1.
          1   -1    0    0  501    0 -0.00000000000E+00 -0.00000000000E+00 -0.70600855021E+03  0.70600855021E+03  0.00000000000E+00 0. -1.
         25    2    1    2    0    0 -0.61812786905E+02  0.18578852871E+03 -0.35303531170E+03  0.42260753624E+03  0.12500000141E+03 0.  0.
          2    1    1    2  501    0  0.70131925546E+02 -0.14466997714E+03 -0.29636147627E+03  0.33716170287E+03  0.00000000000E+00 0. -1.
          1    1    1    2  502    0 -0.83191386409E+01 -0.41118551566E+02  0.30722021429E+03  0.31007128765E+03  0.00000000000E+00 0. -1.
         22    1    3    3    0    0  0.22948214930E+02  0.12260856858E+03 -0.16436719430E+03  0.20633966225E+03  0.00000000000E+00 0.  1.
         22    1    3    3    0    0 -0.84761001835E+02  0.63179960133E+02 -0.18866811740E+03  0.21626787398E+03  0.00000000000E+00 0.  1.
</event>
<event>
 7    1  0.6140348E-006  0.2587762E+03  0.7818608E-02  0.1245732E+00
          2   -1    0    0  502    0  0.00000000000E+00  0.00000000000E+00  0.77891411089E+03  0.77891411089E+03  0.00000000000E+00 0. -1.
          1   -1    0    0  501    0 -0.00000000000E+00 -0.00000000000E+00 -0.11712886183E+04  0.11712886183E+04  0.00000000000E+00 0. -1.
         25    2    1    2    0    0 -0.20667397843E+03  0.83870351428E+02  0.43982907020E+03  0.50874650264E+03  0.12500009499E+03 0.  0.
          2    1    1    2  501    0  0.22160882896E+03 -0.13595919246E+03 -0.11193981504E+04  0.11491943239E+04  0.00000000000E+00 0. -1.
          1    1    1    2  502    0 -0.14934850525E+02  0.52088841032E+02  0.28719457275E+03  0.29226190265E+03  0.00000000000E+00 0. -1.
         22    1    3    3    0    0 -0.19455805700E+03  0.30752013621E+02  0.37868933347E+03  0.42685376321E+03  0.00000000000E+00 0. -1.
         22    1    3    3    0    0 -0.12115921432E+02  0.53118337807E+02  0.61139736726E+02  0.81892739424E+02  0.00000000000E+00 0. -1.
</event>
<event>
 7    1  0.6140348E-006  0.9869952E+02  0.7818608E-02  0.1302726E+00
          2   -1    0    0  502    0  0.00000000000E+00  0.00000000000E+00  0.23817507401E+04  0.23817507401E+04  0.00000000000E+00 0. -1.
          1   -1    0    0  501    0 -0.00000000000E+00 -0.00000000000E+00 -0.71345797516E+03  0.71345797516E+03  0.00000000000E+00 0. -1.
         25    2    1    2    0    0  0.12289202141E+03  0.95457182886E+02  0.54620973592E+03  0.58153605760E+03  0.12499835193E+03 0.  0.
          2    1    1    2  501    0 -0.81656725346E+02 -0.90988729344E+01 -0.69210377081E+03  0.69696358574E+03  0.00000000000E+00 0. -1.
          1    1    1    2  502    0 -0.41235296065E+02 -0.86358309951E+02  0.18141867998E+04  0.18167090719E+04  0.00000000000E+00 0. -1.
         22    1    3    3    0    0  0.12461066391E+02  0.86179401575E+02  0.20327401986E+03  0.22113908425E+03  0.00000000000E+00 0. -1.
         22    1    3    3    0    0  0.11043095502E+03  0.92777813104E+01  0.34293571605E+03  0.36039697335E+03  0.00000000000E+00 0. -1.
</event>
<event>
 7    1  0.6140348E-006  0.6145339E+02  0.7818608E-02  0.1489825E+00
          2   -1    0    0  502    0  0.00000000000E+00  0.00000000000E+00  0.46315263693E+03  0.46315263693E+03  0.00000000000E+00 0. -1.
          1   -1    0    0  501    0 -0.00000000000E+00 -0.00000000000E+00 -0.21168442611E+03  0.21168442611E+03  0.00000000000E+00 0. -1.
         25    2    1    2    0    0 -0.65433411871E+02  0.62154291794E+02  0.17446982543E+03  0.23282671999E+03  0.12499549664E+03 0.  0.
          2    1    1    2  501    0  0.43211204431E+02 -0.42680773833E+02 -0.17657120042E+03  0.18672505311E+03  0.00000000000E+00 0. -1.
          1    1    1    2  502    0  0.22222207440E+02 -0.19473517960E+02  0.25356958581E+03  0.25528528993E+03  0.00000000000E+00 0. -1.
         22    1    3    3    0    0 -0.47609470371E+02  0.14402511157E+02  0.17492027844E+03  0.18185488117E+03  0.00000000000E+00 0. -1.
         22    1    3    3    0    0 -0.17823941500E+02  0.47751780637E+02 -0.45045301413E+00  0.50971838818E+02  0.00000000000E+00 0. -1.
</event>
<event>
 7    1  0.6140348E-006  0.5826886E+02  0.7818608E-02  0.1411083E+00
          2   -1    0    0  502    0  0.00000000000E+00  0.00000000000E+00  0.28079439836E+04  0.28079439836E+04  0.00000000000E+00 0. -1.
          1   -1    0    0  501    0 -0.00000000000E+00 -0.00000000000E+00 -0.12077643279E+03  0.12077643279E+03  0.00000000000E+00 0. -1.
         25    2    1    2    0    0  0.37016579590E+02  0.96440138849E+02  0.95703222781E+03  0.97067331486E+03  0.12500028626E+03 0.  0.
          2    1    1    2  501    0 -0.38125271942E+02 -0.40561605387E+02 -0.10670719822E+03  0.12035450280E+03  0.00000000000E+00 0. -1.
          1    1    1    2  502    0  0.11086923521E+01 -0.55878533463E+02  0.18368425212E+04  0.18376925987E+04  0.00000000000E+00 0. -1.
         22    1    3    3    0    0 -0.44256012534E+02  0.49352868263E+02  0.47174633704E+03  0.47638105206E+03  0.00000000000E+00 0.  1.
         22    1    3    3    0    0  0.81272592123E+02  0.47087270587E+02  0.48528589077E+03  0.49429226280E+03  0.00000000000E+00 0.  1.
</event>
<event>
 7    1  0.6140348E-006  0.8403409E+02  0.7818608E-02  0.1411374E+00
          2   -1    0    0  502    0  0.00000000000E+00  0.00000000000E+00  0.91658245844E+03  0.91658245844E+03  0.00000000000E+00 0. -1.
          1   -1    0    0  501    0 -0.00000000000E+00 -0.00000000000E+00 -0.11559743439E+04  0.11559743439E+04  0.00000000000E+00 0. -1.
         25    2    1    2    0    0  0.58234715491E+02 -0.21407215775E+02 -0.16487207842E+03  0.21600364522E+03  0.12500088612E+03 0.  0.
          2    1    1    2  501    0 -0.85890692777E+02 -0.53936228389E+01 -0.96320095402E+03  0.96703794139E+03  0.00000000000E+00 0. -1.
          1    1    1    2  502    0  0.27655977286E+02  0.26800838614E+02  0.88868114698E+03  0.88951521573E+03  0.00000000000E+00 0. -1.
         22    1    3    3    0    0  0.86323924641E+02  0.12008917463E+02 -0.70770997547E+02  0.11227006795E+03  0.00000000000E+00 0.  1.
         22    1    3    3    0    0 -0.28089209151E+02 -0.33416133238E+02 -0.94101080869E+02  0.10373357726E+03  0.00000000000E+00 0.  1.
</event>
<event>
 7    1  0.6140348E-006  0.1081926E+03  0.7818608E-02  0.1416691E+00
          2   -1    0    0  502    0  0.00000000000E+00  0.00000000000E+00  0.11512440489E+04  0.11512440489E+04  0.00000000000E+00 0. -1.
          1   -1    0    0  501    0 -0.00000000000E+00 -0.00000000000E+00 -0.84538947330E+03  0.84538947330E+03  0.00000000000E+00 0. -1.
         25    2    1    2    0    0  0.53825909480E+02 -0.12100846228E+03  0.20830922711E+03  0.27669182510E+03  0.12500142200E+03 0.  0.
          2    1    1    2  501    0 -0.20136371875E+02  0.20455282784E+02 -0.80784860975E+03  0.80835837865E+03  0.00000000000E+00 0. -1.
          1    1    1    2  502    0 -0.33689537606E+02  0.10055317950E+03  0.90539395828E+03  0.91158331849E+03  0.00000000000E+00 0. -1.
         22    1    3    3    0    0  0.44457028488E+02 -0.13704318957E+03  0.12315908365E+03  0.18954003027E+03  0.00000000000E+00 0.  1.
         22    1    3    3    0    0  0.93688809920E+01  0.16034727289E+02  0.85150143459E+02  0.87151794826E+02  0.00000000000E+00 0.  1.
</event>
<event>
 7    1  0.6140348E-006  0.3818367E+02  0.7818608E-02  0.1596503E+00
          2   -1    0    0  502    0  0.00000000000E+00  0.00000000000E+00  0.17090184886E+03  0.17090184886E+03  0.00000000000E+00 0. -1.
          1   -1    0    0  501    0 -0.00000000000E+00 -0.00000000000E+00 -0.81822432397E+02  0.81822432397E+02  0.00000000000E+00 0. -1.
         25    2    1    2    0    0 -0.54335710071E+02  0.23986056042E+02  0.45116731005E+02  0.14555882788E+03  0.12499661069E+03 0.  0.
          2    1    1    2  501    0  0.31754610832E+02 -0.16476579439E+02 -0.18534514480E+02  0.40290956878E+02  0.00000000000E+00 0. -1.
          1    1    1    2  502    0  0.22581099238E+02 -0.75094766033E+01  0.62497199938E+02  0.66874496498E+02  0.00000000000E+00 0. -1.
         22    1    3    3    0    0  0.37028578615E+02 -0.86598714878E+00 -0.66752236247E+01  0.37635411230E+02  0.00000000000E+00 0. -1.
         22    1    3    3    0    0 -0.91364288686E+02  0.24852043191E+02  0.51791954630E+02  0.10792341665E+03  0.00000000000E+00 0. -1.
</event>
<event>
 7    1  0.6140348E-006  0.2196496E+03  0.7818608E-02  0.1168641E+00
          2   -1    0    0  502    0  0.00000000000E+00  0.00000000000E+00  0.13574409909E+04  0.13574409909E+04  0.00000000000E+00 0. -1.
          1   -1    0    0  501    0 -0.00000000000E+00 -0.00000000000E+00 -0.19772459792E+03  0.19772459792E+03  0.00000000000E+00 0. -1.
         25    2    1    2    0    0  0.17681570376E+03 -0.43491610932E+02  0.57336160559E+03  0.61442956114E+03  0.12499936607E+03 0.  0.
          2    1    1    2  501    0 -0.13712383104E+03  0.18409213017E+03 -0.91650318640E+02  0.24716925038E+03  0.00000000000E+00 0. -1.
          1    1    1    2  502    0 -0.39691872721E+02 -0.14060051924E+03  0.67800510599E+03  0.69356677726E+03  0.00000000000E+00 0. -1.
         22    1    3    3    0    0  0.85339593417E+01  0.17833690819E+02  0.79177333980E+01  0.21296936222E+02  0.00000000000E+00 0.  1.
         22    1    3    3    0    0  0.16828174442E+03 -0.61325301751E+02  0.56544387220E+03  0.59313262492E+03  0.00000000000E+00 0.  1.
</event>
<event>
 7    1  0.6140348E-006  0.2229577E+03  0.7818608E-02  0.1247197E+00
          2   -1    0    0  502    0  0.00000000000E+00  0.00000000000E+00  0.39949510324E+03  0.39949510324E+03  0.00000000000E+00 0. -1.
          1   -1    0    0  501    0 -0.00000000000E+00 -0.00000000000E+00 -0.37654869910E+03  0.37654869910E+03  0.00000000000E+00 0. -1.
         25    2    1    2    0    0 -0.13834061986E+02 -0.21325879210E+03 -0.16767596464E+03  0.29901640933E+03  0.12499956100E+03 0.  0.
          2    1    1    2  501    0  0.61537470902E+02 -0.73462380704E+01 -0.94730885481E+02  0.11320233303E+03  0.00000000000E+00 0. -1.
          1    1    1    2  502    0 -0.47703408917E+02  0.22060503017E+03  0.28535325427E+03  0.36382505999E+03  0.00000000000E+00 0. -1.
         22    1    3    3    0    0 -0.32692142073E+02 -0.96772766028E+01  0.78140189615E+00  0.34103319848E+02  0.00000000000E+00 0. -1.
         22    1    3    3    0    0  0.18858080087E+02 -0.20358151550E+03 -0.16845736654E+03  0.26491308948E+03  0.00000000000E+00 0. -1.
</event>
<event>
 7    1  0.6140348E-006  0.1039424E+03  0.7818608E-02  0.1373495E+00
          2   -1    0    0  502    0  0.00000000000E+00  0.00000000000E+00  0.16550645814E+04  0.16550645814E+04  0.00000000000E+00 0. -1.
          1   -1    0    0  501    0 -0.00000000000E+00 -0.00000000000E+00 -0.25643229748E+03  0.25643229748E+03  0.00000000000E+00 0. -1.
         25    2    1    2    0    0  0.47452201431E+02 -0.47846767738E+02  0.12407888090E+03  0.18857597449E+03  0.12499721943E+03 0.  0.
          2    1    1    2  501    0 -0.61394721511E+02  0.87643787122E+02 -0.21109814461E+03  0.23667102042E+03  0.00000000000E+00 0. -1.
          1    1    1    2  502    0  0.13942520080E+02 -0.39797019384E+02  0.14856515476E+04  0.14862498839E+04  0.00000000000E+00 0. -1.
         22    1    3    3    0    0  0.61290382149E+02  0.37688132546E+01  0.12022456969E+03  0.13499874834E+03  0.00000000000E+00 0. -1.
         22    1    3    3    0    0 -0.13838180718E+02 -0.51615580992E+02  0.38543112113E+01  0.53577226148E+02  0.00000000000E+00 0. -1.
</event>
<event>
 7    1  0.6140348E-006  0.8879107E+02  0.7818608E-02  0.1404087E+00
          2   -1    0    0  502    0  0.00000000000E+00  0.00000000000E+00  0.67963802851E+03  0.67963802851E+03  0.00000000000E+00 0. -1.
          1   -1    0    0  501    0 -0.00000000000E+00 -0.00000000000E+00 -0.31238779927E+03  0.31238779927E+03  0.00000000000E+00 0. -1.
         25    2    1    2    0    0  0.59805838233E+02 -0.22623996142E+02  0.12040138938E+03  0.18494989931E+03  0.12498554797E+03 0.  0.
          2    1    1    2  501    0 -0.66810520430E+02  0.60570952231E+02 -0.27212041464E+03  0.28667404130E+03  0.00000000000E+00 0. -1.
          1    1    1    2  502    0  0.70046821972E+01 -0.37946956088E+02  0.51896925450E+03  0.52040188717E+03  0.00000000000E+00 0. -1.
         22    1    3    3    0    0  0.90541501045E+02 -0.40542558105E+02  0.63322811775E+02  0.11769129501E+03  0.00000000000E+00 0. -1.
         22    1    3    3    0    0 -0.30735662812E+02  0.17918561963E+02  0.57078577602E+02  0.67258604300E+02  0.00000000000E+00 0. -1.
</event>
<event>
 7    1  0.6140348E-006  0.5199379E+02  0.7818608E-02  0.1441611E+00
          2   -1    0    0  502    0  0.00000000000E+00  0.00000000000E+00  0.42943572110E+03  0.42943572110E+03  0.00000000000E+00 0. -1.
          1   -1    0    0  501    0 -0.00000000000E+00 -0.00000000000E+00 -0.42120961810E+02  0.42120961810E+02  0.00000000000E+00 0. -1.
         25    2    1    2    0    0 -0.58628025262E+02 -0.37094029717E+02  0.18259527254E+03  0.23190397764E+03  0.12500083562E+03 0.  0.
          2    1    1    2  501    0  0.47497409965E+02 -0.13704812790E+02  0.31081024983E+02  0.58393971958E+02  0.00000000000E+00 0. -1.
          1    1    1    2  502    0  0.11130615297E+02  0.50798842507E+02  0.17363846176E+03  0.18125873331E+03  0.00000000000E+00 0. -1.
         22    1    3    3    0    0 -0.33975127534E+02 -0.83430125297E+02  0.10693997578E+03  0.13982508186E+03  0.00000000000E+00 0. -1.
         22    1    3    3    0    0 -0.24652897727E+02  0.46336095581E+02  0.75655296765E+02  0.92078895783E+02  0.00000000000E+00 0. -1.
</event>
<event>
 7    1  0.6140348E-006  0.3149759E+02  0.7818608E-02  0.1635513E+00
          2   -1    0    0  502    0  0.00000000000E+00  0.00000000000E+00  0.11166188709E+03  0.11166188709E+03  0.00000000000E+00 0. -1.
          1   -1    0    0  501    0 -0.00000000000E+00 -0.00000000000E+00 -0.56560816626E+03  0.56560816626E+03  0.00000000000E+00 0. -1.
         25    2    1    2    0    0 -0.17235983639E+02  0.33010087957E+02 -0.50555550152E+03  0.52210926246E+03  0.12499988718E+03 0.  0.
          2    1    1    2  501    0 -0.55413439640E+01 -0.30440300966E+02 -0.45699708786E+02  0.55188602075E+02  0.00000000000E+00 0. -1.
          1    1    1    2  502    0  0.22777327603E+02 -0.25697869906E+01  0.97308931129E+02  0.99972188810E+02  0.00000000000E+00 0. -1.
         22    1    3    3    0    0 -0.36198618848E+02  0.72312613108E+02 -0.24710521660E+03  0.26000085018E+03  0.00000000000E+00 0. -1.
         22    1    3    3    0    0  0.18962635209E+02 -0.39302525151E+02 -0.25845028491E+03  0.26210841228E+03  0.00000000000E+00 0. -1.
</event>
<event>
 7    1  0.6140348E-006  0.1443381E+03  0.7818608E-02  0.1232865E+00
          2   -1    0    0  502    0  0.00000000000E+00  0.00000000000E+00  0.29143758705E+04  0.29143758705E+04  0.00000000000E+00 0. -1.
          1   -1    0    0  501    0 -0.00000000000E+00 -0.00000000000E+00 -0.13552104413E+03  0.13552104413E+03  0.00000000000E+00 0. -1.
         25    2    1    2    0    0  0.12666788180E+03 -0.10852822063E+03  0.11989857799E+03  0.24046426903E+03  0.12499707485E+03 0.  0.
          2    1    1    2  501    0 -0.14675843402E+03 -0.36177324214E+00 -0.14074452501E+01  0.14676562860E+03  0.00000000000E+00 0. -1.
          1    1    1    2  502    0  0.20090552222E+02  0.10888999387E+03  0.26603636936E+04  0.26626670170E+04  0.00000000000E+00 0. -1.
         22    1    3    3    0    0  0.11526761165E+03 -0.13623377771E+03  0.10398015603E+03  0.20653846454E+03  0.00000000000E+00 0. -1.
         22    1    3    3    0    0  0.11400270145E+02  0.27705557081E+02  0.15918421964E+02  0.33925804491E+02  0.00000000000E+00 0. -1.
</event>
<event>
 7    1  0.6140348E-006  0.3855679E+02  0.7818608E-02  0.1580975E+00
          2   -1    0    0  502    0  0.00000000000E+00  0.00000000000E+00  0.86915373451E+03  0.86915373451E+03  0.00000000000E+00 0. -1.
          1   -1    0    0  501    0 -0.00000000000E+00 -0.00000000000E+00 -0.69128170064E+03  0.69128170064E+03  0.00000000000E+00 0. -1.
         25    2    1    2    0    0 -0.22801802839E+01 -0.14097652271E+02  0.37242602047E+02  0.13120845368E+03  0.12499881555E+03 0.  0.
          2    1    1    2  501    0 -0.16878225115E+02 -0.19658451152E+02 -0.64355810589E+03  0.64407947091E+03  0.00000000000E+00 0. -1.
          1    1    1    2  502    0  0.19158405399E+02  0.33756103423E+02  0.78418753773E+03  0.78514751056E+03  0.00000000000E+00 0. -1.
         22    1    3    3    0    0 -0.25175341697E+02  0.26427140975E+02  0.66764838745E+02  0.76090310174E+02  0.00000000000E+00 0. -1.
         22    1    3    3    0    0  0.22895161413E+02 -0.40524793246E+02 -0.29522236698E+02  0.55118143505E+02  0.00000000000E+00 0. -1.
</event>
<event>
 7    1  0.6140348E-006  0.1127116E+03  0.7818608E-02  0.1265923E+00
          2   -1    0    0  502    0  0.00000000000E+00  0.00000000000E+00  0.18467233573E+04  0.18467233573E+04  0.00000000000E+00 0. -1.
          1   -1    0    0  501    0 -0.00000000000E+00 -0.00000000000E+00 -0.11541469140E+04  0.11541469140E+04  0.00000000000E+00 0. -1.
         25    2    1    2    0    0  0.10534024793E+02  0.12573311836E+02  0.28028056794E+03  0.30732982411E+03  0.12500148067E+03 0.  0.
          2    1    1    2  501    0 -0.11228102862E+03 -0.17781608657E+02 -0.11361115928E+04  0.11417849037E+04  0.00000000000E+00 0. -1.
          1    1    1    2  502    0  0.10174700383E+03  0.52082968207E+01  0.15484074682E+04  0.15517555435E+04  0.00000000000E+00 0. -1.
         22    1    3    3    0    0  0.24342577821E+01 -0.56481167955E+02  0.12777084240E+03  0.13971913295E+03  0.00000000000E+00 0. -1.
         22    1    3    3    0    0  0.80997670110E+01  0.69054479791E+02  0.15250972554E+03  0.16761069115E+03  0.00000000000E+00 0. -1.
</event>
<event>
 7    1  0.6140348E-006  0.9993029E+02  0.7818608E-02  0.1404744E+00
          2   -1    0    0  502    0  0.00000000000E+00  0.00000000000E+00  0.22047245716E+04  0.22047245716E+04  0.00000000000E+00 0. -1.
          1   -1    0    0  501    0 -0.00000000000E+00 -0.00000000000E+00 -0.38934033422E+03  0.38934033422E+03  0.00000000000E+00 0. -1.
         25    2    1    2    0    0  0.10256450229E+03 -0.53660824449E+02  0.18050123146E+04  0.18130343958E+04  0.12500121386E+03 0.  0.
          2    1    1    2  501    0 -0.33080076066E+02  0.83180450664E+01 -0.38020811480E+03  0.38173510693E+03  0.00000000000E+00 0. -1.
          1    1    1    2  502    0 -0.69484426221E+02  0.45342779382E+02  0.39058003760E+03  0.39929540306E+03  0.00000000000E+00 0. -1.
         22    1    3    3    0    0  0.93981431485E+01 -0.37049867393E+02  0.13401398790E+03  0.13935841102E+03  0.00000000000E+00 0.  1.
         22    1    3    3    0    0  0.93166359139E+02 -0.16610957056E+02  0.16709983267E+04  0.16736759848E+04  0.00000000000E+00 0.  1.
</event>
<event>
 7    1  0.6140348E-006  0.6427200E+02  0.7818608E-02  0.1483317E+00
          2   -1    0    0  502    0  0.00000000000E+00  0.00000000000E+00  0.26984701754E+04  0.26984701754E+04  0.00000000000E+00 0. -1.
          1   -1    0    0  501    0 -0.00000000000E+00 -0.00000000000E+00 -0.32325673828E+03  0.32325673828E+03  0.00000000000E+00 0. -1.
         25    2    1    2    0    0  0.27657419548E+02 -0.44921720738E+02  0.65601781963E+03  0.66990100216E+03  0.12500031668E+03 0.  0.
          2    1    1    2  501    0 -0.54938786804E+02  0.33519768054E+02 -0.31293297088E+03  0.31948222080E+03  0.00000000000E+00 0. -1.
          1    1    1    2  502    0  0.27281367256E+02  0.11401952683E+02  0.20321285883E+04  0.20323436907E+04  0.00000000000E+00 0. -1.
         22    1    3    3    0    0  0.16681631544E+02 -0.59935383364E+02  0.13604115896E+03  0.14959185787E+03  0.00000000000E+00 0.  1.
         22    1    3    3    0    0  0.10975788004E+02  0.15013662626E+02  0.51997666066E+03  0.52030914428E+03  0.00000000000E+00 0.  1.
</event>
<event>
 7    1  0.6140348E-006  0.2843566E+02  0.7818608E-02  0.1640566E+00
          2   -1    0    0  502    0  0.00000000000E+00  0.00000000000E+00  0.16898312957E+03  0.16898312957E+03  0.00000000000E+00 0. -1.
          1   -1    0    0  501    0 -0.00000000000E+00 -0.00000000000E+00 -0.46454627588E+03  0.46454627588E+03  0.00000000000E+00 0. -1.
         25    2    1    2    0    0 -0.18636414416E+02  0.20893401642E+02  0.34807875173E+02  0.13274173359E+03  0.12499971795E+03 0.  0.
          2    1    1    2  501    0 -0.10290379860E+02 -0.22416129460E+02 -0.41273864978E+03  0.41347499054E+03  0.00000000000E+00 0. -1.
          1    1    1    2  502    0  0.28926794276E+02  0.15227278176E+01  0.82367628299E+02  0.87312681316E+02  0.00000000000E+00 0. -1.
         22    1    3    3    0    0 -0.67839992051E+02  0.22064684371E+02 -0.18670648575E+01  0.71362460363E+02  0.00000000000E+00 0.  1.
         22    1    3    3    0    0  0.49203577635E+02 -0.11712827287E+01  0.36674940030E+02  0.61379273224E+02  0.00000000000E+00 0.  1.
</event>
<event>
 7    1  0.6140348E-006  0.8453781E+02  0.7818608E-02  0.1404856E+00
          2   -1    0    0  502    0  0.00000000000E+00  0.00000000000E+00  0.24081290272E+03  0.24081290272E+03  0.00000000000E+00 0. -1.
          1   -1    0    0  501    0 -0.00000000000E+00 -0.00000000000E+00 -0.44641488094E+03  0.44641488094E+03  0.00000000000E+00 0. -1.
         25    2    1    2    0    0  0.89284062614E+01  0.12361563519E+03 -0.35783189840E+03  0.39878497052E+03  0.12500097398E+03 0.  0.
          2    1    1    2  501    0 -0.15868263055E+01 -0.40253945548E+02 -0.53136192855E+02  0.66680980354E+02  0.00000000000E+00 0. -1.
          1    1    1    2  502    0 -0.73415799559E+01 -0.83361689641E+02  0.20536611304E+03  0.22176183279E+03  0.00000000000E+00 0. -1.
         22    1    3    3    0    0 -0.15030295744E+02  0.29221738592E+02 -0.55955155529E+01  0.33333610527E+02  0.00000000000E+00 0.  1.
         22    1    3    3    0    0  0.23958702005E+02  0.94393896596E+02 -0.35223638285E+03  0.36545135999E+03  0.00000000000E+00 0.  1.
</event>
<event>
 7    1  0.6140348E-006  0.5957554E+02  0.7818608E-02  0.1414797E+00
          2   -1    0    0  502    0  0.00000000000E+00  0.00000000000E+00  0.28930047491E+03  0.28930047491E+03  0.00000000000E+00 0. -1.
          1   -1    0    0  501    0 -0.00000000000E+00 -0.00000000000E+00 -0.10288197774E+04  0.10288197774E+04  0.00000000000E+00 0. -1.
         25    2    1    2    0    0 -0.51845981046E+02 -0.83664775340E+02  0.14130605627E+03  0.21279563709E+03  0.12500712477E+03 0.  0.
          2    1    1    2  501    0  0.84641935696E+01  0.52215559427E+02 -0.98593103982E+03  0.98734903783E+03  0.00000000000E+00 0. -1.
          1    1    1    2  502    0  0.43381787476E+02  0.31449215913E+02  0.10510568107E+03  0.11797557739E+03  0.00000000000E+00 0. -1.
         22    1    3    3    0    0 -0.67684762248E+02 -0.60837753389E+01  0.25662189223E+02  0.72641498598E+02  0.00000000000E+00 0.  1.
         22    1    3    3    0    0  0.15838781202E+02 -0.77581000001E+02  0.11564386704E+03  0.14015413849E+03  0.00000000000E+00 0.  1.
</event>
<event>
 7    1  0.6140348E-006  0.6704752E+02  0.7818608E-02  0.1424884E+00
          2   -1    0    0  502    0  0.00000000000E+00  0.00000000000E+00  0.12706713651E+04  0.12706713651E+04  0.00000000000E+00 0. -1.
          1   -1    0    0  501    0 -0.00000000000E+00 -0.00000000000E+00 -0.13954563743E+04  0.13954563743E+04  0.00000000000E+00 0. -1.
         25    2    1    2    0    0 -0.93485534251E+02 -0.55296155520E+00  0.82162159384E+03  0.83631721869E+03  0.12499838366E+03 0.  0.
          2    1    1    2  501    0  0.36916923905E+02  0.22995190123E+02 -0.13856694948E+04  0.13863518987E+04  0.00000000000E+00 0. -1.
          1    1    1    2  502    0  0.56568610345E+02 -0.22442228567E+02  0.43926289183E+03  0.44345862201E+03  0.00000000000E+00 0. -1.
         22    1    3    3    0    0 -0.34265246133E+02  0.54823231689E+02  0.22145585749E+03  0.23069978466E+03  0.00000000000E+00 0. -1.
         22    1    3    3    0    0 -0.59220288118E+02 -0.55376193244E+02  0.60016573636E+03  0.60561743403E+03  0.00000000000E+00 0. -1.
</event>
<event>
 7    1  0.6140348E-006  0.1272491E+03  0.7818608E-02  0.1237021E+00
          2   -1    0    0  502    0  0.00000000000E+00  0.00000000000E+00  0.13805295903E+04  0.13805295903E+04  0.00000000000E+00 0. -1.
          1   -1    0    0  501    0 -0.00000000000E+00 -0.00000000000E+00 -0.17858956053E+03  0.17858956053E+03  0.00000000000E+00 0. -1.
         25    2    1    2    0    0  0.16941320456E+02  0.38047477220E+02  0.20766485316E+03  0.24593665149E+03  0.12500210576E+03 0.  0.
          2    1    1    2  501    0  0.11355094313E+03  0.39925110277E+02 -0.13087544588E+03  0.17780948640E+03  0.00000000000E+00 0. -1.
          1    1    1    2  502    0 -0.13049226359E+03 -0.77972587497E+02  0.11251506225E+04  0.11353730130E+04  0.00000000000E+00 0. -1.
         22    1    3    3    0    0 -0.40482925430E+01 -0.48820781439E+01 -0.16006741012E+02  0.17217407393E+02  0.00000000000E+00 0.  1.
         22    1    3    3    0    0  0.20989612999E+02  0.42929555364E+02  0.22367159418E+03  0.22871924410E+03  0.00000000000E+00 0.  1.
</event>
<event>
 7    1  0.6140348E-006  0.2100756E+03  0.7818608E-02  0.1200403E+00
          2   -1    0    0  502    0  0.00000000000E+00  0.00000000000E+00  0.51307565750E+03  0.51307565750E+03  0.00000000000E+00 0. -1.
          1   -1    0    0  501    0 -0.00000000000E+00 -0.00000000000E+00 -0.11067193906E+04  0.11067193906E+04  0.00000000000E+00 0. -1.
         25    2    1    2    0    0 -0.30591124351E+02  0.11127700442E+03  0.29965320689E+03  0.34458047900E+03  0.12500109401E+03 0.  0.
          2    1    1    2  501    0  0.11090449022E+03 -0.18225985744E+03 -0.10576744367E+04  0.10789780700E+04  0.00000000000E+00 0. -1.
          1    1    1    2  502    0 -0.80313365870E+02  0.70982853023E+02  0.16437749668E+03  0.19623649909E+03  0.00000000000E+00 0. -1.
         22    1    3    3    0    0 -0.72695840619E+02  0.36188055565E+02  0.17690816141E+03  0.19465548588E+03  0.00000000000E+00 0. -1.
         22    1    3    3    0    0  0.42104716268E+02  0.75088948854E+02  0.12274504548E+03  0.14992499312E+03  0.00000000000E+00 0. -1.
</event>
<event>
 7    1  0.6140348E-006  0.8978680E+02  0.7818608E-02  0.1398834E+00
          2   -1    0    0  502    0  0.00000000000E+00  0.00000000000E+00  0.15464831165E+04  0.15464831165E+04  0.00000000000E+00 0. -1.
          1   -1    0    0  501    0 -0.00000000000E+00 -0.00000000000E+00 -0.23214250053E+02  0.23214250053E+02  0.00000000000E+00 0. -1.
         25    2    1    2    0    0 -0.69595094638E+02  0.75078453118E+02  0.88110159543E+03  0.89579322609E+03  0.12500092444E+03 0.  0.
          2    1    1    2  501    0  0.39284092906E+02  0.62453368230E+01  0.17876922511E+02  0.43609959252E+02  0.00000000000E+00 0. -1.
          1    1    1    2  502    0  0.30311001732E+02 -0.81323789941E+02  0.62429034846E+03  0.63029418117E+03  0.00000000000E+00 0. -1.
         22    1    3    3    0    0  0.36371629507E+02  0.26210716567E+02  0.25446191638E+03  0.25838104416E+03  0.00000000000E+00 0.  1.
         22    1    3    3    0    0 -0.10596672414E+03  0.48867736551E+02  0.62663967905E+03  0.63741218192E+03  0.00000000000E+00 0.  1.
</event>
<event>
 7    1  0.6140348E-006  0.1425520E+03  0.7818608E-02  0.1322179E+00
          2   -1    0    0  502    0  0.00000000000E+00  0.00000000000E+00  0.91916819298E+03  0.91916819298E+03  0.00000000000E+00 0. -1.
          1   -1    0    0  501    0 -0.00000000000E+00 -0.00000000000E+00 -0.23857657422E+03  0.23857657422E+03  0.00000000000E+00 0. -1.
         25    2    1    2    0    0 -0.89779208551E+02  0.13764871128E+03  0.32384214643E+03  0.38406470005E+03  0.12499793604E+03 0.  0.
          2    1    1    2  501    0  0.42137175684E+02 -0.13503758227E+03 -0.18329413365E+03  0.23153278305E+03  0.00000000000E+00 0. -1.
          1    1    1    2  502    0  0.47642032868E+02 -0.26111290140E+01  0.54004360599E+03  0.54214728410E+03  0.00000000000E+00 0. -1.
         22    1    3    3    0    0  0.27959945516E+02  0.45912252333E+02  0.57240356454E+02  0.78524848771E+02  0.00000000000E+00 0.  1.
         22    1    3    3    0    0 -0.11773915407E+03  0.91736458949E+02  0.26660178997E+03  0.30553985127E+03  0.00000000000E+00 0.  1.
</event>
<event>
 7    1  0.6140348E-006  0.1383892E+03  0.7818608E-02  0.1265570E+00
          2   -1    0    0  502    0  0.00000000000E+00  0.00000000000E+00  0.10322738538E+03  0.10322738538E+03  0.00000000000E+00 0. -1.
          1   -1    0    0  501    0 -0.00000000000E+00 -0.00000000000E+00 -0.22373087092E+04  0.22373087092E+04  0.00000000000E+00 0. -1.
         25    2    1    2    0    0  0.75192937428E+02  0.56890871752E+02 -0.27886990424E+03  0.31981738555E+03  0.12499674989E+03 0.  0.
          2    1    1    2  501    0  0.74658754855E+02 -0.36861228050E+02 -0.18672039203E+04  0.18690594318E+04  0.00000000000E+00 0. -1.
          1    1    1    2  502    0 -0.14985169228E+03 -0.20029643701E+02  0.11992500646E+02  0.15165927726E+03  0.00000000000E+00 0. -1.
         22    1    3    3    0    0  0.99948610337E+02  0.70064344837E+02 -0.25607866622E+03  0.28368119504E+03  0.00000000000E+00 0.  1.
         22    1    3    3    0    0 -0.24755672909E+02 -0.13173473086E+02 -0.22791238025E+02  0.36136190516E+02  0.00000000000E+00 0.  1.
</event>
<event>
 7    1  0.6140348E-006  0.9407687E+02  0.7818608E-02  0.1393352E+00
          2   -1    0    0  502    0  0.00000000000E+00  0.00000000000E+00  0.20238859226E+03  0.20238859226E+03  0.00000000000E+00 0. -1.
          1   -1    0    0  501    0 -0.00000000000E+00 -0.00000000000E+00 -0.12471241079E+04  0.12471241079E+04  0.00000000000E+00 0. -1.
         25    2    1    2    0    0  0.90572790513E+02  0.93722034003E+02 -0.77393165240E+03  0.79472214637E+03  0.12500334920E+03 0.  0.
          2    1    1    2  501    0 -0.35170109580E+02 -0.18324192272E+02 -0.45047491575E+03  0.45221716282E+03  0.00000000000E+00 0. -1.
          1    1    1    2  502    0 -0.55402680933E+02 -0.75397841730E+02  0.17967105255E+03  0.20257339093E+03  0.00000000000E+00 0. -1.
         22    1    3    3    0    0  0.75539954431E+02  0.10002709937E+03 -0.76671685825E+03  0.77689538939E+03  0.00000000000E+00 0.  1.
         22    1    3    3    0    0  0.15032836083E+02 -0.63050653686E+01 -0.72147941444E+01  0.17826756983E+02  0.00000000000E+00 0.  1.
</event>
<event>
 7    1  0.6140348E-006  0.1057189E+03  0.7818608E-02  0.1280137E+00
          2   -1    0    0  502    0  0.00000000000E+00  0.00000000000E+00  0.55310680486E+03  0.55310680486E+03  0.00000000000E+00 0. -1.
          1   -1    0    0  501    0 -0.00000000000E+00 -0.00000000000E+00 -0.62878118157E+03  0.62878118157E+03  0.00000000000E+00 0. -1.
         25    2    1    2    0    0 -0.54442132197E+02 -0.31221673543E+02  0.10666679716E+03  0.17589803860E+03  0.12499430270E+03 0.  0.
          2    1    1    2  501    0  0.72587766561E+02 -0.76860301965E+02 -0.58202723017E+03  0.59155066269E+03  0.00000000000E+00 0. -1.
          1    1    1    2  502    0 -0.18145634364E+02  0.10808197551E+03  0.39968605630E+03  0.41443928515E+03  0.00000000000E+00 0. -1.
         22    1    3    3    0    0  0.51578588379E+01  0.72562220542E+01  0.10454641674E+03  0.10492478030E+03  0.00000000000E+00 0. -1.
         22    1    3    3    0    0 -0.59599991035E+02 -0.38477895597E+02  0.21203804225E+01  0.70973258303E+02  0.00000000000E+00 0. -1.
</event>
<event>
 7    1  0.6140348E-006  0.1026549E+03  0.7818608E-02  0.1397301E+00
          2   -1    0    0  502    0  0.00000000000E+00  0.00000000000E+00  0.28706726116E+02  0.28706726116E+02  0.00000000000E+00 0. -1.
          1   -1    0    0  501    0 -0.00000000000E+00 -0.00000000000E+00 -0.17243944153E+04  0.17243944153E+04  0.00000000000E+00 0. -1.
         25    2    1    2    0    0 -0.63650309616E+02 -0.45145510277E+02 -0.82313105201E+03  0.83621722344E+03  0.12500014794E+03 0.  0.
          2    1    1    2  501    0 -0.76760868577E+01 -0.34370441265E+02 -0.76320780959E+03  0.76401990168E+03  0.00000000000E+00 0. -1.
          1    1    1    2  502    0  0.71326396474E+02  0.79515951543E+02 -0.10934882758E+03  0.15286401629E+03  0.00000000000E+00 0. -1.
         22    1    3    3    0    0  0.23346538838E+02 -0.19669533108E+02 -0.49068204044E+03  0.49163077224E+03  0.00000000000E+00 0.  1.
         22    1    3    3    0    0 -0.86996848454E+02 -0.25475977169E+02 -0.33244901157E+03  0.34458645120E+03  0.00000000000E+00 0.  1.
</event>
<event>
 7    1  0.6140348E-006  0.9448676E+02  0.7818608E-02  0.1298648E+00
          2   -1    0    0  502    0  0.00000000000E+00  0.00000000000E+00  0.26188538609E+03  0.26188538609E+03  0.00000000000E+00 0. -1.
          1   -1    0    0  501    0 -0.00000000000E+00 -0.00000000000E+00 -0.15894871181E+04  0.15894871181E+04  0.00000000000E+00 0. -1.
         25    2    1    2    0    0 -0.94330360069E+01 -0.20531785682E+02 -0.27981480085E+03  0.30729823671E+03  0.12500138849E+03 0.  0.
          2    1    1    2  501    0 -0.87684687221E+02  0.15869379075E+02 -0.12848034695E+04  0.12878899009E+04  0.00000000000E+00 0. -1.
          1    1    1    2  502    0  0.97117723228E+02  0.46624066069E+01  0.23701653838E+03  0.25618436655E+03  0.00000000000E+00 0. -1.
         22    1    3    3    0    0 -0.61703097756E+02 -0.48121244183E+01 -0.86070530044E+02  0.10601209816E+03  0.00000000000E+00 0. -1.
         22    1    3    3    0    0  0.52270061749E+02 -0.15719661263E+02 -0.19374427080E+03  0.20128613855E+03  0.00000000000E+00 0. -1.
</event>
<event>
 7    1  0.6140348E-006  0.7941138E+02  0.7818608E-02  0.1434418E+00
          2   -1    0    0  502    0  0.00000000000E+00  0.00000000000E+00  0.27071296370E+03  0.27071296370E+03  0.00000000000E+00 0. -1.
          1   -1    0    0  501    0 -0.00000000000E+00 -0.00000000000E+00 -0.16122284421E+04  0.16122284421E+04  0.00000000000E+00 0. -1.
         25    2    1    2    0    0 -0.46736541804E+02 -0.15176257448E+02 -0.13503813881E+04  0.13570440882E+04  0.12499656324E+03 0.  0.
          2    1    1    2  501    0 -0.32648858734E+02  0.10047059375E+02 -0.25141806492E+03  0.25372807244E+03  0.00000000000E+00 0. -1.
          1    1    1    2  502    0  0.79385400538E+02  0.51291980731E+01  0.26028397470E+03  0.27216924510E+03  0.00000000000E+00 0. -1.
         22    1    3    3    0    0  0.56846519188E+01  0.19654752668E+02 -0.38031493677E+02  0.43185866683E+02  0.00000000000E+00 0.  1.
         22    1    3    3    0    0 -0.52421193722E+02 -0.34831010116E+02 -0.13123498945E+04  0.13138582215E+04  0.00000000000E+00 0.  1.
</event>
<event>
 7    1  0.6140348E-006  0.9942596E+02  0.7818608E-02  0.1444277E+00
          2   -1    0    0  502    0  0.00000000000E+00  0.00000000000E+00  0.72498481576E+02  0.72498481576E+02  0.00000000000E+00 0. -1.
          1   -1    0    0  501    0 -0.00000000000E+00 -0.00000000000E+00 -0.73830643410E+03  0.73830643410E+03  0.00000000000E+00 0. -1.
         25    2    1    2    0    0 -0.48963420762E+02 -0.97919331404E+02 -0.23020757995E+03  0.28391330083E+03  0.12500248192E+03 0.  0.
          2    1    1    2  501    0  0.25157335741E+02  0.30678643703E+01 -0.42805831435E+03  0.42880791016E+03  0.00000000000E+00 0. -1.
          1    1    1    2  502    0  0.23806085021E+02  0.94851467034E+02 -0.75420582256E+01  0.98083704685E+02  0.00000000000E+00 0. -1.
         22    1    3    3    0    0  0.17567044384E+02  0.22469833226E+02 -0.36001393050E+02  0.45930325006E+02  0.00000000000E+00 0. -1.
         22    1    3    3    0    0 -0.66530465146E+02 -0.12038916463E+03 -0.19420618690E+03  0.23798297583E+03  0.00000000000E+00 0. -1.
</event>
<event>
 7    1  0.6140348E-006  0.1603528E+03  0.7818608E-02  0.1354419E+00
          2   -1    0    0  502    0  0.00000000000E+00  0.00000000000E+00  0.14678984500E+04  0.14678984500E+04  0.00000000000E+00 0. -1.
          1   -1    0    0  501    0 -0.00000000000E+00 -0.00000000000E+00 -0.77728059994E+02  0.77728059994E+02  0.00000000000E+00 0. -1.
         25    2    1    2    0    0  0.14958054467E+03  0.57861836861E+02  0.10978625421E+04  0.11165355512E+04  0.12500857680E+03 0.  0.
          2    1    1    2  501    0 -0.15831589193E+03 -0.27018734404E+02  0.28220825117E+02  0.16306547341E+03  0.00000000000E+00 0. -1.
          1    1    1    2  502    0  0.87353472689E+01 -0.30843102457E+02  0.26408702276E+03  0.26602548534E+03  0.00000000000E+00 0. -1.
         22    1    3    3    0    0  0.96705772801E+02 -0.68341449939E+01  0.83755049452E+03  0.84314265869E+03  0.00000000000E+00 0. -1.
         22    1    3    3    0    0  0.52874771865E+02  0.64695981854E+02  0.26031204756E+03  0.27339289250E+03  0.00000000000E+00 0. -1.
</event>
<event>
 7    1  0.6140348E-006  0.9150468E+02  0.7818608E-02  0.1333740E+00
          2   -1    0    0  502    0  0.00000000000E+00  0.00000000000E+00  0.26172300339E+04  0.26172300339E+04  0.00000000000E+00 0. -1.
          1   -1    0    0  501    0 -0.00000000000E+00 -0.00000000000E+00 -0.95440982614E+02  0.95440982614E+02  0.00000000000E+00 0. -1.
         25    2    1    2    0    0  0.43366925606E+02 -0.14261159085E+03  0.43598173187E+03  0.47741358748E+03  0.12499962758E+03 0.  0.
          2    1    1    2  501    0 -0.38615039783E+01  0.88346680329E+02 -0.47848464562E+02  0.10054612225E+03  0.00000000000E+00 0. -1.
          1    1    1    2  502    0 -0.39505421628E+02  0.54264910525E+02  0.21336557840E+04  0.21347113068E+04  0.00000000000E+00 0. -1.
         22    1    3    3    0    0  0.39016742191E+02 -0.53432801703E+02  0.33978832848E+03  0.34616972520E+03  0.00000000000E+00 0.  1.
         22    1    3    3    0    0  0.43501834158E+01 -0.89178789151E+02  0.96193403391E+02  0.13124386228E+03  0.00000000000E+00 0.  1.
</event>
<event>
 7    1  0.6140348E-006  0.8783935E+02  0.7818608E-02  0.1326032E+00
          2   -1    0    0  502    0  0.00000000000E+00  0.00000000000E+00  0.13230024782E+04  0.13230024782E+04  0.00000000000E+00 0. -1.
          1   -1    0    0  501    0 -0.00000000000E+00 -0.00000000000E+00 -0.46590719531E+03  0.46590719531E+03  0.00000000000E+00 0. -1.
         25    2    1    2    0    0 -0.10490201166E+03  0.23098727692E+01  0.51798053584E+03  0.54308297997E+03  0.12500208023E+03 0.  0.
          2    1    1    2  501    0  0.39679375728E+02 -0.63442097483E+02 -0.44772004078E+03  0.45393015708E+03  0.00000000000E+00 0. -1.
          1    1    1    2  502    0  0.65222635928E+02  0.61132224714E+02  0.78683478787E+03  0.79189653651E+03  0.00000000000E+00 0. -1.
         22    1    3    3    0    0 -0.25463757276E+02 -0.58079549986E+02  0.20190686923E+03  0.21163180504E+03  0.00000000000E+00 0.  1.
         22    1    3    3    0    0 -0.79438254381E+02  0.60389422755E+02  0.31607366661E+03  0.33145117493E+03  0.00000000000E+00 0.  1.
</event>
<event>
 7    1  0.6140348E-006  0.1533026E+03  0.7818608E-02  0.1346440E+00
          2   -1    0    0  502    0  0.00000000000E+00  0.00000000000E+00  0.10827561354E+04  0.10827561354E+04  0.00000000000E+00 0. -1.
          1   -1    0    0  501    0 -0.00000000000E+00 -0.00000000000E+00 -0.26382442668E+03  0.26382442668E+03  0.00000000000E+00 0. -1.
         25    2    1    2    0    0  0.10556648639E+03  0.95373590820E+02 -0.14129356665E+03  0.23628317922E+03  0.12500185571E+03 0.  0.
          2    1    1    2  501    0 -0.13483609901E+03 -0.11614471356E+03  0.31317263659E+02  0.18069626197E+03  0.00000000000E+00 0. -1.
          1    1    1    2  502    0  0.29269612619E+02  0.20771122742E+02  0.92890801166E+03  0.92960112086E+03  0.00000000000E+00 0. -1.
         22    1    3    3    0    0 -0.23161150915E+02  0.32806006513E+02 -0.58428936218E+02  0.70898614673E+02  0.00000000000E+00 0.  1.
         22    1    3    3    0    0  0.12872763731E+03  0.62567584307E+02 -0.82864630429E+02  0.16538456454E+03  0.00000000000E+00 0.  1.
</event>
<event>
 7    1  0.6140348E-006  0.5544720E+02  0.7818608E-02  0.1551166E+00
          2   -1    0    0  502    0  0.00000000000E+00  0.00000000000E+00  0.19550115669E+04  0.19550115669E+04  0.00000000000E+00 0. -1.
          1   -1    0    0  501    0 -0.00000000000E+00 -0.00000000000E+00 -0.37915472083E+03  0.37915472083E+03  0.00000000000E+00 0. -1.
         25    2    1    2    0    0 -0.30382160288E+02  0.17268735298E+02  0.76287011101E+02  0.15055233903E+03  0.12500005536E+03 0.  0.
          2    1    1    2  501    0 -0.13459138920E+02  0.17062559886E+02 -0.34125541497E+03  0.34194668827E+03  0.00000000000E+00 0. -1.
          1    1    1    2  502    0  0.43841299208E+02 -0.34331295184E+02  0.18408252500E+04  0.18416672605E+04  0.00000000000E+00 0. -1.
         22    1    3    3    0    0  0.11175296687E+02 -0.44185899282E+01 -0.31121154243E+02  0.33360716935E+02  0.00000000000E+00 0.  1.
         22    1    3    3    0    0 -0.41557456975E+02  0.21687325226E+02  0.10740816534E+03  0.11719162209E+03  0.00000000000E+00 0.  1.
</event>
<event>
 7    1  0.6140348E-006  0.3282805E+02  0.7818608E-02  0.1586421E+00
          2   -1    0    0  502    0  0.00000000000E+00  0.00000000000E+00  0.25136283834E+02  0.25136283834E+02  0.00000000000E+00 0. -1.
          1   -1    0    0  501    0 -0.00000000000E+00 -0.00000000000E+00 -0.63573199819E+03  0.63573199819E+03  0.00000000000E+00 0. -1.
         25    2    1    2    0    0  0.15811390509E+02  0.35095308535E+02 -0.38814095857E+03  0.40958543446E+03  0.12500057457E+03 0.  0.
          2    1    1    2  501    0 -0.29052441983E+02 -0.46992650219E+01 -0.21538021230E+03  0.21738160761E+03  0.00000000000E+00 0. -1.
          1    1    1    2  502    0  0.13241051474E+02 -0.30396043513E+02 -0.70745434838E+01  0.33901239961E+02  0.00000000000E+00 0. -1.
         22    1    3    3    0    0 -0.14735651630E+02  0.72614970855E+02 -0.30025253287E+03  0.30925985339E+03  0.00000000000E+00 0.  1.
         22    1    3    3    0    0  0.30547042139E+02 -0.37519662321E+02 -0.87888425704E+02  0.10032558107E+03  0.00000000000E+00 0.  1.
</event>
<event>
 7    1  0.6140348E-006  0.8893812E+02  0.7818608E-02  0.1402108E+00
          2   -1    0    0  502    0  0.00000000000E+00  0.00000000000E+00  0.10810371143E+04  0.10810371143E+04  0.00000000000E+00 0. -1.
          1   -1    0    0  501    0 -0.00000000000E+00 -0.00000000000E+00 -0.36951036257E+03  0.36951036257E+03  0.00000000000E+00 0. -1.
         25    2    1    2    0    0 -0.41746144500E+02  0.10247408640E+03 -0.72448031313E+02  0.18198100108E+03  0.12499875418E+03 0.  0.
          2    1    1    2  501    0  0.36567516745E+02 -0.13927253127E+02 -0.23878392314E+03  0.24196882777E+03  0.00000000000E+00 0. -1.
          1    1    1    2  502    0  0.51786277544E+01 -0.88546833275E+02  0.10227587061E+04  0.10265976480E+04  0.00000000000E+00 0. -1.
         22    1    3    3    0    0 -0.37738182415E+02  0.12637741316E+03 -0.82689041731E+02  0.15566919603E+03  0.00000000000E+00 0.  1.
         22    1    3    3    0    0 -0.40079620849E+01 -0.23903326763E+02  0.10241010418E+02  0.26311805046E+02  0.00000000000E+00 0.  1.
</event>
<event>
 7    1  0.6140348E-006  0.6052133E+02  0.7818608E-02  0.1421978E+00
          2   -1    0    0  502    0  0.00000000000E+00  0.00000000000E+00  0.28843781286E+03  0.28843781286E+03  0.00000000000E+00 0. -1.
          1   -1    0    0  501    0 -0.00000000000E+00 -0.00000000000E+00 -0.19664108910E+03  0.19664108910E+03  0.00000000000E+00 0. -1.
         25    2    1    2    0    0 -0.97540311177E+02 -0.38289105693E+02  0.28563435079E+02  0.16559083445E+03  0.12499714681E+03 0.  0.
          2    1    1    2  501    0  0.48691762836E+02  0.75014717583E+01 -0.11874999030E+03  0.12856406979E+03  0.00000000000E+00 0. -1.
          1    1    1    2  502    0  0.48848548340E+02  0.30787633935E+02  0.18198327898E+03  0.19092399772E+03  0.00000000000E+00 0. -1.
         22    1    3    3    0    0 -0.10361898761E+03 -0.73704221387E+02  0.23274468611E+02  0.12927067623E+03  0.00000000000E+00 0.  1.
         22    1    3    3    0    0  0.60786764345E+01  0.35415115694E+02  0.52889664685E+01  0.36320158220E+02  0.00000000000E+00 0.  1.
</event>
<event>
 7    1  0.6140348E-006  0.8510533E+02  0.7818608E-02  0.1392148E+00
          2   -1    0    0  502    0  0.00000000000E+00  0.00000000000E+00  0.15664188433E+04  0.15664188433E+04  0.00000000000E+00 0. -1.
          1   -1    0    0  501    0 -0.00000000000E+00 -0.00000000000E+00 -0.22440915014E+03  0.22440915014E+03  0.00000000000E+00 0. -1.
         25    2    1    2    0    0 -0.71950040656E+01  0.41098720683E+02  0.53694944058E+03  0.55288478194E+03  0.12500402969E+03 0.  0.
          2    1    1    2  501    0  0.20702403912E+02 -0.83249642689E+02 -0.20743884324E+03  0.22447709509E+03  0.00000000000E+00 0. -1.
          1    1    1    2  502    0 -0.13507399846E+02  0.42150922006E+02  0.10124990958E+04  0.10134661164E+04  0.00000000000E+00 0. -1.
         22    1    3    3    0    0 -0.10253934299E+02  0.73953649220E+02  0.18655997538E+03  0.20094504178E+03  0.00000000000E+00 0.  1.
         22    1    3    3    0    0  0.30589302337E+01 -0.32854928537E+02  0.35038946520E+03  0.35193974016E+03  0.00000000000E+00 0.  1.
</event>
<event>
 7    1  0.6140348E-006  0.9879477E+02  0.7818608E-02  0.1373082E+00
          2   -1    0    0  502    0  0.00000000000E+00  0.00000000000E+00  0.11032100249E+04  0.11032100249E+04  0.00000000000E+00 0. -1.
          1   -1    0    0  501    0 -0.00000000000E+00 -0.00000000000E+00 -0.36958542639E+02  0.36958542639E+02  0.00000000000E+00 0. -1.
         25    2    1    2    0    0  0.94656980891E+02 -0.16327457380E+02  0.51725684723E+03  0.54074493486E+03  0.12499563462E+03 0.  0.
          2    1    1    2  501    0 -0.10904822350E+02 -0.43160580985E+02  0.38487840522E+01  0.44682927838E+02  0.00000000000E+00 0. -1.
          1    1    1    2  502    0 -0.83752158541E+02  0.59488038365E+02  0.54514585103E+03  0.55474070489E+03  0.00000000000E+00 0. -1.
         22    1    3    3    0    0  0.19906431499E+02  0.31615716892E+02  0.37852169208E+02  0.53184643304E+02  0.00000000000E+00 0. -1.
         22    1    3    3    0    0  0.74750549392E+02 -0.47943174272E+02  0.47940467802E+03  0.48756029155E+03  0.00000000000E+00 0. -1.
</event>
<event>
 7    1  0.6140348E-006  0.1113541E+03  0.7818608E-02  0.1268634E+00
          2   -1    0    0  502    0  0.00000000000E+00  0.00000000000E+00  0.21138150693E+03  0.21138150693E+03  0.00000000000E+00 0. -1.
          1   -1    0    0  501    0 -0.00000000000E+00 -0.00000000000E+00 -0.25793676248E+03  0.25793676248E+03  0.00000000000E+00 0. -1.
         25    2    1    2    0    0  0.20059893806E+02 -0.74855185918E+00  0.70110494342E+02  0.14471274063E+03  0.12499334469E+03 0.  0.
          2    1    1    2  501    0 -0.34757683708E+02  0.11112834936E+03 -0.16603871638E+03  0.20279660240E+03  0.00000000000E+00 0. -1.
          1    1    1    2  502    0  0.14697789902E+02 -0.11037979750E+03  0.49372966491E+02  0.12180892638E+03  0.00000000000E+00 0. -1.
         22    1    3    3    0    0  0.59853773169E+02  0.38117785480E+02  0.38438710219E+02  0.80702999794E+02  0.00000000000E+00 0. -1.
         22    1    3    3    0    0 -0.39793879363E+02 -0.38866337339E+02  0.31671784124E+02  0.64009740841E+02  0.00000000000E+00 0. -1.
</event>
<event>
 7    1  0.6347215E-006  0.8732117E+02  0.7818608E-02  0.1347312E+00
          2   -1    0    0  502    0  0.00000000000E+00  0.00000000000E+00  0.13442817427E+04  0.13442817427E+04  0.00000000000E+00 0. -1.
          1   -1    0    0  501    0 -0.00000000000E+00 -0.00000000000E+00 -0.68720245139E+03  0.68720245139E+03  0.00000000000E+00 0. -1.
         25    2    1    2    0    0 -0.32227997189E+02 -0.12222592298E+03 -0.19992974198E+03  0.26753465055E+03  0.12500026986E+03 0.  0.
          2    1    1    2  501    0  0.50432557555E+02  0.36985999787E+02 -0.44985523180E+03  0.45418183211E+03  0.00000000000E+00 0. -1.
          1    1    1    2  502    0 -0.18204560366E+02  0.85239923196E+02  0.13068642651E+04  0.13097677114E+04  0.00000000000E+00 0. -1.
         22    1    3    3    0    0  0.10670565447E+02 -0.13187967151E+03 -0.13422567375E+03  0.18847450814E+03  0.00000000000E+00 0.  1.
         22    1    3    3    0    0 -0.42898562636E+02  0.96537485239E+01 -0.65704068226E+02  0.79060142412E+02  0.00000000000E+00 0.  1.
</event>
<event>
 7    1  0.6140348E-006  0.6313942E+02  0.7818608E-02  0.1438480E+00
          2   -1    0    0  502    0  0.00000000000E+00  0.00000000000E+00  0.43462050136E+03  0.43462050136E+03  0.00000000000E+00 0. -1.
          1   -1    0    0  501    0 -0.00000000000E+00 -0.00000000000E+00 -0.91261595766E+02  0.91261595766E+02  0.00000000000E+00 0. -1.
         25    2    1    2    0    0  0.59968794296E+02 -0.71560041293E+02  0.26334994199E+03  0.30609680671E+03  0.12499986933E+03 0.  0.
          2    1    1    2  501    0 -0.53961516854E+02  0.30323196944E+02 -0.52321373264E+02  0.81048551340E+02  0.00000000000E+00 0. -1.
          1    1    1    2  502    0 -0.60072774419E+01  0.41236844348E+02  0.13233033687E+03  0.13873673908E+03  0.00000000000E+00 0. -1.
         22    1    3    3    0    0  0.89705237813E+02 -0.62527553627E+02  0.13343102937E+03  0.17251250462E+03  0.00000000000E+00 0.  1.
         22    1    3    3    0    0 -0.29736443517E+02 -0.90324876654E+01  0.12991891262E+03  0.13358430208E+03  0.00000000000E+00 0.  1.
</event>
<event>
 7    1  0.6140348E-006  0.9062244E+02  0.7818608E-02  0.1383044E+00
          2   -1    0    0  502    0  0.00000000000E+00  0.00000000000E+00  0.18497022690E+03  0.18497022690E+03  0.00000000000E+00 0. -1.
          1   -1    0    0  501    0 -0.00000000000E+00 -0.00000000000E+00 -0.12375443784E+03  0.12375443784E+03  0.00000000000E+00 0. -1.
         25    2    1    2    0    0  0.38348908409E+02  0.73823623057E+02  0.38686515199E+02  0.15505695202E+03  0.12500178325E+03 0.  0.
          2    1    1    2  501    0 -0.79303766630E+02 -0.55827844475E+02 -0.11220022620E+02  0.97630551202E+02  0.00000000000E+00 0. -1.
          1    1    1    2  502    0  0.40954858221E+02 -0.17995778581E+02  0.33749296479E+02  0.56037161522E+02  0.00000000000E+00 0. -1.
         22    1    3    3    0    0  0.68196974789E+02  0.66001850702E+02 -0.12057072899E+02  0.95668410008E+02  0.00000000000E+00 0. -1.
         22    1    3    3    0    0 -0.29848066380E+02  0.78217723544E+01  0.50743588099E+02  0.59388542014E+02  0.00000000000E+00 0. -1.
</event>
<event>
 7    1  0.6140348E-006  0.1127387E+03  0.7818608E-02  0.1321197E+00
          2   -1    0    0  502    0  0.00000000000E+00  0.00000000000E+00  0.10658666213E+04  0.10658666213E+04  0.00000000000E+00 0. -1.
          1   -1    0    0  501    0 -0.00000000000E+00 -0.00000000000E+00 -0.65674765057E+02  0.65674765057E+02  0.00000000000E+00 0. -1.
         25    2    1    2    0    0 -0.64745035398E+02 -0.63665898403E+01  0.50180381280E+03  0.52121406740E+03  0.12499833775E+03 0.  0.
          2    1    1    2  501    0  0.11644072192E+03 -0.25752538886E+02  0.11675883643E+02  0.11982471047E+03  0.00000000000E+00 0. -1.
          1    1    1    2  502    0 -0.51695686523E+02  0.32119128726E+02  0.48671215985E+03  0.49050260853E+03  0.00000000000E+00 0. -1.
         22    1    3    3    0    0 -0.87752358415E+01  0.56158580297E+02  0.21486225656E+03  0.22225341437E+03  0.00000000000E+00 0. -1.
         22    1    3    3    0    0 -0.55969799556E+02 -0.62525170137E+02  0.28694155625E+03  0.29896065304E+03  0.00000000000E+00 0. -1.
</event>
<event>
 7    1  0.6140348E-006  0.1709218E+03  0.7818608E-02  0.1358784E+00
          2   -1    0    0  502    0  0.00000000000E+00  0.00000000000E+00  0.10644922990E+04  0.10644922990E+04  0.00000000000E+00 0. -1.
          1   -1    0    0  501    0 -0.00000000000E+00 -0.00000000000E+00 -0.17131143444E+03  0.17131143444E+03  0.00000000000E+00 0. -1.
         25    2    1    2    0    0 -0.64955898040E+02  0.14301309064E+03  0.65310753565E+03  0.68326158901E+03  0.12499973240E+03 0.  0.
          2    1    1    2  501    0  0.46736241369E+02 -0.16555639928E+03 -0.10809510073E+03  0.20316926047E+03  0.00000000000E+00 0. -1.
          1    1    1    2  502    0  0.18219656671E+02  0.22543308636E+02  0.34816842968E+03  0.34937288400E+03  0.00000000000E+00 0. -1.
         22    1    3    3    0    0 -0.86516136219E+02  0.66822680455E+02  0.48872996636E+03  0.50080664179E+03  0.00000000000E+00 0.  1.
         22    1    3    3    0    0  0.21560238180E+02  0.76190410189E+02  0.16437756929E+03  0.18245494721E+03  0.00000000000E+00 0.  1.
</event>
<event>
 7    1  0.6140348E-006  0.6651947E+02  0.7818608E-02  0.1515835E+00
          2   -1    0    0  502    0  0.00000000000E+00  0.00000000000E+00  0.13714444122E+03  0.13714444122E+03  0.00000000000E+00 0. -1.
          1   -1    0    0  501    0 -0.00000000000E+00 -0.00000000000E+00 -0.10201394691E+04  0.10201394691E+04  0.00000000000E+00 0. -1.
         25    2    1    2    0    0  0.15276779472E+01  0.70886189190E+02 -0.63398960591E+03  0.65007274046E+03  0.12499824747E+03 0.  0.
          2    1    1    2  501    0  0.21246215775E+02 -0.83960175674E+01 -0.36916553647E+03  0.36987171845E+03  0.00000000000E+00 0. -1.
          1    1    1    2  502    0 -0.22773893722E+02 -0.62490171622E+02  0.12016011452E+03  0.13733945138E+03  0.00000000000E+00 0. -1.
         22    1    3    3    0    0 -0.51394157148E+01 -0.75816821751E+01 -0.44805559468E+03  0.44814920665E+03  0.00000000000E+00 0. -1.
         22    1    3    3    0    0  0.66670936619E+01  0.78467871365E+02 -0.18593401124E+03  0.20192353382E+03  0.00000000000E+00 0. -1.
</event>
<event>
 7    1  0.6140348E-006  0.4005659E+02  0.7818608E-02  0.1591357E+00
          2   -1    0    0  502    0  0.00000000000E+00  0.00000000000E+00  0.96592468435E+03  0.96592468435E+03  0.00000000000E+00 0. -1.
          1   -1    0    0  501    0 -0.00000000000E+00 -0.00000000000E+00 -0.26002645527E+03  0.26002645527E+03  0.00000000000E+00 0. -1.
         25    2    1    2    0    0 -0.39816096398E+02 -0.42861615646E+02  0.31119207335E+03  0.34042297172E+03  0.12499941414E+03 0.  0.
          2    1    1    2  501    0  0.22104881074E+02  0.76870466320E+01 -0.24424541218E+03  0.24536409237E+03  0.00000000000E+00 0. -1.
          1    1    1    2  502    0  0.17711215324E+02  0.35174569014E+02  0.63895156791E+03  0.64016407552E+03  0.00000000000E+00 0. -1.
         22    1    3    3    0    0 -0.40181330734E+02 -0.41858573499E+02  0.32320032372E+03  0.32836736861E+03  0.00000000000E+00 0. -1.
         22    1    3    3    0    0  0.36523433584E+00 -0.10030421477E+01 -0.12008250368E+02  0.12055603119E+02  0.00000000000E+00 0. -1.
</event>
<event>
 7    1  0.6140348E-006  0.1384133E+03  0.7818608E-02  0.1239928E+00
          2   -1    0    0  502    0  0.00000000000E+00  0.00000000000E+00  0.10553393728E+04  0.10553393728E+04  0.00000000000E+00 0. -1.
          1   -1    0    0  501    0 -0.00000000000E+00 -0.00000000000E+00 -0.19728091271E+04  0.19728091271E+04  0.00000000000E+00 0. -1.
         25    2    1    2    0    0  0.67593210248E+02  0.35178040946E+02 -0.47190305284E+02  0.15380951737E+03  0.12499642429E+03 0.  0.
          2    1    1    2  501    0 -0.31009508285E+02  0.10285740857E+03 -0.18656683981E+04  0.18687588950E+04  0.00000000000E+00 0. -1.
          1    1    1    2  502    0 -0.36583701963E+02 -0.13803544952E+03  0.99538894903E+03  0.10055800875E+04  0.00000000000E+00 0. -1.
         22    1    3    3    0    0  0.58129797219E+02  0.47527378295E+02 -0.84706565673E+02  0.11319508505E+03  0.00000000000E+00 0. -1.
         22    1    3    3    0    0  0.94634130294E+01 -0.12349337349E+02  0.37516260389E+02  0.40614432320E+02  0.00000000000E+00 0. -1.
</event>
<event>
 7    1  0.6140348E-006  0.1030180E+03  0.7818608E-02  0.1383307E+00
          2   -1    0    0  502    0  0.00000000000E+00  0.00000000000E+00  0.39387914010E+03  0.39387914010E+03  0.00000000000E+00 0. -1.
          1   -1    0    0  501    0 -0.00000000000E+00 -0.00000000000E+00 -0.14848128922E+04  0.14848128922E+04  0.00000000000E+00 0. -1.
         25    2    1    2    0    0 -0.56310733118E+02  0.12870768749E+03 -0.38164777414E+02  0.19187982524E+03  0.12499899846E+03 0.  0.
          2    1    1    2  501    0  0.47272762539E+02 -0.90494391724E+02 -0.13666631126E+04  0.13704714562E+04  0.00000000000E+00 0. -1.
          1    1    1    2  502    0  0.90379705794E+01 -0.38213295770E+02  0.31389413785E+03  0.31634075088E+03  0.00000000000E+00 0. -1.
         22    1    3    3    0    0  0.82451487364E+01  0.32091353003E+01  0.32758419243E+02  0.33932212695E+02  0.00000000000E+00 0.  1.
         22    1    3    3    0    0 -0.64555881854E+02  0.12549855219E+03 -0.70923196658E+02  0.15794761255E+03  0.00000000000E+00 0.  1.
</event>
<event>
 7    1  0.6140348E-006  0.7955697E+02  0.7818608E-02  0.1366855E+00
          2   -1    0    0  502    0  0.00000000000E+00  0.00000000000E+00  0.11671640134E+04  0.11671640134E+04  0.00000000000E+00 0. -1.
          1   -1    0    0  501    0 -0.00000000000E+00 -0.00000000000E+00 -0.77492294203E+03  0.77492294203E+03  0.00000000000E+00 0. -1.
         25    2    1    2    0    0  0.45722484466E+02 -0.38050979874E+02  0.72504177739E+02  0.15627474957E+03  0.12500607549E+03 0.  0.
          2    1    1    2  501    0  0.34777852090E+02  0.46673833027E+02 -0.73032151371E+03  0.73263733120E+03  0.00000000000E+00 0. -1.
          1    1    1    2  502    0 -0.80500336556E+02 -0.86228531538E+01  0.10500584074E+04  0.10531748747E+04  0.00000000000E+00 0. -1.
         22    1    3    3    0    0  0.34595176847E+02  0.15531291464E+02 -0.24323598557E+02  0.45052022400E+02  0.00000000000E+00 0. -1.
         22    1    3    3    0    0  0.11127307619E+02 -0.53582271337E+02  0.96827776296E+02  0.11122272717E+03  0.00000000000E+00 0. -1.
</event>
<event>
 7    1  0.6140348E-006  0.8287041E+02  0.7818608E-02  0.1360835E+00
          2   -1    0    0  502    0  0.00000000000E+00  0.00000000000E+00  0.24700829542E+03  0.24700829542E+03  0.00000000000E+00 0. -1.
          1   -1    0    0  501    0 -0.00000000000E+00 -0.00000000000E+00 -0.30774491085E+04  0.30774491085E+04  0.00000000000E+00 0. -1.
         25    2    1    2    0    0  0.10696203558E+03 -0.67804791278E+02 -0.61785673124E+00  0.17794941168E+03  0.12500897805E+03 0.  0.
          2    1    1    2  501    0 -0.30150165717E+02  0.50436627475E+02 -0.29780660713E+04  0.29786457344E+04  0.00000000000E+00 0. -1.
          1    1    1    2  502    0 -0.76811869864E+02  0.17368163803E+02  0.14824311498E+03  0.16786225783E+03  0.00000000000E+00 0. -1.
         22    1    3    3    0    0  0.19827414334E+02 -0.47933064870E+02 -0.53161963274E+02  0.74275833258E+02  0.00000000000E+00 0. -1.
         22    1    3    3    0    0  0.87134621247E+02 -0.19871726408E+02  0.52544106542E+02  0.10367357842E+03  0.00000000000E+00 0. -1.
</event>
<event>
 7    1  0.6140348E-006  0.1311345E+03  0.7818608E-02  0.1345558E+00
          2   -1    0    0  502    0  0.00000000000E+00  0.00000000000E+00  0.35274780778E+04  0.35274780778E+04  0.00000000000E+00 0. -1.
          1   -1    0    0  501    0 -0.00000000000E+00 -0.00000000000E+00 -0.48051400890E+03  0.48051400890E+03  0.00000000000E+00 0. -1.
         25    2    1    2    0    0  0.65481212334E+02 -0.74043949340E+02  0.17898666258E+04  0.17969466790E+04  0.12499813387E+03 0.  0.
          2    1    1    2  501    0 -0.10774630483E+03  0.75055972170E+02 -0.46767250870E+03  0.48575738858E+03  0.00000000000E+00 0. -1.
          1    1    1    2  502    0  0.42265092500E+02 -0.10120228295E+01  0.17247699518E+04  0.17252880191E+04  0.00000000000E+00 0. -1.
         22    1    3    3    0    0  0.54100726340E+02 -0.44688341989E+01  0.13795434201E+04  0.13806110629E+04  0.00000000000E+00 0.  1.
         22    1    3    3    0    0  0.11380485994E+02 -0.69575115141E+02  0.41032320573E+03  0.41633561614E+03  0.00000000000E+00 0.  1.
</event>
<event>
 7    1  0.6140348E-006  0.6032113E+02  0.7818608E-02  0.1486979E+00
          2   -1    0    0  502    0  0.00000000000E+00  0.00000000000E+00  0.17407520472E+04  0.17407520472E+04  0.00000000000E+00 0. -1.
          1   -1    0    0  501    0 -0.00000000000E+00 -0.00000000000E+00 -0.34605434922E+02  0.34605434922E+02  0.00000000000E+00 0. -1.
         25    2    1    2    0    0 -0.19669076958E+02  0.49178212155E+02  0.43522446749E+03  0.45590520216E+03  0.12499538836E+03 0.  0.
          2    1    1    2  501    0  0.48319023975E+02 -0.38130968519E+02  0.15261415109E+02  0.63416162208E+02  0.00000000000E+00 0. -1.
          1    1    1    2  502    0 -0.28649947017E+02 -0.11047243636E+02  0.12556607297E+04  0.12560361177E+04  0.00000000000E+00 0. -1.
         22    1    3    3    0    0 -0.84976461736E+01  0.89862784915E+02  0.24608031847E+03  0.26211267280E+03  0.00000000000E+00 0.  1.
         22    1    3    3    0    0 -0.11171430785E+02 -0.40684572760E+02  0.18914414902E+03  0.19379252936E+03  0.00000000000E+00 0.  1.
</event>
<event>
 7    1  0.6140348E-006  0.2876329E+02  0.7818608E-02  0.1669952E+00
          2   -1    0    0  502    0  0.00000000000E+00  0.00000000000E+00  0.93867435536E+03  0.93867435536E+03  0.00000000000E+00 0. -1.
          1   -1    0    0  501    0 -0.00000000000E+00 -0.00000000000E+00 -0.19158535103E+04  0.19158535103E+04  0.00000000000E+00 0. -1.
         25    2    1    2    0    0 -0.39634968866E+02 -0.29543683513E+02 -0.13982734005E+04  0.14047201506E+04  0.12500575646E+03 0.  0.
          2    1    1    2  501    0  0.16395998616E+02  0.12599963681E+02 -0.51392771607E+03  0.51434354783E+03  0.00000000000E+00 0. -1.
          1    1    1    2  502    0  0.23238970250E+02  0.16943719832E+02  0.93502196161E+03  0.93546416718E+03  0.00000000000E+00 0. -1.
         22    1    3    3    0    0 -0.54058702950E+02 -0.28630679623E+02 -0.13803085689E+04  0.13816634194E+04  0.00000000000E+00 0.  1.
         22    1    3    3    0    0  0.14423734084E+02 -0.91300388984E+00 -0.17964831563E+02  0.23056731211E+02  0.00000000000E+00 0.  1.
</event>
<event>
 7    1  0.6140348E-006  0.3782422E+02  0.7818608E-02  0.1547369E+00
          2   -1    0    0  502    0  0.00000000000E+00  0.00000000000E+00  0.18615921328E+04  0.18615921328E+04  0.00000000000E+00 0. -1.
          1   -1    0    0  501    0 -0.00000000000E+00 -0.00000000000E+00 -0.14184072179E+02  0.14184072179E+02  0.00000000000E+00 0. -1.
         25    2    1    2    0    0  0.36145765734E+02 -0.37634066328E+02  0.88697544327E+03  0.89725897185E+03  0.12500154509E+03 0.  0.
          2    1    1    2  501    0 -0.32643576908E+02  0.26308767808E+00  0.22071875689E+02  0.39406091215E+02  0.00000000000E+00 0. -1.
          1    1    1    2  502    0 -0.35021888264E+01  0.37370978649E+02  0.93836074166E+03  0.93911114191E+03  0.00000000000E+00 0. -1.
         22    1    3    3    0    0  0.61370953858E+02 -0.69139342996E+02  0.52920762947E+03  0.53722188881E+03  0.00000000000E+00 0.  1.
         22    1    3    3    0    0 -0.25225188124E+02  0.31505276669E+02  0.35776781380E+03  0.36003708304E+03  0.00000000000E+00 0.  1.
</event>
<event>
 7    1  0.6140348E-006  0.1331923E+03  0.7818608E-02  0.1247931E+00
          2   -1    0    0  502    0  0.00000000000E+00  0.00000000000E+00  0.15976858358E+04  0.15976858358E+04  0.00000000000E+00 0. -1.
          1   -1    0    0  501    0 -0.00000000000E+00 -0.00000000000E+00 -0.22840512703E+03  0.22840512703E+03  0.00000000000E+00 0. -1.
         25    2    1    2    0    0  0.82940983800E+02  0.50571589440E+02  0.31568256687E+03  0.35315198311E+03  0.12499659073E+03 0.  0.
          2    1    1    2  501    0 -0.46374435582E+02  0.91948417985E+02 -0.19243032397E+03  0.21825336064E+03  0.00000000000E+00 0. -1.
          1    1    1    2  502    0 -0.36566548217E+02 -0.14252000743E+03  0.12460284659E+04  0.12546856191E+04  0.00000000000E+00 0. -1.
         22    1    3    3    0    0  0.10967762687E+03  0.23598738446E+02  0.17865761241E+03  0.21096119256E+03  0.00000000000E+00 0.  1.
         22    1    3    3    0    0 -0.26736643069E+02  0.26972850994E+02  0.13702495446E+03  0.14219079055E+03  0.00000000000E+00 0.  1.
</event>
<event>
 7    1  0.6140348E-006  0.1637609E+03  0.7818608E-02  0.1318754E+00
          2   -1    0    0  502    0  0.00000000000E+00  0.00000000000E+00  0.50490578437E+03  0.50490578437E+03  0.00000000000E+00 0. -1.
          1   -1    0    0  501    0 -0.00000000000E+00 -0.00000000000E+00 -0.17644847468E+04  0.17644847468E+04  0.00000000000E+00 0. -1.
         25    2    1    2    0    0  0.26834380850E+00  0.14448692887E+03 -0.43962016537E+03  0.47933520062E+03  0.12497919878E+03 0.  0.
          2    1    1    2  501    0  0.40129130170E+02  0.14949983169E+02 -0.12906987556E+04  0.12914089696E+04  0.00000000000E+00 0. -1.
          1    1    1    2  502    0 -0.40397473979E+02 -0.15943691204E+03  0.47073995848E+03  0.49864636100E+03  0.00000000000E+00 0. -1.
         22    1    3    3    0    0 -0.52652519672E+02  0.28905603950E+02 -0.99360425724E+02  0.11610476290E+03  0.00000000000E+00 0.  1.
         22    1    3    3    0    0  0.52920863481E+02  0.11558132492E+03 -0.34025973964E+03  0.36323043772E+03  0.00000000000E+00 0.  1.
</event>
<event>
 7    1  0.1568748E-005  0.5350091E+02  0.7818608E-02  0.1446107E+00
          2   -1    0    0  502    0  0.00000000000E+00  0.00000000000E+00  0.69925028974E+03  0.69925028974E+03  0.00000000000E+00 0. -1.
          1   -1    0    0  501    0 -0.00000000000E+00 -0.00000000000E+00 -0.13687977973E+04  0.13687977973E+04  0.00000000000E+00 0. -1.
         25    2    1    2    0    0 -0.38150581200E+02  0.12065037091E+02 -0.64665033242E+03  0.65983562695E+03  0.12500148082E+03 0.  0.
          2    1    1    2  501    0  0.24230284590E+02  0.39645623887E+02 -0.71376326576E+03  0.71527399067E+03  0.00000000000E+00 0. -1.
          1    1    1    2  502    0  0.13920296610E+02 -0.51710660977E+02  0.69086609066E+03  0.69293846938E+03  0.00000000000E+00 0. -1.
         22    1    3    3    0    0 -0.82797328082E+02  0.20497517412E+02 -0.39327465632E+03  0.40241831601E+03  0.00000000000E+00 0.  1.
         22    1    3    3    0    0  0.44646746882E+02 -0.84324803209E+01 -0.25337567610E+03  0.25741731094E+03  0.00000000000E+00 0.  1.
</event>
<event>
 7    1  0.6140348E-006  0.6996023E+02  0.7818608E-02  0.1381981E+00
          2   -1    0    0  502    0  0.00000000000E+00  0.00000000000E+00  0.27765731507E+03  0.27765731507E+03  0.00000000000E+00 0. -1.
          1   -1    0    0  501    0 -0.00000000000E+00 -0.00000000000E+00 -0.10859877117E+04  0.10859877117E+04  0.00000000000E+00 0. -1.
         25    2    1    2    0    0 -0.32020268097E+02  0.49251512987E+02 -0.17858914380E+03  0.22576599913E+03  0.12500077993E+03 0.  0.
          2    1    1    2  501    0 -0.23293288834E+02 -0.68137100882E+02 -0.87895663974E+03  0.88190136431E+03  0.00000000000E+00 0. -1.
          1    1    1    2  502    0  0.55313556931E+02  0.18885587895E+02  0.24921538695E+03  0.25597766329E+03  0.00000000000E+00 0. -1.
         22    1    3    3    0    0  0.27954678748E+02 -0.21923555695E+00 -0.13243363988E+03  0.13535206352E+03  0.00000000000E+00 0. -1.
         22    1    3    3    0    0 -0.59974946845E+02  0.49470748544E+02 -0.46155503915E+02  0.90413935608E+02  0.00000000000E+00 0. -1.
</event>
<event>
 7    1  0.6140348E-006  0.1776985E+03  0.7818608E-02  0.1214219E+00
          2   -1    0    0  502    0  0.00000000000E+00  0.00000000000E+00  0.21191154997E+03  0.21191154997E+03  0.00000000000E+00 0. -1.
          1   -1    0    0  501    0 -0.00000000000E+00 -0.00000000000E+00 -0.13514856133E+04  0.13514856133E+04  0.00000000000E+00 0. -1.
         25    2    1    2    0    0 -0.11586130848E+03  0.11175649428E+03 -0.67535356989E+03  0.70543827886E+03  0.12500945604E+03 0.  0.
          2    1    1    2  501    0  0.20510791367E+03 -0.48721927730E+02 -0.62723441850E+03  0.66171451415E+03  0.00000000000E+00 0. -1.
          1    1    1    2  502    0 -0.89246605191E+02 -0.63034566546E+02  0.16301392502E+03  0.19624437029E+03  0.00000000000E+00 0. -1.
         22    1    3    3    0    0 -0.93403741291E+02  0.80313958126E+02 -0.64400841738E+03  0.65568394247E+03  0.00000000000E+00 0. -1.
         22    1    3    3    0    0 -0.22457567189E+02  0.31442536149E+02 -0.31345152510E+02  0.49754336388E+02  0.00000000000E+00 0. -1.
</event>
<event>
 7    1  0.6140348E-006  0.1056607E+03  0.7818608E-02  0.1390475E+00
          2   -1    0    0  502    0  0.00000000000E+00  0.00000000000E+00  0.12548870150E+04  0.12548870150E+04  0.00000000000E+00 0. -1.
          1   -1    0    0  501    0 -0.00000000000E+00 -0.00000000000E+00 -0.77807169405E+02  0.77807169405E+02  0.00000000000E+00 0. -1.
         25    2    1    2    0    0 -0.10963002290E+03  0.40406127610E+02  0.26794459378E+03  0.31791224932E+03  0.12498998305E+03 0.  0.
          2    1    1    2  501    0  0.82442958075E+02 -0.64206538606E+02 -0.43281410670E+00  0.10449645096E+03  0.00000000000E+00 0. -1.
          1    1    1    2  502    0  0.27187064830E+02  0.23800410996E+02  0.90956806593E+03  0.91028548413E+03  0.00000000000E+00 0. -1.
         22    1    3    3    0    0 -0.12835592130E+03  0.20832834831E+01  0.20500211260E+03  0.24187899613E+03  0.00000000000E+00 0. -1.
         22    1    3    3    0    0  0.18725898392E+02  0.38322844127E+02  0.62942481182E+02  0.76033253185E+02  0.00000000000E+00 0. -1.
</event>
<event>
 7    1  0.6140348E-006  0.7057814E+02  0.7818608E-02  0.1367767E+00
          2   -1    0    0  502    0  0.00000000000E+00  0.00000000000E+00  0.61772016051E+03  0.61772016051E+03  0.00000000000E+00 0. -1.
          1   -1    0    0  501    0 -0.00000000000E+00 -0.00000000000E+00 -0.88888998646E+03  0.88888998646E+03  0.00000000000E+00 0. -1.
         25    2    1    2    0    0  0.32927430870E+02  0.14489207438E+02  0.22449078024E+03  0.25945182326E+03  0.12499994137E+03 0.  0.
          2    1    1    2  501    0 -0.89079179001E+01  0.64503649657E+02 -0.86563634878E+03  0.86808200082E+03  0.00000000000E+00 0. -1.
          1    1    1    2  502    0 -0.24019512970E+02 -0.78992857094E+02  0.36997574258E+03  0.37907632289E+03  0.00000000000E+00 0. -1.
         22    1    3    3    0    0  0.21527082347E+02  0.53110107779E+02  0.20831873932E+03  0.21605739047E+03  0.00000000000E+00 0. -1.
         22    1    3    3    0    0  0.11400348523E+02 -0.38620900341E+02  0.16172040919E+02  0.43394432789E+02  0.00000000000E+00 0. -1.
</event>
<event>
 7    1  0.6140348E-006  0.5655533E+02  0.7818608E-02  0.1463706E+00
          2   -1    0    0  502    0  0.00000000000E+00  0.00000000000E+00  0.32667346638E+03  0.32667346638E+03  0.00000000000E+00 0. -1.
          1   -1    0    0  501    0 -0.00000000000E+00 -0.00000000000E+00 -0.23294315722E+03  0.23294315722E+03  0.00000000000E+00 0. -1.
         25    2    1    2    0    0 -0.56242200909E+02  0.46174316159E+02  0.18563956192E+03  0.23533382808E+03  0.12499884422E+03 0.  0.
          2    1    1    2  501    0  0.23621164494E+01 -0.38571802560E+02 -0.19977024798E+03  0.20347362366E+03  0.00000000000E+00 0. -1.
          1    1    1    2  502    0  0.53880084460E+02 -0.76025135993E+01  0.10786099523E+03  0.12080917186E+03  0.00000000000E+00 0. -1.
         22    1    3    3    0    0 -0.52573556546E+02  0.76031677888E+02  0.18314226322E+03  0.20514844252E+03  0.00000000000E+00 0. -1.
         22    1    3    3    0    0 -0.36686443625E+01 -0.29857361729E+02  0.24972986954E+01  0.30185385564E+02  0.00000000000E+00 0. -1.
</event>
<event>
 7    1  0.6140348E-006  0.8381022E+02  0.7818608E-02  0.1342479E+00
          2   -1    0    0  502    0  0.00000000000E+00  0.00000000000E+00  0.95267808884E+03  0.95267808884E+03  0.00000000000E+00 0. -1.
          1   -1    0    0  501    0 -0.00000000000E+00 -0.00000000000E+00 -0.30278274257E+03  0.30278274257E+03  0.00000000000E+00 0. -1.
         25    2    1    2    0    0 -0.31760821012E+00 -0.39269994495E+02  0.29946890698E+03  0.32686917940E+03  0.12497840153E+03 0.  0.
          2    1    1    2  501    0  0.52466112691E+02 -0.43142103103E+02 -0.28129830386E+03  0.28938325763E+03  0.00000000000E+00 0. -1.
          1    1    1    2  502    0 -0.52148504481E+02  0.82412097598E+02  0.63172474314E+03  0.63920839438E+03  0.00000000000E+00 0. -1.
         22    1    3    3    0    0  0.22653716926E+02 -0.67317706943E+02  0.91851100358E+02  0.11610981524E+03  0.00000000000E+00 0.  1.
         22    1    3    3    0    0 -0.22971325136E+02  0.28047712447E+02  0.20761780663E+03  0.21075936416E+03  0.00000000000E+00 0.  1.
</event>
<event>
 7    1  0.6140348E-006  0.1088276E+03  0.7818608E-02  0.1352234E+00
          2   -1    0    0  502    0  0.00000000000E+00  0.00000000000E+00  0.20257517026E+04  0.20257517026E+04  0.00000000000E+00 0. -1.
          1   -1    0    0  501    0 -0.00000000000E+00 -0.00000000000E+00 -0.86216602668E+02  0.86216602668E+02  0.00000000000E+00 0. -1.
         25    2    1    2    0    0 -0.46867523245E+02 -0.68733323144E+02  0.37938902406E+03  0.40802066410E+03  0.12499598517E+03 0.  0.
          2    1    1    2  501    0  0.94363830956E+02  0.61025436154E+02 -0.27402572810E+02  0.11566995049E+03  0.00000000000E+00 0. -1.
          1    1    1    2  502    0 -0.47496307711E+02  0.77078869901E+01  0.15875486487E+04  0.15882776907E+04  0.00000000000E+00 0. -1.
         22    1    3    3    0    0 -0.89483913683E+02 -0.55975222637E+02  0.25948173236E+03  0.28012740991E+03  0.00000000000E+00 0.  1.
         22    1    3    3    0    0  0.42616390438E+02 -0.12758100508E+02  0.11990729170E+03  0.12789325418E+03  0.00000000000E+00 0.  1.
</event>
<event>
 7    1  0.6140348E-006  0.5471468E+02  0.7818608E-02  0.1456806E+00
          2   -1    0    0  502    0  0.00000000000E+00  0.00000000000E+00  0.20039604465E+04  0.20039604465E+04  0.00000000000E+00 0. -1.
          1   -1    0    0  501    0 -0.00000000000E+00 -0.00000000000E+00 -0.70551329832E+03  0.70551329832E+03  0.00000000000E+00 0. -1.
         25    2    1    2    0    0  0.49897761263E+02  0.83836598118E+01  0.90014714043E+02  0.16213442460E+03  0.12499940226E+03 0.  0.
          2    1    1    2  501    0 -0.30506393579E+02 -0.45634798029E+02 -0.66809287536E+03  0.67034413919E+03  0.00000000000E+00 0. -1.
          1    1    1    2  502    0 -0.19391367684E+02  0.37251138218E+02  0.18765253095E+04  0.18769951811E+04  0.00000000000E+00 0. -1.
         22    1    3    3    0    0 -0.17012708350E+02  0.51582510864E+02  0.27466926649E+02  0.60865587420E+02  0.00000000000E+00 0.  1.
         22    1    3    3    0    0  0.66910469612E+02 -0.43198851052E+02  0.62547787393E+02  0.10126883718E+03  0.00000000000E+00 0.  1.
</event>
<event>
 7    1  0.6140348E-006  0.6077254E+02  0.7818608E-02  0.1428251E+00
          2   -1    0    0  502    0  0.00000000000E+00  0.00000000000E+00  0.14900988203E+04  0.14900988203E+04  0.00000000000E+00 0. -1.
          1   -1    0    0  501    0 -0.00000000000E+00 -0.00000000000E+00 -0.23835389926E+03  0.23835389926E+03  0.00000000000E+00 0. -1.
         25    2    1    2    0    0  0.17005556926E+02 -0.38457311000E+00  0.21763518785E+03  0.25155628258E+03  0.12500460573E+03 0.  0.
          2    1    1    2  501    0  0.42852720708E+02 -0.18733061822E+02 -0.21812683208E+03  0.22308428486E+03  0.00000000000E+00 0. -1.
          1    1    1    2  502    0 -0.59858277634E+02  0.19117634932E+02  0.12522365653E+04  0.12538121521E+04  0.00000000000E+00 0. -1.
         22    1    3    3    0    0 -0.50767942601E+01 -0.60635192144E+02  0.89117037875E+02  0.10790851128E+03  0.00000000000E+00 0.  1.
         22    1    3    3    0    0  0.22082351186E+02  0.60250619034E+02  0.12851814998E+03  0.14364777131E+03  0.00000000000E+00 0.  1.
</event>
<event>
 7    1  0.6140348E-006  0.1027138E+03  0.7818608E-02  0.1276886E+00
          2   -1    0    0  502    0  0.00000000000E+00  0.00000000000E+00  0.89189335018E+03  0.89189335018E+03  0.00000000000E+00 0. -1.
          1   -1    0    0  501    0 -0.00000000000E+00 -0.00000000000E+00 -0.60557517136E+03  0.60557517136E+03  0.00000000000E+00 0. -1.
         25    2    1    2    0    0  0.18251792989E+03  0.85238742166E+02 -0.10655841920E+03  0.25991698900E+03  0.12499482617E+03 0.  0.
          2    1    1    2  501    0 -0.92719798234E+02 -0.38969242424E+02 -0.41315184223E+03  0.42521760026E+03  0.00000000000E+00 0. -1.
          1    1    1    2  502    0 -0.89798131651E+02 -0.46269499742E+02  0.80602844024E+03  0.81233393228E+03  0.00000000000E+00 0. -1.
         22    1    3    3    0    0  0.33441981602E+02  0.62116564574E+02 -0.80132235866E+02  0.10676145818E+03  0.00000000000E+00 0.  1.
         22    1    3    3    0    0  0.14907594828E+03  0.23122177591E+02 -0.26426183338E+02  0.15315553081E+03  0.00000000000E+00 0.  1.
</event>
<event>
 7    1  0.6140348E-006  0.9148191E+02  0.7818608E-02  0.1455702E+00
          2   -1    0    0  502    0  0.00000000000E+00  0.00000000000E+00  0.12315300020E+04  0.12315300020E+04  0.00000000000E+00 0. -1.
          1   -1    0    0  501    0 -0.00000000000E+00 -0.00000000000E+00 -0.44307583861E+03  0.44307583861E+03  0.00000000000E+00 0. -1.
         25    2    1    2    0    0  0.10517842967E+03  0.14839058908E+02  0.82263738127E+03  0.83883253269E+03  0.12500022834E+03 0.  0.
          2    1    1    2  501    0 -0.85900290959E+02 -0.31255541179E+02 -0.42976660685E+03  0.43938036507E+03  0.00000000000E+00 0. -1.
          1    1    1    2  502    0 -0.19278138715E+02  0.16416482271E+02  0.39558338894E+03  0.39639294283E+03  0.00000000000E+00 0. -1.
         22    1    3    3    0    0  0.66095370070E+02 -0.49021250462E+02  0.54917074516E+03  0.55530188932E+03  0.00000000000E+00 0.  1.
         22    1    3    3    0    0  0.39083059604E+02  0.63860309370E+02  0.27346663611E+03  0.28353064336E+03  0.00000000000E+00 0.  1.
</event>
<event>
 7    1  0.6140348E-006  0.1006641E+03  0.7818608E-02  0.1428046E+00
          2   -1    0    0  502    0  0.00000000000E+00  0.00000000000E+00  0.11100345939E+04  0.11100345939E+04  0.00000000000E+00 0. -1.
          1   -1    0    0  501    0 -0.00000000000E+00 -0.00000000000E+00 -0.12755642735E+04  0.12755642735E+04  0.00000000000E+00 0. -1.
         25    2    1    2    0    0 -0.75450542066E+02 -0.33226202449E+02  0.12003550244E+03  0.19191175390E+03  0.12499933845E+03 0.  0.
          2    1    1    2  501    0 -0.67799985577E+01 -0.27454155218E+02 -0.12367273350E+04  0.12370506054E+04  0.00000000000E+00 0. -1.
          1    1    1    2  502    0  0.82230540624E+02  0.60680357667E+02  0.95116215297E+03  0.95663650823E+03  0.00000000000E+00 0. -1.
         22    1    3    3    0    0 -0.23080837525E+02 -0.76311601796E+02  0.48395314545E+02  0.93264634773E+02  0.00000000000E+00 0. -1.
         22    1    3    3    0    0 -0.52369704541E+02  0.43085399347E+02  0.71640187891E+02  0.98647119125E+02  0.00000000000E+00 0. -1.
</event>
<event>
 7    1  0.6140348E-006  0.7722710E+02  0.7818608E-02  0.1377431E+00
          2   -1    0    0  502    0  0.00000000000E+00  0.00000000000E+00  0.13615334550E+04  0.13615334550E+04  0.00000000000E+00 0. -1.
          1   -1    0    0  501    0 -0.00000000000E+00 -0.00000000000E+00 -0.17626142657E+04  0.17626142657E+04  0.00000000000E+00 0. -1.
         25    2    1    2    0    0  0.82329823184E+02 -0.73565609882E+02 -0.73996194742E+02  0.18245644931E+03  0.12499928126E+03 0.  0.
          2    1    1    2  501    0 -0.74442773078E+02  0.19183466719E+02 -0.16329058045E+04  0.16347143781E+04  0.00000000000E+00 0. -1.
          1    1    1    2  502    0 -0.78870501069E+01  0.54382143163E+02  0.13058211886E+04  0.13069768933E+04  0.00000000000E+00 0. -1.
         22    1    3    3    0    0 -0.11667495035E+02 -0.63457831273E+02 -0.36651117435E+01  0.64625535467E+02  0.00000000000E+00 0.  1.
         22    1    3    3    0    0  0.93997318220E+02 -0.10107778609E+02 -0.70331082999E+02  0.11783091384E+03  0.00000000000E+00 0.  1.
</event>
<event>
 7    1  0.6140348E-006  0.1534555E+03  0.7818608E-02  0.1304694E+00
          2   -1    0    0  502    0  0.00000000000E+00  0.00000000000E+00  0.85948730890E+03  0.85948730890E+03  0.00000000000E+00 0. -1.
          1   -1    0    0  501    0 -0.00000000000E+00 -0.00000000000E+00 -0.36997947182E+03  0.36997947182E+03  0.00000000000E+00 0. -1.
         25    2    1    2    0    0  0.15192261307E+03  0.10581757938E+03  0.19910347228E+03  0.29923916498E+03  0.12499617880E+03 0.  0.
          2    1    1    2  501    0 -0.10056692603E+03 -0.11331907537E+03 -0.30077223051E+03  0.33677715793E+03  0.00000000000E+00 0. -1.
          1    1    1    2  502    0 -0.51355687040E+02  0.75014959951E+01  0.59117659531E+03  0.59345045781E+03  0.00000000000E+00 0. -1.
         22    1    3    3    0    0  0.17335789946E+03  0.98681927321E+02  0.18782818659E+03  0.27398998479E+03  0.00000000000E+00 0.  1.
         22    1    3    3    0    0 -0.21435286393E+02  0.71356520579E+01  0.11275285693E+02  0.25249180194E+02  0.00000000000E+00 0.  1.
</event>
<event>
 7    1  0.6140348E-006  0.4234532E+02  0.7818608E-02  0.1599224E+00
          2   -1    0    0  502    0  0.00000000000E+00  0.00000000000E+00  0.27579041521E+04  0.27579041521E+04  0.00000000000E+00 0. -1.
          1   -1    0    0  501    0 -0.00000000000E+00 -0.00000000000E+00 -0.39956585656E+02  0.39956585656E+02  0.00000000000E+00 0. -1.
         25    2    1    2    0    0  0.52392399928E+02 -0.22491150566E+02  0.18727166828E+04  0.18777496340E+04  0.12500039370E+03 0.  0.
          2    1    1    2  501    0 -0.31934289630E+02  0.27692022980E+02 -0.25341232425E+02  0.49283111222E+02  0.00000000000E+00 0. -1.
          1    1    1    2  502    0 -0.20458110298E+02 -0.52008724135E+01  0.87057211606E+03  0.87082799255E+03  0.00000000000E+00 0. -1.
         22    1    3    3    0    0  0.35652208863E+02  0.20702736854E+02  0.19116869790E+03  0.19556368366E+03  0.00000000000E+00 0. -1.
         22    1    3    3    0    0  0.16740191066E+02 -0.43193887420E+02  0.16815479850E+04  0.16821859504E+04  0.00000000000E+00 0. -1.
</event>
<event>
 7    1  0.6140348E-006  0.5208791E+02  0.7818608E-02  0.1505466E+00
          2   -1    0    0  502    0  0.00000000000E+00  0.00000000000E+00  0.29580671743E+03  0.29580671743E+03  0.00000000000E+00 0. -1.
          1   -1    0    0  501    0 -0.00000000000E+00 -0.00000000000E+00 -0.37864393238E+03  0.37864393238E+03  0.00000000000E+00 0. -1.
         25    2    1    2    0    0 -0.30288386396E+02 -0.18939804380E+02  0.18777841814E+03  0.22839081354E+03  0.12500210738E+03 0.  0.
          2    1    1    2  501    0  0.19775986136E+02  0.48418158416E+02 -0.35355998438E+03  0.35740742892E+03  0.00000000000E+00 0. -1.
          1    1    1    2  502    0  0.10512400260E+02 -0.29478354036E+02  0.82944351298E+02  0.88652407345E+02  0.00000000000E+00 0. -1.
         22    1    3    3    0    0 -0.69109982814E+02 -0.41559420082E+02  0.90375379609E+02  0.12112425175E+03  0.00000000000E+00 0.  1.
         22    1    3    3    0    0  0.38821596417E+02  0.22619615702E+02  0.97403038530E+02  0.10726656179E+03  0.00000000000E+00 0.  1.
</event>
<event>
 7    1  0.6140348E-006  0.7782963E+02  0.7818608E-02  0.1452028E+00
          2   -1    0    0  502    0  0.00000000000E+00  0.00000000000E+00  0.41267300333E+03  0.41267300333E+03  0.00000000000E+00 0. -1.
          1   -1    0    0  501    0 -0.00000000000E+00 -0.00000000000E+00 -0.35505284980E+03  0.35505284980E+03  0.00000000000E+00 0. -1.
         25    2    1    2    0    0 -0.44006489211E+02  0.71203687585E+02  0.34132139557E+03  0.37300266499E+03  0.12499662712E+03 0.  0.
          2    1    1    2  501    0  0.13907274575E+02 -0.76574864710E+02 -0.33010325960E+03  0.33915377661E+03  0.00000000000E+00 0. -1.
          1    1    1    2  502    0  0.30099214636E+02  0.53711771245E+01  0.46402017552E+02  0.55569411534E+02  0.00000000000E+00 0. -1.
         22    1    3    3    0    0 -0.85983038747E+02  0.52949331404E+02  0.19360426990E+03  0.21835596619E+03  0.00000000000E+00 0.  1.
         22    1    3    3    0    0  0.41976549536E+02  0.18254356181E+02  0.14771712567E+03  0.15464669879E+03  0.00000000000E+00 0.  1.
</event>
<event>
 7    1  0.6140348E-006  0.7357394E+02  0.7818608E-02  0.1423355E+00
          2   -1    0    0  502    0  0.00000000000E+00  0.00000000000E+00  0.18761844407E+04  0.18761844407E+04  0.00000000000E+00 0. -1.
          1   -1    0    0  501    0 -0.00000000000E+00 -0.00000000000E+00 -0.11877380457E+04  0.11877380457E+04  0.00000000000E+00 0. -1.
         25    2    1    2    0    0 -0.13558376628E+02  0.40544781815E+02 -0.21899191963E+02  0.13391317685E+03  0.12500182165E+03 0.  0.
          2    1    1    2  501    0 -0.88134509722E+01 -0.73825191864E+02 -0.11083653962E+04  0.11108562856E+04  0.00000000000E+00 0. -1.
          1    1    1    2  502    0  0.22371827600E+02  0.33280410049E+02  0.18187109831E+04  0.18191530239E+04  0.00000000000E+00 0. -1.
         22    1    3    3    0    0 -0.57633625718E+02 -0.84558374717E+01  0.12489152544E+02  0.59574448650E+02  0.00000000000E+00 0. -1.
         22    1    3    3    0    0  0.44075249090E+02  0.49000619287E+02 -0.34388344507E+02  0.74338728202E+02  0.00000000000E+00 0. -1.
</event>
<event>
 7    1  0.6140348E-006  0.3290113E+02  0.7818608E-02  0.1634025E+00
          2   -1    0    0  502    0  0.00000000000E+00  0.00000000000E+00  0.22881288146E+03  0.22881288146E+03  0.00000000000E+00 0. -1.
          1   -1    0    0  501    0 -0.00000000000E+00 -0.00000000000E+00 -0.39107184012E+02  0.39107184012E+02  0.00000000000E+00 0. -1.
         25    2    1    2    0    0 -0.86642817170E+01 -0.16397587468E+02  0.13521382861E+03  0.18507535595E+03  0.12500462904E+03 0.  0.
          2    1    1    2  501    0  0.15890158572E+01 -0.22075586797E+02  0.27582879292E+02  0.35364837535E+02  0.00000000000E+00 0. -1.
          1    1    1    2  502    0  0.70752658598E+01  0.38473174265E+02  0.26908989544E+02  0.47479871981E+02  0.00000000000E+00 0. -1.
         22    1    3    3    0    0  0.45002376299E+02 -0.46281628026E+02  0.61985734027E+02  0.89495442276E+02  0.00000000000E+00 0. -1.
         22    1    3    3    0    0 -0.53666658016E+02  0.29884040557E+02  0.73228094583E+02  0.95579913679E+02  0.00000000000E+00 0. -1.
</event>
<event>
 7    1  0.6140348E-006  0.5505075E+02  0.7818608E-02  0.1473209E+00
          2   -1    0    0  502    0  0.00000000000E+00  0.00000000000E+00  0.15327022055E+04  0.15327022055E+04  0.00000000000E+00 0. -1.
          1   -1    0    0  501    0 -0.00000000000E+00 -0.00000000000E+00 -0.26147786979E+03  0.26147786979E+03  0.00000000000E+00 0. -1.
         25    2    1    2    0    0  0.18162830036E+02 -0.18195358786E+02  0.20916537682E+02  0.12931424220E+03  0.12499484874E+03 0.  0.
          2    1    1    2  501    0 -0.13881815742E+02  0.55029686484E+02 -0.20315327260E+03  0.21093179791E+03  0.00000000000E+00 0. -1.
          1    1    1    2  502    0 -0.42810142936E+01 -0.36834327697E+02  0.14534610707E+04  0.14539340352E+04  0.00000000000E+00 0. -1.
         22    1    3    3    0    0 -0.28416525449E+02 -0.27240416235E+02  0.57301860098E+02  0.69520086061E+02  0.00000000000E+00 0. -1.
         22    1    3    3    0    0  0.46579355485E+02  0.90450574485E+01 -0.36385322415E+02  0.59794156143E+02  0.00000000000E+00 0. -1.
</event>
<event>
 7    1  0.6140348E-006  0.1065603E+03  0.7818608E-02  0.1293078E+00
          2   -1    0    0  502    0  0.00000000000E+00  0.00000000000E+00  0.10052885121E+04  0.10052885121E+04  0.00000000000E+00 0. -1.
          1   -1    0    0  501    0 -0.00000000000E+00 -0.00000000000E+00 -0.38777094465E+03  0.38777094465E+03  0.00000000000E+00 0. -1.
         25    2    1    2    0    0  0.12702765092E+02  0.52555152445E+02  0.13568747864E+03  0.19224924741E+03  0.12500110792E+03 0.  0.
          2    1    1    2  501    0  0.60552306176E+02 -0.92008468224E+02 -0.34892585033E+03  0.36589805826E+03  0.00000000000E+00 0. -1.
          1    1    1    2  502    0 -0.73255071268E+02  0.39453315779E+02  0.83075593918E+03  0.83491215112E+03  0.00000000000E+00 0. -1.
         22    1    3    3    0    0 -0.35800577708E+02 -0.23671589204E+02  0.63297808887E+02  0.76476389230E+02  0.00000000000E+00 0.  1.
         22    1    3    3    0    0  0.48503342800E+02  0.76226741649E+02  0.72389669753E+02  0.11577285818E+03  0.00000000000E+00 0.  1.
</event>
<event>
 7    1  0.6140348E-006  0.1055413E+03  0.7818608E-02  0.1345933E+00
          2   -1    0    0  502    0  0.00000000000E+00  0.00000000000E+00  0.26364601416E+03  0.26364601416E+03  0.00000000000E+00 0. -1.
          1   -1    0    0  501    0 -0.00000000000E+00 -0.00000000000E+00 -0.15150093004E+04  0.15150093004E+04  0.00000000000E+00 0. -1.
         25    2    1    2    0    0 -0.15272055124E+03 -0.95491287673E+01 -0.32893841107E+03  0.38371892828E+03  0.12499994005E+03 0.  0.
          2    1    1    2  501    0  0.10167953598E+03 -0.21290096234E+01 -0.11535144950E+04  0.11579891842E+04  0.00000000000E+00 0. -1.
          1    1    1    2  502    0  0.51041015254E+02  0.11678138391E+02  0.23108961982E+03  0.23694720202E+03  0.00000000000E+00 0. -1.
         22    1    3    3    0    0 -0.17318949444E+03 -0.31025164925E+01 -0.26793360372E+03  0.31904959269E+03  0.00000000000E+00 0.  1.
         22    1    3    3    0    0  0.20468943204E+02 -0.64466122748E+01 -0.61004807344E+02  0.64669335583E+02  0.00000000000E+00 0.  1.
</event>
<event>
 7    1  0.6140348E-006  0.6144818E+02  0.7818608E-02  0.1399514E+00
          2   -1    0    0  502    0  0.00000000000E+00  0.00000000000E+00  0.21733278314E+04  0.21733278314E+04  0.00000000000E+00 0. -1.
          1   -1    0    0  501    0 -0.00000000000E+00 -0.00000000000E+00 -0.11333537912E+03  0.11333537912E+03  0.00000000000E+00 0. -1.
         25    2    1    2    0    0  0.26516940957E+02  0.27006020131E+02  0.67429921649E+03  0.68683102152E+03  0.12499978198E+03 0.  0.
          2    1    1    2  501    0 -0.58288571161E+02  0.21289639662E+02 -0.97467472324E+02  0.11554529175E+03  0.00000000000E+00 0. -1.
          1    1    1    2  502    0  0.31771630204E+02 -0.48295659792E+02  0.14831607081E+04  0.14842868972E+04  0.00000000000E+00 0. -1.
         22    1    3    3    0    0 -0.46335614517E+02 -0.51850378323E+01  0.16987019722E+03  0.17615265452E+03  0.00000000000E+00 0. -1.
         22    1    3    3    0    0  0.72852555475E+02  0.32191057963E+02  0.50442901927E+03  0.51067836701E+03  0.00000000000E+00 0. -1.
</event>
<event>
 7    1  0.6140348E-006  0.8851137E+02  0.7818608E-02  0.1425208E+00
          2   -1    0    0  502    0  0.00000000000E+00  0.00000000000E+00  0.94359318268E+02  0.94359318268E+02  0.00000000000E+00 0. -1.
          1   -1    0    0  501    0 -0.00000000000E+00 -0.00000000000E+00 -0.51539796516E+03  0.51539796516E+03  0.00000000000E+00 0. -1.
         25    2    1    2    0    0  0.11976284330E+02  0.59410885668E+02 -0.16840152510E+03  0.21830493001E+03  0.12499953636E+03 0.  0.
          2    1    1    2  501    0  0.38393383082E+00  0.32862404392E+02 -0.28947278558E+03  0.29133241944E+03  0.00000000000E+00 0. -1.
          1    1    1    2  502    0 -0.12360218161E+02 -0.92273290061E+02  0.36835663788E+02  0.10011993397E+03  0.00000000000E+00 0. -1.
         22    1    3    3    0    0 -0.11636451818E+02 -0.90169929949E+01  0.15071646062E+02  0.21068167661E+02  0.00000000000E+00 0. -1.
         22    1    3    3    0    0  0.23612736148E+02  0.68427878663E+02 -0.18347317116E+03  0.19723676235E+03  0.00000000000E+00 0. -1.
</event>
<event>
 7    1  0.6140348E-006  0.1067879E+03  0.7818608E-02  0.1372348E+00
          2   -1    0    0  502    0  0.00000000000E+00  0.00000000000E+00  0.80227785086E+02  0.80227785086E+02  0.00000000000E+00 0. -1.
          1   -1    0    0  501    0 -0.00000000000E+00 -0.00000000000E+00 -0.25801388199E+04  0.25801388199E+04  0.00000000000E+00 0. -1.
         25    2    1    2    0    0  0.55825042303E+02 -0.65722043753E+02 -0.27893805055E+03  0.31759603183E+03  0.12499992402E+03 0.  0.
          2    1    1    2  501    0 -0.36303346123E+02  0.10227010058E+03 -0.22733763561E+04  0.22759651059E+04  0.00000000000E+00 0. -1.
          1    1    1    2  502    0 -0.19521696180E+02 -0.36548056826E+02  0.52403371869E+02  0.66805467312E+02  0.00000000000E+00 0. -1.
         22    1    3    3    0    0 -0.36750450727E+02 -0.62985549467E+01 -0.40764029448E+02  0.55244669606E+02  0.00000000000E+00 0. -1.
         22    1    3    3    0    0  0.92575493030E+02 -0.59423488806E+02 -0.23817402110E+03  0.26235136222E+03  0.00000000000E+00 0. -1.
</event>
<event>
 7    1  0.6140348E-006  0.4127204E+02  0.7818608E-02  0.1508084E+00
          2   -1    0    0  502    0  0.00000000000E+00  0.00000000000E+00  0.27989053829E+03  0.27989053829E+03  0.00000000000E+00 0. -1.
          1   -1    0    0  501    0 -0.00000000000E+00 -0.00000000000E+00 -0.19157555062E+04  0.19157555062E+04  0.00000000000E+00 0. -1.
         25    2    1    2    0    0  0.53303389263E+02 -0.19462293531E+02 -0.14183226312E+04  0.14249511389E+04  0.12500651970E+03 0.  0.
          2    1    1    2  501    0 -0.15335114841E+02  0.35641823087E+02 -0.49181056557E+03  0.49333876566E+03  0.00000000000E+00 0. -1.
          1    1    1    2  502    0 -0.37968274422E+02 -0.16179529555E+02  0.27426822881E+03  0.27735613996E+03  0.00000000000E+00 0. -1.
         22    1    3    3    0    0  0.75334364725E+02 -0.49334789422E+02 -0.12101054137E+04  0.12134514000E+04  0.00000000000E+00 0.  1.
         22    1    3    3    0    0 -0.22030975461E+02  0.29872495891E+02 -0.20821721749E+03  0.21149973888E+03  0.00000000000E+00 0.  1.
</event>
<event>
 7    1  0.6140348E-006  0.3425050E+03  0.7818608E-02  0.1146613E+00
          2   -1    0    0  502    0  0.00000000000E+00  0.00000000000E+00  0.28811369457E+04  0.28811369457E+04  0.00000000000E+00 0. -1.
          1   -1    0    0  501    0 -0.00000000000E+00 -0.00000000000E+00 -0.30101503063E+03  0.30101503063E+03  0.00000000000E+00 0. -1.
         25    2    1    2    0    0 -0.25348063474E+03 -0.18313343959E+03  0.47728810305E+02  0.34013627056E+03  0.12499741731E+03 0.  0.
          2    1    1    2  501    0  0.24070657489E+03  0.30366557404E+03  0.91547493086E+02  0.39816250394E+03  0.00000000000E+00 0. -1.
          1    1    1    2  502    0  0.12774059851E+02 -0.12053213446E+03  0.24408456117E+04  0.24438532018E+04  0.00000000000E+00 0. -1.
         22    1    3    3    0    0 -0.14468684915E+03 -0.13032133768E+03  0.86591880103E+02  0.21311050906E+03  0.00000000000E+00 0.  1.
         22    1    3    3    0    0 -0.10879378559E+03 -0.52812101905E+02 -0.38863069798E+02  0.12702576150E+03  0.00000000000E+00 0.  1.
</event>
<event>
 7    1  0.6140348E-006  0.6740545E+02  0.7818608E-02  0.1453297E+00
          2   -1    0    0  502    0  0.00000000000E+00  0.00000000000E+00  0.16211446951E+03  0.16211446951E+03  0.00000000000E+00 0. -1.
          1   -1    0    0  501    0 -0.00000000000E+00 -0.00000000000E+00 -0.85948582118E+03  0.85948582118E+03  0.00000000000E+00 0. -1.
         25    2    1    2    0    0  0.19542422547E+01 -0.72094075024E+02 -0.28578336230E+03  0.32015505620E+03  0.12500302046E+03 0.  0.
          2    1    1    2  501    0  0.32129078729E+02  0.13821081757E+02 -0.54806733716E+03  0.54918221572E+03  0.00000000000E+00 0. -1.
          1    1    1    2  502    0 -0.34083320983E+02  0.58272993267E+02  0.13647934779E+03  0.15226301878E+03  0.00000000000E+00 0. -1.
         22    1    3    3    0    0 -0.53305066032E+02  0.20755751503E+00 -0.10375558027E+03  0.11664773286E+03  0.00000000000E+00 0. -1.
         22    1    3    3    0    0  0.55259308287E+02 -0.72301632539E+02 -0.18202778203E+03  0.20350732334E+03  0.00000000000E+00 0. -1.
</event>
<event>
 7    1  0.6140348E-006  0.1783689E+03  0.7818608E-02  0.1288088E+00
          2   -1    0    0  502    0  0.00000000000E+00  0.00000000000E+00  0.81352733331E+03  0.81352733331E+03  0.00000000000E+00 0. -1.
          1   -1    0    0  501    0 -0.00000000000E+00 -0.00000000000E+00 -0.95327628853E+03  0.95327628853E+03  0.00000000000E+00 0. -1.
         25    2    1    2    0    0  0.13330570127E+03  0.85324176871E+02 -0.35319248243E+02  0.20475133278E+03  0.12500013531E+03 0.  0.
          2    1    1    2  501    0  0.39881626613E+02 -0.33497223471E+02 -0.82119331532E+03  0.82284328353E+03  0.00000000000E+00 0. -1.
          1    1    1    2  502    0 -0.17318732788E+03 -0.51826953400E+02  0.71676360834E+03  0.73920900554E+03  0.00000000000E+00 0. -1.
         22    1    3    3    0    0  0.41990671245E+02  0.10067207699E+03 -0.20004758494E+02  0.11089758302E+03  0.00000000000E+00 0. -1.
         22    1    3    3    0    0  0.91315030023E+02 -0.15347900124E+02 -0.15314489749E+02  0.93853749752E+02  0.00000000000E+00 0. -1.
</event>
<event>
 7    1  0.6140348E-006  0.8899192E+02  0.7818608E-02  0.1450625E+00
          2   -1    0    0  502    0  0.00000000000E+00  0.00000000000E+00  0.31618846291E+04  0.31618846291E+04  0.00000000000E+00 0. -1.
          1   -1    0    0  501    0 -0.00000000000E+00 -0.00000000000E+00 -0.36996577991E+03  0.36996577991E+03  0.00000000000E+00 0. -1.
         25    2    1    2    0    0  0.56525941200E+02 -0.96135131215E+02  0.89573410610E+03  0.91126357249E+03  0.12499825692E+03 0.  0.
          2    1    1    2  501    0 -0.20850394432E+02  0.17180573978E+02 -0.36086493375E+03  0.36187485610E+03  0.00000000000E+00 0. -1.
          1    1    1    2  502    0 -0.35675546768E+02  0.78954557236E+02  0.22570496769E+04  0.22587119804E+04  0.00000000000E+00 0. -1.
         22    1    3    3    0    0  0.71083330164E+02 -0.10187132403E+02  0.26591357654E+03  0.27543900901E+03  0.00000000000E+00 0.  1.
         22    1    3    3    0    0 -0.14557388964E+02 -0.85947998812E+02  0.62982052956E+03  0.63582456348E+03  0.00000000000E+00 0.  1.
</event>
<event>
 7    1  0.6140348E-006  0.1300419E+03  0.7818608E-02  0.1336935E+00
          2   -1    0    0  502    0  0.00000000000E+00  0.00000000000E+00  0.24458405599E+04  0.24458405599E+04  0.00000000000E+00 0. -1.
          1   -1    0    0  501    0 -0.00000000000E+00 -0.00000000000E+00 -0.38628559262E+03  0.38628559262E+03  0.00000000000E+00 0. -1.
         25    2    1    2    0    0 -0.10858757136E+03  0.53195185821E+02  0.11909660205E+03  0.21078437988E+03  0.12500026293E+03 0.  0.
          2    1    1    2  501    0 -0.21520800476E+02 -0.40578414617E+02 -0.33700969569E+03  0.34012539978E+03  0.00000000000E+00 0. -1.
          1    1    1    2  502    0  0.13010837183E+03 -0.12616771203E+02  0.22774680610E+04  0.22812163729E+04  0.00000000000E+00 0. -1.
         22    1    3    3    0    0 -0.44906065152E+02  0.89627141457E+02  0.62623386894E+02  0.11820011743E+03  0.00000000000E+00 0. -1.
         22    1    3    3    0    0 -0.63681506206E+02 -0.36431955637E+02  0.56473215159E+02  0.92584262456E+02  0.00000000000E+00 0. -1.
</event>
<event>
 7    1  0.6140348E-006  0.4395320E+02  0.7818608E-02  0.1523572E+00
          2   -1    0    0  502    0  0.00000000000E+00  0.00000000000E+00  0.26880005063E+03  0.26880005063E+03  0.00000000000E+00 0. -1.
          1   -1    0    0  501    0 -0.00000000000E+00 -0.00000000000E+00 -0.21023496075E+04  0.21023496075E+04  0.00000000000E+00 0. -1.
         25    2    1    2    0    0 -0.10032800944E+02 -0.71896412965E+02 -0.31093728746E+03  0.34289442392E+03  0.12499935171E+03 0.  0.
          2    1    1    2  501    0  0.16235833149E+02  0.28534610280E+02 -0.17733833684E+04  0.17736872322E+04  0.00000000000E+00 0. -1.
          1    1    1    2  502    0 -0.62030322043E+01  0.43361802685E+02  0.25077109902E+03  0.25456800200E+03  0.00000000000E+00 0. -1.
         22    1    3    3    0    0 -0.18455803735E+02 -0.60359577985E+02 -0.47310161810E+02  0.78880585422E+02  0.00000000000E+00 0.  1.
         22    1    3    3    0    0  0.84230027911E+01 -0.11536834979E+02 -0.26362712565E+03  0.26401383850E+03  0.00000000000E+00 0.  1.
</event>
<event>
 7    1  0.6140348E-006  0.9197298E+02  0.7818608E-02  0.1344009E+00
          2   -1    0    0  502    0  0.00000000000E+00  0.00000000000E+00  0.17220037830E+04  0.17220037830E+04  0.00000000000E+00 0. -1.
          1   -1    0    0  501    0 -0.00000000000E+00 -0.00000000000E+00 -0.54408883679E+02  0.54408883679E+02  0.00000000000E+00 0. -1.
         25    2    1    2    0    0  0.75493316191E+02  0.78152648703E+02  0.85890051958E+03  0.87472299202E+03  0.12499253157E+03 0.  0.
          2    1    1    2  501    0  0.13682221104E+02 -0.59534410432E+02 -0.22812755848E+02  0.65207139404E+02  0.00000000000E+00 0. -1.
          1    1    1    2  502    0 -0.89175537295E+02 -0.18618238271E+02  0.83150713557E+03  0.83648253523E+03  0.00000000000E+00 0. -1.
         22    1    3    3    0    0  0.64123684873E+02  0.10046143882E+03  0.81893237111E+03  0.82755940941E+03  0.00000000000E+00 0.  1.
         22    1    3    3    0    0  0.11369631318E+02 -0.22308790115E+02  0.39968148474E+02  0.47163582616E+02  0.00000000000E+00 0.  1.
</event>
<event>
 7    1  0.6140348E-006  0.3715407E+02  0.7818608E-02  0.1533022E+00
          2   -1    0    0  502    0  0.00000000000E+00  0.00000000000E+00  0.46339268049E+03  0.46339268049E+03  0.00000000000E+00 0. -1.
          1   -1    0    0  501    0 -0.00000000000E+00 -0.00000000000E+00 -0.13134260558E+04  0.13134260558E+04  0.00000000000E+00 0. -1.
         25    2    1    2    0    0 -0.98349403691E+01 -0.10641400160E+02 -0.36556737652E+03  0.38661945798E+03  0.12500053224E+03 0.  0.
          2    1    1    2  501    0 -0.21106513553E+02  0.31209616772E+02 -0.93619103615E+03  0.93694886801E+03  0.00000000000E+00 0. -1.
          1    1    1    2  502    0  0.30941453922E+02 -0.20568216611E+02  0.45172503734E+03  0.45325041033E+03  0.00000000000E+00 0. -1.
         22    1    3    3    0    0 -0.36973807295E+01  0.52146397248E+02 -0.91464308976E+02  0.10535006970E+03  0.00000000000E+00 0.  1.
         22    1    3    3    0    0 -0.61375596396E+01 -0.62787797408E+02 -0.27410306755E+03  0.28126938828E+03  0.00000000000E+00 0.  1.
</event>
<event>
 7    1  0.6140348E-006  0.9566344E+02  0.7818608E-02  0.1311418E+00
          2   -1    0    0  502    0  0.00000000000E+00  0.00000000000E+00  0.22705238558E+03  0.22705238558E+03  0.00000000000E+00 0. -1.
          1   -1    0    0  501    0 -0.00000000000E+00 -0.00000000000E+00 -0.10173309223E+04  0.10173309223E+04  0.00000000000E+00 0. -1.
         25    2    1    2    0    0  0.79393524971E+02  0.14650800253E+02 -0.69556632036E+03  0.71130563927E+03  0.12500091472E+03 0.  0.
          2    1    1    2  501    0 -0.12535840655E+03  0.48752736175E+02 -0.29163312151E+03  0.32115640572E+03  0.00000000000E+00 0. -1.
          1    1    1    2  502    0  0.45964881583E+02 -0.63403536427E+02  0.19692090516E+03  0.21192126288E+03  0.00000000000E+00 0. -1.
         22    1    3    3    0    0  0.56949496579E+02  0.60895871486E+02 -0.26824774139E+03  0.28090639560E+03  0.00000000000E+00 0. -1.
         22    1    3    3    0    0  0.22444028393E+02 -0.46245071233E+02 -0.42731857896E+03  0.43039924367E+03  0.00000000000E+00 0. -1.
</event>
<event>
 7    1  0.6140348E-006  0.6997895E+03  0.7818608E-02  0.1025693E+00
          2   -1    0    0  502    0  0.00000000000E+00  0.00000000000E+00  0.25514676437E+04  0.25514676437E+04  0.00000000000E+00 0. -1.
          1   -1    0    0  501    0 -0.00000000000E+00 -0.00000000000E+00 -0.18271919648E+04  0.18271919648E+04  0.00000000000E+00 0. -1.
         25    2    1    2    0    0  0.28650389293E+03 -0.44505265012E+03  0.26412244003E+03  0.60460111307E+03  0.12500200218E+03 0.  0.
          2    1    1    2  501    0 -0.58474751834E+03  0.44925651187E+03 -0.15634332142E+04  0.17286076735E+04  0.00000000000E+00 0. -1.
          1    1    1    2  502    0  0.29824362541E+03 -0.42038617435E+01  0.20235864530E+04  0.20454508220E+04  0.00000000000E+00 0. -1.
         22    1    3    3    0    0  0.27580928266E+03 -0.39428566988E+03  0.19743242232E+03  0.52010721131E+03  0.00000000000E+00 0.  1.
         22    1    3    3    0    0  0.10694610266E+02 -0.50766980243E+02  0.66690017709E+02  0.84493901755E+02  0.00000000000E+00 0.  1.
</event>
<event>
 7    1  0.6140348E-006  0.3690716E+02  0.7818608E-02  0.1625894E+00
          2   -1    0    0  502    0  0.00000000000E+00  0.00000000000E+00  0.67671974788E+02  0.67671974788E+02  0.00000000000E+00 0. -1.
          1   -1    0    0  501    0 -0.00000000000E+00 -0.00000000000E+00 -0.16719024137E+04  0.16719024137E+04  0.00000000000E+00 0. -1.
         25    2    1    2    0    0 -0.22427710469E+02  0.32221431286E+02 -0.13747315690E+03  0.18990934847E+03  0.12500187574E+03 0.  0.
          2    1    1    2  501    0  0.20123914800E+02  0.47703331485E+01 -0.14998410998E+04  0.14999836842E+04  0.00000000000E+00 0. -1.
          1    1    1    2  502    0  0.23037956695E+01 -0.36991764435E+02  0.33083817863E+02  0.49681355807E+02  0.00000000000E+00 0. -1.
         22    1    3    3    0    0 -0.59753382927E+02  0.53309273204E+02 -0.11851932434E+03  0.14303557467E+03  0.00000000000E+00 0.  1.
         22    1    3    3    0    0  0.37325672458E+02 -0.21087841918E+02 -0.18953832564E+02  0.46873773798E+02  0.00000000000E+00 0.  1.
</event>
<event>
 7    1  0.6140348E-006  0.1007433E+03  0.7818608E-02  0.1384345E+00
          2   -1    0    0  502    0  0.00000000000E+00  0.00000000000E+00  0.72116303907E+02  0.72116303907E+02  0.00000000000E+00 0. -1.
          1   -1    0    0  501    0 -0.00000000000E+00 -0.00000000000E+00 -0.46663983219E+03  0.46663983219E+03  0.00000000000E+00 0. -1.
         25    2    1    2    0    0 -0.67733911772E+02 -0.96107593284E+01 -0.27263657273E+03  0.30763024206E+03  0.12500166216E+03 0.  0.
          2    1    1    2  501    0 -0.39260365199E+02  0.66394879590E+01 -0.11743064354E+03  0.12399764158E+03  0.00000000000E+00 0. -1.
          1    1    1    2  502    0  0.10699427697E+03  0.29712713694E+01 -0.44563120194E+01  0.10712825246E+03  0.00000000000E+00 0. -1.
         22    1    3    3    0    0  0.13025187021E+02  0.14406841634E+02 -0.18516220940E+03  0.18617802333E+03  0.00000000000E+00 0. -1.
         22    1    3    3    0    0 -0.80759098793E+02 -0.24017600962E+02 -0.87474363331E+02  0.12145221873E+03  0.00000000000E+00 0. -1.
</event>
<event>
 7    1  0.6140348E-006  0.6907523E+02  0.7818608E-02  0.1446068E+00
          2   -1    0    0  502    0  0.00000000000E+00  0.00000000000E+00  0.27290041026E+03  0.27290041026E+03  0.00000000000E+00 0. -1.
          1   -1    0    0  501    0 -0.00000000000E+00 -0.00000000000E+00 -0.93550444255E+03  0.93550444255E+03  0.00000000000E+00 0. -1.
         25    2    1    2    0    0  0.57837591447E+01 -0.35410649380E+02 -0.80420360122E+02  0.15290502129E+03  0.12500058101E+03 0.  0.
          2    1    1    2  501    0  0.24562112976E+01  0.70452919549E+02 -0.81594415358E+03  0.81898382683E+03  0.00000000000E+00 0. -1.
          1    1    1    2  502    0 -0.82399704424E+01 -0.35042270169E+02  0.23376048141E+03  0.23651600470E+03  0.00000000000E+00 0. -1.
         22    1    3    3    0    0 -0.10548880258E+02 -0.12253836190E+02 -0.11044353693E+03  0.11162083240E+03  0.00000000000E+00 0.  1.
         22    1    3    3    0    0  0.16332639403E+02 -0.23156813190E+02  0.30023176804E+02  0.41284188891E+02  0.00000000000E+00 0.  1.
</event>
<event>
 7    1  0.6140348E-006  0.1133483E+03  0.7818608E-02  0.1382393E+00
          2   -1    0    0  502    0  0.00000000000E+00  0.00000000000E+00  0.38993897553E+03  0.38993897553E+03  0.00000000000E+00 0. -1.
          1   -1    0    0  501    0 -0.00000000000E+00 -0.00000000000E+00 -0.17750923967E+04  0.17750923967E+04  0.00000000000E+00 0. -1.
         25    2    1    2    0    0 -0.36082790440E+02  0.69532565246E+02 -0.31113055529E+03  0.34433112410E+03  0.12499982078E+03 0.  0.
          2    1    1    2  501    0 -0.15691526059E+02  0.32350076077E+02 -0.14383857912E+04  0.14388350968E+04  0.00000000000E+00 0. -1.
          1    1    1    2  502    0  0.51774316499E+02 -0.10188264132E+03  0.36436292533E+03  0.38186515134E+03  0.00000000000E+00 0. -1.
         22    1    3    3    0    0 -0.11093742752E+02  0.96383066427E+02 -0.14684477529E+03  0.17600043935E+03  0.00000000000E+00 0.  1.
         22    1    3    3    0    0 -0.24989047688E+02 -0.26850501181E+02 -0.16428578000E+03  0.16833068475E+03  0.00000000000E+00 0.  1.
</event>
<event>
 7    1  0.6140348E-006  0.8893542E+02  0.7818608E-02  0.1375379E+00
          2   -1    0    0  502    0  0.00000000000E+00  0.00000000000E+00  0.18932406220E+04  0.18932406220E+04  0.00000000000E+00 0. -1.
          1   -1    0    0  501    0 -0.00000000000E+00 -0.00000000000E+00 -0.10627433182E+03  0.10627433182E+03  0.00000000000E+00 0. -1.
         25    2    1    2    0    0 -0.44536072667E+02  0.69993075929E+02  0.19220139796E+03  0.24382459685E+03  0.12500625666E+03 0.  0.
          2    1    1    2  501    0  0.78982485824E+00 -0.90995536236E+02 -0.54262449521E+02  0.10594916171E+03  0.00000000000E+00 0. -1.
          1    1    1    2  502    0  0.43746247808E+02  0.21002460307E+02  0.16490273418E+04  0.16497411953E+04  0.00000000000E+00 0. -1.
         22    1    3    3    0    0 -0.83794562300E+02  0.65877938127E+02  0.16286097335E+03  0.19464102354E+03  0.00000000000E+00 0.  1.
         22    1    3    3    0    0  0.39258489634E+02  0.41151378023E+01  0.29340424609E+02  0.49183573311E+02  0.00000000000E+00 0.  1.
</event>
<event>
 7    1  0.6140348E-006  0.8224793E+02  0.7818608E-02  0.1397235E+00
          2   -1    0    0  502    0  0.00000000000E+00  0.00000000000E+00  0.84384754132E+03  0.84384754132E+03  0.00000000000E+00 0. -1.
          1   -1    0    0  501    0 -0.00000000000E+00 -0.00000000000E+00 -0.12844416454E+03  0.12844416454E+03  0.00000000000E+00 0. -1.
         25    2    1    2    0    0 -0.65509940705E+02 -0.91970137422E+02  0.13521935100E+03  0.21600557607E+03  0.12499630995E+03 0.  0.
          2    1    1    2  501    0  0.24683017881E+02  0.75622673166E+02 -0.69187289480E+02  0.10542732613E+03  0.00000000000E+00 0. -1.
          1    1    1    2  502    0  0.40826922825E+02  0.16347464256E+02  0.64937131526E+03  0.65085880366E+03  0.00000000000E+00 0. -1.
         22    1    3    3    0    0  0.33380464011E+02 -0.10796283585E+01  0.19218229507E+02  0.38532600748E+02  0.00000000000E+00 0. -1.
         22    1    3    3    0    0 -0.98890404717E+02 -0.90890509063E+02  0.11600112149E+03  0.17747297533E+03  0.00000000000E+00 0. -1.
</event>
<event>
 7    1  0.6140348E-006  0.3302560E+02  0.7818608E-02  0.1580577E+00
          2   -1    0    0  502    0  0.00000000000E+00  0.00000000000E+00  0.50867791897E+02  0.50867791897E+02  0.00000000000E+00 0. -1.
          1   -1    0    0  501    0 -0.00000000000E+00 -0.00000000000E+00 -0.11180893532E+04  0.11180893532E+04  0.00000000000E+00 0. -1.
         25    2    1    2    0    0  0.69059278275E+01 -0.29090151139E+02 -0.41044142129E+03  0.43009477037E+03  0.12500168979E+03 0.  0.
          2    1    1    2  501    0 -0.29906034379E+02  0.50167056849E+01 -0.69068080451E+03  0.69134615928E+03  0.00000000000E+00 0. -1.
          1    1    1    2  502    0  0.23000106551E+02  0.24073445454E+02  0.33900664502E+02  0.47516215454E+02  0.00000000000E+00 0. -1.
         22    1    3    3    0    0  0.50523493007E+01  0.17987822498E+02 -0.36213533856E+03  0.36261700377E+03  0.00000000000E+00 0. -1.
         22    1    3    3    0    0  0.18535785268E+01 -0.47077973637E+02 -0.48306082735E+02  0.67477766593E+02  0.00000000000E+00 0. -1.
</event>
<event>
 7    1  0.6140348E-006  0.8235647E+02  0.7818608E-02  0.1360794E+00
          2   -1    0    0  502    0  0.00000000000E+00  0.00000000000E+00  0.56149132654E+03  0.56149132654E+03  0.00000000000E+00 0. -1.
          1   -1    0    0  501    0 -0.00000000000E+00 -0.00000000000E+00 -0.22167191705E+04  0.22167191705E+04  0.00000000000E+00 0. -1.
         25    2    1    2    0    0 -0.27408355924E+02 -0.68745146572E+02 -0.67779529448E+02  0.16029970983E+03  0.12499927682E+03 0.  0.
          2    1    1    2  501    0 -0.48267969165E+02  0.34186291344E+02 -0.20989019019E+04  0.20997351483E+04  0.00000000000E+00 0. -1.
          1    1    1    2  502    0  0.75676325089E+02  0.34558855227E+02  0.51145358740E+03  0.51817563887E+03  0.00000000000E+00 0. -1.
         22    1    3    3    0    0 -0.30466859466E+02 -0.39397151228E+02  0.30016362401E+02  0.58149351349E+02  0.00000000000E+00 0. -1.
         22    1    3    3    0    0  0.30585035421E+01 -0.29347995344E+02 -0.97795891848E+02  0.10215035848E+03  0.00000000000E+00 0. -1.
</event>
<event>
 7    1  0.6140348E-006  0.5471207E+02  0.7818608E-02  0.1442608E+00
          2   -1    0    0  502    0  0.00000000000E+00  0.00000000000E+00  0.59076746174E+03  0.59076746174E+03  0.00000000000E+00 0. -1.
          1   -1    0    0  501    0 -0.00000000000E+00 -0.00000000000E+00 -0.44235088664E+03  0.44235088664E+03  0.00000000000E+00 0. -1.
         25    2    1    2    0    0  0.53301021001E+02  0.69349316754E+01  0.18994746478E+03  0.23364962160E+03  0.12499205647E+03 0.  0.
          2    1    1    2  501    0 -0.28891821833E+02 -0.46667498038E+02 -0.41726125906E+03  0.42085573663E+03  0.00000000000E+00 0. -1.
          1    1    1    2  502    0 -0.24409199168E+02  0.39732566362E+02  0.37573036938E+03  0.37861299015E+03  0.00000000000E+00 0. -1.
         22    1    3    3    0    0  0.19715831709E+02 -0.47689017586E+01 -0.15259565647E+02  0.25383277717E+02  0.00000000000E+00 0.  1.
         22    1    3    3    0    0  0.33585189292E+02  0.11703833434E+02  0.20520703043E+03  0.20826634389E+03  0.00000000000E+00 0.  1.
</event>
<event>
 7    1  0.6140348E-006  0.8118952E+02  0.7818608E-02  0.1443416E+00
          2   -1    0    0  502    0  0.00000000000E+00  0.00000000000E+00  0.55779468807E+03  0.55779468807E+03  0.00000000000E+00 0. -1.
          1   -1    0    0  501    0 -0.00000000000E+00 -0.00000000000E+00 -0.71824236568E+03  0.71824236568E+03  0.00000000000E+00 0. -1.
         25    2    1    2    0    0  0.10034704121E+03 -0.41604499957E+02  0.30587855153E+02  0.16840409836E+03  0.12499544138E+03 0.  0.
          2    1    1    2  501    0 -0.23238693149E+02  0.20871690026E+02 -0.64547587743E+03  0.64623120680E+03  0.00000000000E+00 0. -1.
          1    1    1    2  502    0 -0.77108348063E+02  0.20732809931E+02  0.45444034466E+03  0.46140174859E+03  0.00000000000E+00 0. -1.
         22    1    3    3    0    0 -0.14094618784E+02  0.22935718526E+02 -0.13108399894E+02  0.29942204507E+02  0.00000000000E+00 0.  1.
         22    1    3    3    0    0  0.11444165999E+03 -0.64540218483E+02  0.43696255047E+02  0.13846189385E+03  0.00000000000E+00 0.  1.
</event>
<event>
 7    1  0.6140348E-006  0.7785736E+02  0.7818608E-02  0.1392889E+00
          2   -1    0    0  502    0  0.00000000000E+00  0.00000000000E+00  0.43551987522E+03  0.43551987522E+03  0.00000000000E+00 0. -1.
          1   -1    0    0  501    0 -0.00000000000E+00 -0.00000000000E+00 -0.92100785032E+03  0.92100785032E+03  0.00000000000E+00 0. -1.
         25    2    1    2    0    0  0.48265630411E+02  0.44171360583E+01  0.31480736023E+02  0.13771385722E+03  0.12499995024E+03 0.  0.
          2    1    1    2  501    0 -0.68080678514E+02  0.39407991058E+02 -0.86444898194E+03  0.86802074338E+03  0.00000000000E+00 0. -1.
          1    1    1    2  502    0  0.19815048103E+02 -0.43825127117E+02  0.34748027082E+03  0.35079312495E+03  0.00000000000E+00 0. -1.
         22    1    3    3    0    0  0.38697324454E+02  0.10115928091E+02  0.79192178124E+02  0.88719873743E+02  0.00000000000E+00 0. -1.
         22    1    3    3    0    0  0.95683059566E+01 -0.56987920324E+01 -0.47711442100E+02  0.48993983475E+02  0.00000000000E+00 0. -1.
</event>
<event>
 7    1  0.6140348E-006  0.8223401E+02  0.7818608E-02  0.1360664E+00
          2   -1    0    0  502    0  0.00000000000E+00  0.00000000000E+00  0.37610569341E+04  0.37610569341E+04  0.00000000000E+00 0. -1.
          1   -1    0    0  501    0 -0.00000000000E+00 -0.00000000000E+00 -0.31358300640E+02  0.31358300640E+02  0.00000000000E+00 0. -1.
         25    2    1    2    0    0  0.97686037438E+02  0.33113799387E+02  0.28874383178E+03  0.33111184281E+03  0.12499186549E+03 0.  0.
          2    1    1    2  501    0 -0.46115835749E+02 -0.62390306819E+02  0.14197264416E+03  0.16178829494E+03  0.00000000000E+00 0. -1.
          1    1    1    2  502    0 -0.51570201689E+02  0.29276507433E+02  0.32989821575E+04  0.32995150970E+04  0.00000000000E+00 0. -1.
         22    1    3    3    0    0 -0.20131127598E+02 -0.55169035393E+01  0.11950551547E+03  0.12131474251E+03  0.00000000000E+00 0.  1.
         22    1    3    3    0    0  0.11781716504E+03  0.38630702926E+02  0.16923831631E+03  0.20979710029E+03  0.00000000000E+00 0.  1.
</event>
<event>
 7    1  0.6140348E-006  0.9662518E+02  0.7818608E-02  0.1348770E+00
          2   -1    0    0  502    0  0.00000000000E+00  0.00000000000E+00  0.15114908450E+02  0.15114908450E+02  0.00000000000E+00 0. -1.
          1   -1    0    0  501    0 -0.00000000000E+00 -0.00000000000E+00 -0.48396754101E+04  0.48396754101E+04  0.00000000000E+00 0. -1.
         25    2    1    2    0    0  0.43714343148E+02 -0.20128892288E+02 -0.30229832439E+04  0.30259487795E+04  0.12498882902E+03 0.  0.
          2    1    1    2  501    0  0.30156351326E+02 -0.46971467077E+02 -0.16254334606E+04  0.16263916069E+04  0.00000000000E+00 0. -1.
          1    1    1    2  502    0 -0.73870694475E+02  0.67100359365E+02 -0.17614379719E+03  0.20244993212E+03  0.00000000000E+00 0. -1.
         22    1    3    3    0    0  0.70859632058E+02 -0.38580800880E+02 -0.27193451099E+04  0.27205417462E+04  0.00000000000E+00 0.  1.
         22    1    3    3    0    0 -0.27145288910E+02  0.18451908592E+02 -0.30363813394E+03  0.30540703336E+03  0.00000000000E+00 0.  1.
</event>
<event>
 7    1  0.6140348E-006  0.6229622E+02  0.7818608E-02  0.1449128E+00
          2   -1    0    0  502    0  0.00000000000E+00  0.00000000000E+00  0.28884023665E+04  0.28884023665E+04  0.00000000000E+00 0. -1.
          1   -1    0    0  501    0 -0.00000000000E+00 -0.00000000000E+00 -0.46648364177E+03  0.46648364177E+03  0.00000000000E+00 0. -1.
         25    2    1    2    0    0  0.43276996497E+02 -0.52484928796E+02  0.12634373195E+04  0.12714266447E+04  0.12499714514E+03 0.  0.
          2    1    1    2  501    0 -0.59892152495E+02  0.17176466666E+02 -0.46015427237E+03  0.46435337333E+03  0.00000000000E+00 0. -1.
          1    1    1    2  502    0  0.16615155997E+02  0.35308462130E+02  0.16186356776E+04  0.16191059903E+04  0.00000000000E+00 0. -1.
         22    1    3    3    0    0  0.73839045155E+02  0.59716173940E+01  0.55438447374E+03  0.55931208598E+03  0.00000000000E+00 0. -1.
         22    1    3    3    0    0 -0.30562048658E+02 -0.58456546190E+02  0.70905284577E+03  0.71211455869E+03  0.00000000000E+00 0. -1.
</event>
<event>
 7    1  0.6140348E-006  0.1245182E+03  0.7818608E-02  0.1247090E+00
          2   -1    0    0  502    0  0.00000000000E+00  0.00000000000E+00  0.58852309164E+03  0.58852309164E+03  0.00000000000E+00 0. -1.
          1   -1    0    0  501    0 -0.00000000000E+00 -0.00000000000E+00 -0.19878910162E+04  0.19878910162E+04  0.00000000000E+00 0. -1.
         25    2    1    2    0    0 -0.24568231764E+02  0.83095016941E+02  0.22423951913E+03  0.27095458914E+03  0.12499859032E+03 0.  0.
          2    1    1    2  501    0 -0.11776828856E+03 -0.40440081506E+02 -0.19462583068E+04  0.19502374642E+04  0.00000000000E+00 0. -1.
          1    1    1    2  502    0  0.14233652032E+03 -0.42654935435E+02  0.32265086311E+03  0.35522205450E+03  0.00000000000E+00 0. -1.
         22    1    3    3    0    0  0.17699533247E+02 -0.29176842365E+01 -0.80572561680E+01  0.19664834996E+02  0.00000000000E+00 0. -1.
         22    1    3    3    0    0 -0.42267765010E+02  0.86012701177E+02  0.23229677530E+03  0.25128975414E+03  0.00000000000E+00 0. -1.
</event>
<event>
 7    1  0.6140348E-006  0.7314899E+02  0.7818608E-02  0.1381857E+00
          2   -1    0    0  502    0  0.00000000000E+00  0.00000000000E+00  0.39938071237E+04  0.39938071237E+04  0.00000000000E+00 0. -1.
          1   -1    0    0  501    0 -0.00000000000E+00 -0.00000000000E+00 -0.10460396827E+02  0.10460396827E+02  0.00000000000E+00 0. -1.
         25    2    1    2    0    0  0.31352886066E+02 -0.31298988085E+02  0.14859166635E+04  0.14918232573E+04  0.12500268075E+03 0.  0.
          2    1    1    2  501    0  0.50587255281E+02  0.23918967830E+02  0.10833469037E+03  0.12193273783E+03  0.00000000000E+00 0. -1.
          1    1    1    2  502    0 -0.81940141346E+02  0.73800202550E+01  0.23890953730E+04  0.23905115253E+04  0.00000000000E+00 0. -1.
         22    1    3    3    0    0 -0.13676573228E+02 -0.11861237116E+02  0.12806708219E+04  0.12807987710E+04  0.00000000000E+00 0.  1.
         22    1    3    3    0    0  0.45029459294E+02 -0.19437750969E+02  0.20524584154E+03  0.21102448634E+03  0.00000000000E+00 0.  1.
</event>
<event>
 7    1  0.6140348E-006  0.5434573E+02  0.7818608E-02  0.1450480E+00
          2   -1    0    0  502    0  0.00000000000E+00  0.00000000000E+00  0.69793509632E+03  0.69793509632E+03  0.00000000000E+00 0. -1.
          1   -1    0    0  501    0 -0.00000000000E+00 -0.00000000000E+00 -0.10898747044E+04  0.10898747044E+04  0.00000000000E+00 0. -1.
         25    2    1    2    0    0  0.31681696522E+01  0.93284978504E+02  0.38426392932E+03  0.41472164452E+03  0.12499260197E+03 0.  0.
          2    1    1    2  501    0  0.79390205090E+00 -0.44280669040E+02 -0.10721608059E+04  0.10730751146E+04  0.00000000000E+00 0. -1.
          1    1    1    2  502    0 -0.39620717031E+01 -0.49004309463E+02  0.29595726848E+03  0.30001304159E+03  0.00000000000E+00 0. -1.
         22    1    3    3    0    0  0.44520483457E+02  0.97407491303E+02  0.21201277243E+03  0.23752833196E+03  0.00000000000E+00 0.  1.
         22    1    3    3    0    0 -0.41352313805E+02 -0.41225127996E+01  0.17225115688E+03  0.17719331256E+03  0.00000000000E+00 0.  1.
</event>
<event>
 7    1  0.6140348E-006  0.1049206E+03  0.7818608E-02  0.1280542E+00
          2   -1    0    0  502    0  0.00000000000E+00  0.00000000000E+00  0.10396722727E+04  0.10396722727E+04  0.00000000000E+00 0. -1.
          1   -1    0    0  501    0 -0.00000000000E+00 -0.00000000000E+00 -0.14421594310E+03  0.14421594310E+03  0.00000000000E+00 0. -1.
         25    2    1    2    0    0  0.79766365670E+02 -0.93559264491E+01  0.23805419242E+03  0.28062163481E+03  0.12501398699E+03 0.  0.
          2    1    1    2  501    0 -0.27960151975E+02  0.10112650728E+03 -0.96190576255E+02  0.14234102548E+03  0.00000000000E+00 0. -1.
          1    1    1    2  502    0 -0.51806213695E+02 -0.91770580834E+02  0.75359271340E+03  0.76092555547E+03  0.00000000000E+00 0. -1.
         22    1    3    3    0    0  0.56636085186E+02  0.55105717958E+02  0.11054233610E+03  0.13588191332E+03  0.00000000000E+00 0. -1.
         22    1    3    3    0    0  0.23130280484E+02 -0.64461644407E+02  0.12751185631E+03  0.14473972149E+03  0.00000000000E+00 0. -1.
</event>
<event>
 7    1  0.6140348E-006  0.8028997E+02  0.7818608E-02  0.1331182E+00
          2   -1    0    0  502    0  0.00000000000E+00  0.00000000000E+00  0.10343442457E+04  0.10343442457E+04  0.00000000000E+00 0. -1.
          1   -1    0    0  501    0 -0.00000000000E+00 -0.00000000000E+00 -0.28556584533E+03  0.28556584533E+03  0.00000000000E+00 0. -1.
         25    2    1    2    0    0  0.56465280398E+02 -0.32456336296E+02  0.13097583137E+03  0.19241129525E+03  0.12500278589E+03 0.  0.
          2    1    1    2  501    0  0.97328456791E+01  0.79697868752E+02 -0.24656782388E+03  0.25931095299E+03  0.00000000000E+00 0. -1.
          1    1    1    2  502    0 -0.66198126077E+02 -0.47241532456E+02  0.86437039283E+03  0.86818784274E+03  0.00000000000E+00 0. -1.
         22    1    3    3    0    0 -0.33779253761E+02  0.17096803415E+02  0.39050582593E+02  0.54390133963E+02  0.00000000000E+00 0.  1.
         22    1    3    3    0    0  0.90244534159E+02 -0.49553139711E+02  0.91925248775E+02  0.13802116129E+03  0.00000000000E+00 0.  1.
</event>
<event>
 7    1  0.6140348E-006  0.4050665E+02  0.7818608E-02  0.1534438E+00
          2   -1    0    0  502    0  0.00000000000E+00  0.00000000000E+00  0.22673382049E+04  0.22673382049E+04  0.00000000000E+00 0. -1.
          1   -1    0    0  501    0 -0.00000000000E+00 -0.00000000000E+00 -0.38413598455E+02  0.38413598455E+02  0.00000000000E+00 0. -1.
         25    2    1    2    0    0 -0.52696400192E+02  0.20493088940E+01  0.20458050660E+03  0.24547667903E+03  0.12499802401E+03 0.  0.
          2    1    1    2  501    0  0.22212636085E+02  0.24615593669E+02 -0.22911897698E+01  0.33235195262E+02  0.00000000000E+00 0. -1.
          1    1    1    2  502    0  0.30483764106E+02 -0.26664902563E+02  0.20266352896E+04  0.20270399291E+04  0.00000000000E+00 0. -1.
         22    1    3    3    0    0 -0.34815854051E+02 -0.50879858746E+02  0.44798068233E+02  0.76208730712E+02  0.00000000000E+00 0.  1.
         22    1    3    3    0    0 -0.17880546140E+02  0.52929167640E+02  0.15978243837E+03  0.16926794832E+03  0.00000000000E+00 0.  1.
</event>
<event>
 7    1  0.6140348E-006  0.1560149E+03  0.7818608E-02  0.1265186E+00
          2   -1    0    0  502    0  0.00000000000E+00  0.00000000000E+00  0.17404924766E+04  0.17404924766E+04  0.00000000000E+00 0. -1.
          1   -1    0    0  501    0 -0.00000000000E+00 -0.00000000000E+00 -0.21706560930E+03  0.21706560930E+03  0.00000000000E+00 0. -1.
         25    2    1    2    0    0  0.19100050603E+03  0.70547159704E+01  0.20183189457E+03  0.30477843202E+03  0.12499126625E+03 0.  0.
          2    1    1    2  501    0 -0.14412817089E+03  0.50379474472E+02 -0.12925030099E+03  0.20004164916E+03  0.00000000000E+00 0. -1.
          1    1    1    2  502    0 -0.46872335147E+02 -0.57434190443E+02  0.14508452738E+04  0.14527380047E+04  0.00000000000E+00 0. -1.
         22    1    3    3    0    0  0.12083275586E+03 -0.55952537420E+02  0.10463665708E+03  0.16935191565E+03  0.00000000000E+00 0.  1.
         22    1    3    3    0    0  0.70167750178E+02  0.63007253390E+02  0.97195237492E+02  0.13542651637E+03  0.00000000000E+00 0.  1.
</event>
<event>
 7    1  0.6140348E-006  0.2306965E+03  0.7818608E-02  0.1178654E+00
          2   -1    0    0  502    0  0.00000000000E+00  0.00000000000E+00  0.83464146267E+03  0.83464146267E+03  0.00000000000E+00 0. -1.
          1   -1    0    0  501    0 -0.00000000000E+00 -0.00000000000E+00 -0.40877689040E+03  0.40877689040E+03  0.00000000000E+00 0. -1.
         25    2    1    2    0    0 -0.19680673268E+03  0.58572336385E+02  0.39622929233E+03  0.46345028262E+03  0.12499961497E+03 0.  0.
          2    1    1    2  501    0 -0.17841163367E+02  0.12285019413E+03 -0.31305513856E+03  0.33676994683E+03  0.00000000000E+00 0. -1.
          1    1    1    2  502    0  0.21464789605E+03 -0.18142253051E+03  0.34269041850E+03  0.44319812363E+03  0.00000000000E+00 0. -1.
         22    1    3    3    0    0 -0.20764484380E+03  0.54702759654E+02  0.39758181671E+03  0.45186289297E+03  0.00000000000E+00 0.  1.
         22    1    3    3    0    0  0.10838111117E+02  0.38695767308E+01 -0.13525243768E+01  0.11587389648E+02  0.00000000000E+00 0.  1.
</event>
<event>
 7    1  0.6140348E-006  0.1406361E+03  0.7818608E-02  0.1320326E+00
          2   -1    0    0  502    0  0.00000000000E+00  0.00000000000E+00  0.32589909662E+03  0.32589909662E+03  0.00000000000E+00 0. -1.
          1   -1    0    0  501    0 -0.00000000000E+00 -0.00000000000E+00 -0.57937137598E+03  0.57937137598E+03  0.00000000000E+00 0. -1.
         25    2    1    2    0    0 -0.93257619289E+02 -0.37689354167E+02 -0.63063255645E+02  0.17239221573E+03  0.12499852343E+03 0.  0.
          2    1    1    2  501    0  0.14053955644E+03  0.51181156106E+02 -0.44713422937E+03  0.47148689986E+03  0.00000000000E+00 0. -1.
          1    1    1    2  502    0 -0.47281937155E+02 -0.13491801939E+02  0.25672520566E+03  0.26139135701E+03  0.00000000000E+00 0. -1.
         22    1    3    3    0    0 -0.11026145835E+03 -0.62862633589E+02 -0.36573648968E+02  0.13208683393E+03  0.00000000000E+00 0.  1.
         22    1    3    3    0    0  0.17003839065E+02  0.25173279423E+02 -0.26489606678E+02  0.40305381797E+02  0.00000000000E+00 0.  1.
</event>
<event>
 7    1  0.6140348E-006  0.6617492E+02  0.7818608E-02  0.1431968E+00
          2   -1    0    0  502    0  0.00000000000E+00  0.00000000000E+00  0.31761523659E+02  0.31761523659E+02  0.00000000000E+00 0. -1.
          1   -1    0    0  501    0 -0.00000000000E+00 -0.00000000000E+00 -0.33391514833E+04  0.33391514833E+04  0.00000000000E+00 0. -1.
         25    2    1    2    0    0  0.23860616637E+02  0.38503882861E+02 -0.30764873429E+03  0.33514926037E+03  0.12500161997E+03 0.  0.
          2    1    1    2  501    0 -0.62785195973E+02 -0.23385538294E+02 -0.29926602639E+04  0.29934101489E+04  0.00000000000E+00 0. -1.
          1    1    1    2  502    0  0.38924579337E+02 -0.15118344567E+02 -0.70809613710E+01  0.42353597638E+02  0.00000000000E+00 0. -1.
         22    1    3    3    0    0  0.17087362471E+02 -0.15323420804E+02 -0.26539131444E+03  0.26638193438E+03  0.00000000000E+00 0.  1.
         22    1    3    3    0    0  0.67732541659E+01  0.53827303665E+02 -0.42257419845E+02  0.68767325990E+02  0.00000000000E+00 0.  1.
</event>
<event>
 7    1  0.6140348E-006  0.1610925E+03  0.7818608E-02  0.1244624E+00
          2   -1    0    0  502    0  0.00000000000E+00  0.00000000000E+00  0.38159655879E+03  0.38159655879E+03  0.00000000000E+00 0. -1.
          1   -1    0    0  501    0 -0.00000000000E+00 -0.00000000000E+00 -0.59840140892E+03  0.59840140892E+03  0.00000000000E+00 0. -1.
         25    2    1    2    0    0 -0.38665558959E+02  0.11301726241E+03 -0.10021017560E+03  0.19983809304E+03  0.12500102834E+03 0.  0.
          2    1    1    2  501    0 -0.88019207404E+02 -0.80380316416E+00 -0.42195502193E+03  0.43103835967E+03  0.00000000000E+00 0. -1.
          1    1    1    2  502    0  0.12668476636E+03 -0.11221345924E+03  0.30536034740E+03  0.34912151499E+03  0.00000000000E+00 0. -1.
         22    1    3    3    0    0 -0.21322510997E+02  0.13367791569E+03 -0.10638070684E+03  0.17216645842E+03  0.00000000000E+00 0.  1.
         22    1    3    3    0    0 -0.17343047962E+02 -0.20660653282E+02  0.61705312423E+01  0.27671634619E+02  0.00000000000E+00 0.  1.
</event>
<event>
 7    1  0.6140348E-006  0.7004145E+02  0.7818608E-02  0.1395150E+00
          2   -1    0    0  502    0  0.00000000000E+00  0.00000000000E+00  0.15061668233E+04  0.15061668233E+04  0.00000000000E+00 0. -1.
          1   -1    0    0  501    0 -0.00000000000E+00 -0.00000000000E+00 -0.31221367768E+03  0.31221367768E+03  0.00000000000E+00 0. -1.
         25    2    1    2    0    0 -0.23490109992E+02 -0.10047683276E+03  0.41169655434E+03  0.44245569386E+03  0.12500243591E+03 0.  0.
          2    1    1    2  501    0 -0.20715156609E+02  0.48247743386E+02 -0.29341654739E+03  0.29807756162E+03  0.00000000000E+00 0. -1.
          1    1    1    2  502    0  0.44205266600E+02  0.52229089372E+02  0.10756731387E+04  0.10778472455E+04  0.00000000000E+00 0. -1.
         22    1    3    3    0    0 -0.12791096916E+01 -0.66903590152E+02  0.39194436349E+03  0.39761553109E+03  0.00000000000E+00 0.  1.
         22    1    3    3    0    0 -0.22211000300E+02 -0.33573242606E+02  0.19752190857E+02  0.44840162768E+02  0.00000000000E+00 0.  1.
</event>
<event>
 7    1  0.6140348E-006  0.1607947E+03  0.7818608E-02  0.1305199E+00
          2   -1    0    0  502    0  0.00000000000E+00  0.00000000000E+00  0.14765989762E+04  0.14765989762E+04  0.00000000000E+00 0. -1.
          1   -1    0    0  501    0 -0.00000000000E+00 -0.00000000000E+00 -0.48226511803E+02  0.48226511803E+02  0.00000000000E+00 0. -1.
         25    2    1    2    0    0  0.73557394758E+02 -0.16405847453E+03  0.51519299720E+03  0.55979539157E+03  0.12498472972E+03 0.  0.
          2    1    1    2  501    0 -0.25769444085E+02  0.15192918129E+03  0.21183792381E+03  0.26195771861E+03  0.00000000000E+00 0. -1.
          1    1    1    2  502    0 -0.47787950673E+02  0.12129293244E+02  0.70134154342E+03  0.70307237786E+03  0.00000000000E+00 0. -1.
         22    1    3    3    0    0  0.18559882624E+02 -0.13419666707E+03  0.22259467293E+03  0.26057936049E+03  0.00000000000E+00 0.  1.
         22    1    3    3    0    0  0.54997512134E+02 -0.29861807460E+02  0.29259832427E+03  0.29921603107E+03  0.00000000000E+00 0.  1.
</event>
<event>
 7    1  0.6140348E-006  0.1227480E+03  0.7818608E-02  0.1325028E+00
          2   -1    0    0  502    0  0.00000000000E+00  0.00000000000E+00  0.77021546423E+03  0.77021546423E+03  0.00000000000E+00 0. -1.
          1   -1    0    0  501    0 -0.00000000000E+00 -0.00000000000E+00 -0.24077813183E+03  0.24077813183E+03  0.00000000000E+00 0. -1.
         25    2    1    2    0    0 -0.52878619533E+00 -0.11711364309E+03  0.10448075855E+03  0.20064121610E+03  0.12499913471E+03 0.  0.
          2    1    1    2  501    0 -0.53819663885E+02  0.47205483651E+01 -0.18243330339E+03  0.19026494681E+03  0.00000000000E+00 0. -1.
          1    1    1    2  502    0  0.54348450080E+02  0.11239309473E+03  0.60738987725E+03  0.62008743315E+03  0.00000000000E+00 0. -1.
         22    1    3    3    0    0  0.28291768932E+02 -0.12584622613E+03  0.11059928784E+03  0.16991144544E+03  0.00000000000E+00 0.  1.
         22    1    3    3    0    0 -0.28820555127E+02  0.87325830352E+01 -0.61185292897E+01  0.30729770663E+02  0.00000000000E+00 0.  1.
</event>
<event>
 7    1  0.6140348E-006  0.5282662E+02  0.7818608E-02  0.1451872E+00
          2   -1    0    0  502    0  0.00000000000E+00  0.00000000000E+00  0.98558295462E+01  0.98558295462E+01  0.00000000000E+00 0. -1.
          1   -1    0    0  501    0 -0.00000000000E+00 -0.00000000000E+00 -0.15651299437E+04  0.15651299437E+04  0.00000000000E+00 0. -1.
         25    2    1    2    0    0 -0.34802915777E+02 -0.30825041580E+02 -0.11047166713E+04  0.11127368471E+04  0.12499176316E+03 0.  0.
          2    1    1    2  501    0 -0.22481795650E+02  0.39093896575E+02 -0.17917955431E+03  0.18476762857E+03  0.00000000000E+00 0. -1.
          1    1    1    2  502    0  0.57284711428E+02 -0.82688549950E+01 -0.27137788850E+03  0.27748129755E+03  0.00000000000E+00 0. -1.
         22    1    3    3    0    0 -0.67582915141E+02 -0.12725868881E+02 -0.32868730076E+03  0.33580461557E+03  0.00000000000E+00 0. -1.
         22    1    3    3    0    0  0.32779999364E+02 -0.18099172699E+02 -0.77602937059E+03  0.77693223155E+03  0.00000000000E+00 0. -1.
</event>
<event>
 7    1  0.6140348E-006  0.2913116E+02  0.7818608E-02  0.1629036E+00
          2   -1    0    0  502    0  0.00000000000E+00  0.00000000000E+00  0.52044851542E+03  0.52044851542E+03  0.00000000000E+00 0. -1.
          1   -1    0    0  501    0 -0.00000000000E+00 -0.00000000000E+00 -0.47163135113E+03  0.47163135113E+03  0.00000000000E+00 0. -1.
         25    2    1    2    0    0 -0.15675694548E+02  0.51448692774E+02 -0.11908828366E+03  0.18083156535E+03  0.12500136133E+03 0.  0.
          2    1    1    2  501    0  0.12334894046E+02 -0.22578666281E+02 -0.32072451192E+03  0.32175481089E+03  0.00000000000E+00 0. -1.
          1    1    1    2  502    0  0.33408005022E+01 -0.28870026493E+02  0.48862995987E+03  0.48949349031E+03  0.00000000000E+00 0. -1.
         22    1    3    3    0    0 -0.18380534760E+02 -0.15705813697E+02 -0.11045546030E+03  0.11307044420E+03  0.00000000000E+00 0. -1.
         22    1    3    3    0    0  0.27048402125E+01  0.67154506471E+02 -0.86328233560E+01  0.67761121147E+02  0.00000000000E+00 0. -1.
</event>
<event>
 7    1  0.6140348E-006  0.1189991E+03  0.7818608E-02  0.1439555E+00
          2   -1    0    0  502    0  0.00000000000E+00  0.00000000000E+00  0.71918959731E+02  0.71918959731E+02  0.00000000000E+00 0. -1.
          1   -1    0    0  501    0 -0.00000000000E+00 -0.00000000000E+00 -0.19267102806E+04  0.19267102806E+04  0.00000000000E+00 0. -1.
         25    2    1    2    0    0 -0.10812218780E+03  0.22444668331E+02 -0.12367232686E+04  0.12479208189E+04  0.12501102586E+03 0.  0.
          2    1    1    2  501    0 -0.28423007523E+01  0.21748653410E+02 -0.63026471061E+03  0.63064624636E+03  0.00000000000E+00 0. -1.
          1    1    1    2  502    0  0.11096448855E+03 -0.44193321741E+02  0.12196658331E+02  0.12006217506E+03  0.00000000000E+00 0. -1.
         22    1    3    3    0    0 -0.10504213749E+03  0.19264006494E+02 -0.50427830794E+03  0.51546247628E+03  0.00000000000E+00 0.  1.
         22    1    3    3    0    0 -0.30800503107E+01  0.31806618368E+01 -0.73244496063E+03  0.73245834261E+03  0.00000000000E+00 0.  1.
</event>
<event>
 7    1  0.6140348E-006  0.1343495E+03  0.7818608E-02  0.1319947E+00
          2   -1    0    0  502    0  0.00000000000E+00  0.00000000000E+00  0.25792294243E+04  0.25792294243E+04  0.00000000000E+00 0. -1.
          1   -1    0    0  501    0 -0.00000000000E+00 -0.00000000000E+00 -0.11146033765E+04  0.11146033765E+04  0.00000000000E+00 0. -1.
         25    2    1    2    0    0 -0.39574100526E+02  0.74359917134E+02  0.76661055324E+03  0.78128832161E+03  0.12499677766E+03 0.  0.
          2    1    1    2  501    0  0.50240411648E+02 -0.12489057261E+03 -0.11028013756E+04  0.11109872313E+04  0.00000000000E+00 0. -1.
          1    1    1    2  502    0 -0.10666311122E+02  0.50530655479E+02  0.18008168702E+04  0.18015572478E+04  0.00000000000E+00 0. -1.
         22    1    3    3    0    0 -0.26841292493E+02  0.39925146665E+02  0.72160776646E+03  0.72320967978E+03  0.00000000000E+00 0. -1.
         22    1    3    3    0    0 -0.12732808033E+02  0.34434770469E+02  0.45002786785E+02  0.58078641823E+02  0.00000000000E+00 0. -1.
</event>
<event>
 7    1  0.6140348E-006  0.5781383E+02  0.7818608E-02  0.1506706E+00
          2   -1    0    0  502    0  0.00000000000E+00  0.00000000000E+00  0.25042806420E+02  0.25042806420E+02  0.00000000000E+00 0. -1.
          1   -1    0    0  501    0 -0.00000000000E+00 -0.00000000000E+00 -0.19992790637E+04  0.19992790637E+04  0.00000000000E+00 0. -1.
         25    2    1    2    0    0  0.57621251979E+02 -0.57084912905E+02 -0.44826339862E+03  0.47238061920E+03  0.12499791555E+03 0.  0.
          2    1    1    2  501    0 -0.13336408551E+02  0.24574163577E+02 -0.14801170966E+04  0.14803811566E+04  0.00000000000E+00 0. -1.
          1    1    1    2  502    0 -0.44284843427E+02  0.32510749328E+02 -0.45855762081E+02  0.71560094294E+02  0.00000000000E+00 0. -1.
         22    1    3    3    0    0  0.33451407616E+02  0.13921559055E+02 -0.33232512117E+03  0.33429446995E+03  0.00000000000E+00 0.  1.
         22    1    3    3    0    0  0.24169844363E+02 -0.71006471960E+02 -0.11593827745E+03  0.13808614925E+03  0.00000000000E+00 0.  1.
</event>
<event>
 7    1  0.6140348E-006  0.6330751E+02  0.7818608E-02  0.1399926E+00
          2   -1    0    0  502    0  0.00000000000E+00  0.00000000000E+00  0.11617620585E+03  0.11617620585E+03  0.00000000000E+00 0. -1.
          1   -1    0    0  501    0 -0.00000000000E+00 -0.00000000000E+00 -0.17062153303E+03  0.17062153303E+03  0.00000000000E+00 0. -1.
         25    2    1    2    0    0 -0.24139981608E+02  0.18237531965E+02 -0.23577952676E+02  0.13075081421E+03  0.12499803711E+03 0.  0.
          2    1    1    2  501    0 -0.16105901699E+02 -0.67105824139E+02 -0.55049386021E+02  0.88278120757E+02  0.00000000000E+00 0. -1.
          1    1    1    2  502    0  0.40245883307E+02  0.48868292175E+02  0.24182011515E+02  0.67768803916E+02  0.00000000000E+00 0. -1.
         22    1    3    3    0    0  0.42017856135E+02  0.17667230133E+02  0.21798037846E+02  0.50525099789E+02  0.00000000000E+00 0.  1.
         22    1    3    3    0    0 -0.66157837743E+02  0.57030183221E+00 -0.45375990521E+02  0.80225714424E+02  0.00000000000E+00 0.  1.
</event>
<event>
 7    1  0.6140348E-006  0.2084249E+03  0.7818608E-02  0.1351300E+00
          2   -1    0    0  502    0  0.00000000000E+00  0.00000000000E+00  0.17637362463E+04  0.17637362463E+04  0.00000000000E+00 0. -1.
          1   -1    0    0  501    0 -0.00000000000E+00 -0.00000000000E+00 -0.78039697559E+03  0.78039697559E+03  0.00000000000E+00 0. -1.
         25    2    1    2    0    0  0.49679718021E+02  0.19337138164E+03  0.81204972665E+03  0.84552397256E+03  0.12500185599E+03 0.  0.
          2    1    1    2  501    0 -0.16326869244E+02  0.19359233277E+02 -0.75104540624E+03  0.75147225418E+03  0.00000000000E+00 0. -1.
          1    1    1    2  502    0 -0.33352848777E+02 -0.21273061492E+03  0.92233495035E+03  0.94713699520E+03  0.00000000000E+00 0. -1.
         22    1    3    3    0    0  0.43743388743E+02  0.21138136959E+03  0.76263589624E+03  0.79259641539E+03  0.00000000000E+00 0.  1.
         22    1    3    3    0    0  0.59363292782E+01 -0.18009987952E+02  0.49413830410E+02  0.52927557162E+02  0.00000000000E+00 0.  1.
</event>
<event>
 7    1  0.6140348E-006  0.3436376E+03  0.7818608E-02  0.1167394E+00
          2   -1    0    0  502    0  0.00000000000E+00  0.00000000000E+00  0.13634639576E+04  0.13634639576E+04  0.00000000000E+00 0. -1.
          1   -1    0    0  501    0 -0.00000000000E+00 -0.00000000000E+00 -0.96394542399E+03  0.96394542399E+03  0.00000000000E+00 0. -1.
         25    2    1    2    0    0  0.10861023377E+03  0.26054250743E+03  0.43747912285E+03  0.53543569584E+03  0.12499928157E+03 0.  0.
          2    1    1    2  501    0 -0.20012274498E+03 -0.28501879826E+03 -0.87907264978E+03  0.94554405081E+03  0.00000000000E+00 0. -1.
          1    1    1    2  502    0  0.91512511209E+02  0.24476290839E+02  0.84111206052E+03  0.84642963492E+03  0.00000000000E+00 0. -1.
         22    1    3    3    0    0  0.38401053422E+02  0.18163334751E+03  0.18655720919E+03  0.26318986708E+03  0.00000000000E+00 0. -1.
         22    1    3    3    0    0  0.70209180345E+02  0.78909159916E+02  0.25092191366E+03  0.27224582876E+03  0.00000000000E+00 0. -1.
</event>
<event>
 7    1  0.6140348E-006  0.5004599E+02  0.7818608E-02  0.1463579E+00
          2   -1    0    0  502    0  0.00000000000E+00  0.00000000000E+00  0.78100561539E+03  0.78100561539E+03  0.00000000000E+00 0. -1.
          1   -1    0    0  501    0 -0.00000000000E+00 -0.00000000000E+00 -0.16545944797E+03  0.16545944797E+03  0.00000000000E+00 0. -1.
         25    2    1    2    0    0 -0.10534197522E+02  0.43079927950E+01  0.23509675756E+01  0.12552868752E+03  0.12498958445E+03 0.  0.
          2    1    1    2  501    0  0.41982813841E+02 -0.34665501542E+02 -0.96016729835E+02  0.11037873918E+03  0.00000000000E+00 0. -1.
          1    1    1    2  502    0 -0.31448616319E+02  0.30357508747E+02  0.70921192968E+03  0.71055763665E+03  0.00000000000E+00 0. -1.
         22    1    3    3    0    0 -0.35115409052E+02  0.50559312644E+02 -0.24999208201E+02  0.66440172024E+02  0.00000000000E+00 0.  1.
         22    1    3    3    0    0  0.24581211530E+02 -0.46251319849E+02  0.27350175776E+02  0.59088515492E+02  0.00000000000E+00 0.  1.
</event>
<event>
 7    1  0.6140348E-006  0.1474299E+03  0.7818608E-02  0.1243448E+00
          2   -1    0    0  502    0  0.00000000000E+00  0.00000000000E+00  0.11859031665E+04  0.11859031665E+04  0.00000000000E+00 0. -1.
          1   -1    0    0  501    0 -0.00000000000E+00 -0.00000000000E+00 -0.19653521867E+03  0.19653521867E+03  0.00000000000E+00 0. -1.
         25    2    1    2    0    0 -0.24594501659E+02  0.23367881555E+03  0.22625909505E+03  0.34932623678E+03  0.12499985303E+03 0.  0.
          2    1    1    2  501    0  0.25139086968E+02 -0.94025454374E+02 -0.11116690927E+03  0.14775263612E+03  0.00000000000E+00 0. -1.
          1    1    1    2  502    0 -0.54458530870E+00 -0.13965336118E+03  0.87427576204E+03  0.88535951226E+03  0.00000000000E+00 0. -1.
         22    1    3    3    0    0 -0.56951808721E+01  0.23652522661E+03  0.22987191481E+03  0.32987530239E+03  0.00000000000E+00 0.  1.
         22    1    3    3    0    0 -0.18899320787E+02 -0.28464110515E+01 -0.36128197580E+01  0.19450934391E+02  0.00000000000E+00 0.  1.
</event>
<event>
 7    1  0.6140348E-006  0.7792990E+02  0.7818608E-02  0.1405056E+00
          2   -1    0    0  502    0  0.00000000000E+00  0.00000000000E+00  0.16490352608E+04  0.16490352608E+04  0.00000000000E+00 0. -1.
          1   -1    0    0  501    0 -0.00000000000E+00 -0.00000000000E+00 -0.83333059431E+03  0.83333059431E+03  0.00000000000E+00 0. -1.
         25    2    1    2    0    0  0.23605017719E+02  0.89738996977E+02  0.80050637865E+03  0.81550284290E+03  0.12499656033E+03 0.  0.
          2    1    1    2  501    0 -0.40871561950E+02 -0.15273853046E+02 -0.82351671912E+03  0.82467179037E+03  0.00000000000E+00 0. -1.
          1    1    1    2  502    0  0.17266544231E+02 -0.74465143931E+02  0.83871500694E+03  0.84219122180E+03  0.00000000000E+00 0. -1.
         22    1    3    3    0    0 -0.26377771770E+02  0.82736663124E+02  0.29592455119E+03  0.30840311650E+03  0.00000000000E+00 0. -1.
         22    1    3    3    0    0  0.49982789489E+02  0.70023338531E+01  0.50458182745E+03  0.50709972640E+03  0.00000000000E+00 0. -1.
</event>
<event>
 7    1  0.6140348E-006  0.6033393E+02  0.7818608E-02  0.1434276E+00
          2   -1    0    0  502    0  0.00000000000E+00  0.00000000000E+00  0.10430394796E+04  0.10430394796E+04  0.00000000000E+00 0. -1.
          1   -1    0    0  501    0 -0.00000000000E+00 -0.00000000000E+00 -0.13098325965E+03  0.13098325965E+03  0.00000000000E+00 0. -1.
         25    2    1    2    0    0 -0.98205354155E+02  0.21989058882E+01  0.15934651427E+03  0.22508980205E+03  0.12499992241E+03 0.  0.
          2    1    1    2  501    0  0.41150357336E+02 -0.18233936253E+02 -0.91855917453E+02  0.10229045855E+03  0.00000000000E+00 0. -1.
          1    1    1    2  502    0  0.57054996819E+02  0.16035030364E+02  0.84456562309E+03  0.84664247860E+03  0.00000000000E+00 0. -1.
         22    1    3    3    0    0 -0.69427229123E+02  0.33543579530E+02  0.16503539081E+03  0.18215924926E+03  0.00000000000E+00 0. -1.
         22    1    3    3    0    0 -0.28778125032E+02 -0.31344673642E+02 -0.56888765414E+01  0.42930552784E+02  0.00000000000E+00 0. -1.
</event>
<event>
 7    1  0.6140348E-006  0.1256159E+03  0.7818608E-02  0.1294493E+00
          2   -1    0    0  502    0  0.00000000000E+00  0.00000000000E+00  0.14059263519E+04  0.14059263519E+04  0.00000000000E+00 0. -1.
          1   -1    0    0  501    0 -0.00000000000E+00 -0.00000000000E+00 -0.16508075335E+04  0.16508075335E+04  0.00000000000E+00 0. -1.
         25    2    1    2    0    0  0.11274236023E+03 -0.91288879028E+02  0.12596148694E+03  0.22920679790E+03  0.12499984315E+03 0.  0.
          2    1    1    2  501    0 -0.47684752003E+02  0.11618463399E+03 -0.15957280533E+04  0.16006625894E+04  0.00000000000E+00 0. -1.
          1    1    1    2  502    0 -0.65057608230E+02 -0.24895754965E+02  0.12248853848E+04  0.12268644982E+04  0.00000000000E+00 0. -1.
         22    1    3    3    0    0  0.68725251787E+02 -0.10927135647E+03  0.47669969589E+02  0.13760746919E+03  0.00000000000E+00 0.  1.
         22    1    3    3    0    0  0.44017108446E+02  0.17982477440E+02  0.78291517351E+02  0.91599328709E+02  0.00000000000E+00 0.  1.
</event>
<event>
 7    1  0.6140348E-006  0.3364924E+03  0.7818608E-02  0.1137951E+00
          2   -1    0    0  502    0  0.00000000000E+00  0.00000000000E+00  0.97249274990E+03  0.97249274990E+03  0.00000000000E+00 0. -1.
          1   -1    0    0  501    0 -0.00000000000E+00 -0.00000000000E+00 -0.10285064165E+04  0.10285064165E+04  0.00000000000E+00 0. -1.
         25    2    1    2    0    0 -0.27570047676E+03 -0.16287880558E+03  0.33206788659E+03  0.47794805840E+03  0.12500002813E+03 0.  0.
          2    1    1    2  501    0  0.57597813974E+02 -0.12419457660E+03 -0.89255445813E+03  0.90299239296E+03  0.00000000000E+00 0. -1.
          1    1    1    2  502    0  0.21810266278E+03  0.28707338218E+03  0.50447290494E+03  0.62005871503E+03  0.00000000000E+00 0. -1.
         22    1    3    3    0    0 -0.24898338540E+03 -0.18272114533E+03  0.31241864415E+03  0.43930075390E+03  0.00000000000E+00 0.  1.
         22    1    3    3    0    0 -0.26717091352E+02  0.19842339751E+02  0.19649242441E+02  0.38647304506E+02  0.00000000000E+00 0.  1.
</event>
<event>
 7    1  0.6140348E-006  0.2245995E+03  0.7818608E-02  0.1159707E+00
          2   -1    0    0  502    0  0.00000000000E+00  0.00000000000E+00  0.16801251233E+04  0.16801251233E+04  0.00000000000E+00 0. -1.
          1   -1    0    0  501    0 -0.00000000000E+00 -0.00000000000E+00 -0.55478614596E+03  0.55478614596E+03  0.00000000000E+00 0. -1.
         25    2    1    2    0    0 -0.29872778785E+03  0.74000202539E+02  0.79446792585E+01  0.33227611191E+03  0.12501990005E+03 0.  0.
          2    1    1    2  501    0  0.20806951936E+03  0.55905871342E+02 -0.35850253064E+03  0.41826122916E+03  0.00000000000E+00 0. -1.
          1    1    1    2  502    0  0.90658268490E+02 -0.12990607388E+03  0.14758968287E+04  0.14843739282E+04  0.00000000000E+00 0. -1.
         22    1    3    3    0    0 -0.18572393775E+03  0.82358489423E+02  0.53591188372E+02  0.21011500970E+03  0.00000000000E+00 0.  1.
         22    1    3    3    0    0 -0.11300385011E+03 -0.83582868838E+01 -0.45646509114E+02  0.12216110221E+03  0.00000000000E+00 0.  1.
</event>
<event>
 7    1  0.6140348E-006  0.6818052E+02  0.7818608E-02  0.1435525E+00
          2   -1    0    0  502    0  0.00000000000E+00  0.00000000000E+00  0.16240089742E+04  0.16240089742E+04  0.00000000000E+00 0. -1.
          1   -1    0    0  501    0 -0.00000000000E+00 -0.00000000000E+00 -0.49173265142E+03  0.49173265142E+03  0.00000000000E+00 0. -1.
         25    2    1    2    0    0  0.25913937499E+02  0.78145318874E+02  0.71194259004E+03  0.72750560943E+03  0.12499574878E+03 0.  0.
          2    1    1    2  501    0  0.11967405199E+02 -0.67107638603E+02 -0.48111707666E+03  0.48592210836E+03  0.00000000000E+00 0. -1.
          1    1    1    2  502    0 -0.37881342698E+02 -0.11037680272E+02  0.90145080935E+03  0.90231390778E+03  0.00000000000E+00 0. -1.
         22    1    3    3    0    0 -0.36272238233E+02  0.51462587532E+01  0.75951447007E+02  0.84325450180E+02  0.00000000000E+00 0. -1.
         22    1    3    3    0    0  0.62186175732E+02  0.72999060121E+02  0.63599114304E+03  0.64318015925E+03  0.00000000000E+00 0. -1.
</event>
<event>
 7    1  0.6140348E-006  0.5635759E+02  0.7818608E-02  0.1431970E+00
          2   -1    0    0  502    0  0.00000000000E+00  0.00000000000E+00  0.23285788283E+03  0.23285788283E+03  0.00000000000E+00 0. -1.
          1   -1    0    0  501    0 -0.00000000000E+00 -0.00000000000E+00 -0.23851469133E+04  0.23851469133E+04  0.00000000000E+00 0. -1.
         25    2    1    2    0    0 -0.53041590428E+02  0.40442338383E+02 -0.60677412288E+02  0.15412690943E+03  0.12499745117E+03 0.  0.
          2    1    1    2  501    0  0.46383233740E+02  0.15893072782E+02 -0.22731520543E+04  0.22736807727E+04  0.00000000000E+00 0. -1.
          1    1    1    2  502    0  0.66583566883E+01 -0.56335411165E+02  0.18154043607E+03  0.19019711405E+03  0.00000000000E+00 0. -1.
         22    1    3    3    0    0 -0.18644797195E+02  0.77175618998E+02 -0.66369359110E+02  0.10348234854E+03  0.00000000000E+00 0. -1.
         22    1    3    3    0    0 -0.34396793233E+02 -0.36733280615E+02  0.56919468224E+01  0.50644560893E+02  0.00000000000E+00 0. -1.
</event>
<event>
 7    1  0.7323771E-006  0.6848009E+02  0.7818608E-02  0.1470157E+00
          2   -1    0    0  502    0  0.00000000000E+00  0.00000000000E+00  0.10662521630E+04  0.10662521630E+04  0.00000000000E+00 0. -1.
          1   -1    0    0  501    0 -0.00000000000E+00 -0.00000000000E+00 -0.12336965313E+04  0.12336965313E+04  0.00000000000E+00 0. -1.
         25    2    1    2    0    0 -0.49872225889E+02 -0.22161222177E+02 -0.33406075210E+03  0.36083259856E+03  0.12500087762E+03 0.  0.
          2    1    1    2  501    0  0.46918931374E+02  0.52485234653E+02 -0.88463075028E+03  0.88742754652E+03  0.00000000000E+00 0. -1.
          1    1    1    2  502    0  0.29532945159E+01 -0.30324012476E+02  0.10512471341E+04  0.10516885492E+04  0.00000000000E+00 0. -1.
         22    1    3    3    0    0 -0.85918610572E+02  0.98400049258E+01 -0.24067453889E+03  0.25574023346E+03  0.00000000000E+00 0. -1.
         22    1    3    3    0    0  0.36046384683E+02 -0.32001227103E+02 -0.93386213210E+02  0.10509236510E+03  0.00000000000E+00 0. -1.
</event>
<event>
 7    1  0.6140348E-006  0.3016276E+02  0.7818608E-02  0.1612014E+00
          2   -1    0    0  502    0  0.00000000000E+00  0.00000000000E+00  0.11666607344E+04  0.11666607344E+04  0.00000000000E+00 0. -1.
          1   -1    0    0  501    0 -0.00000000000E+00 -0.00000000000E+00 -0.10761308260E+04  0.10761308260E+04  0.00000000000E+00 0. -1.
         25    2    1    2    0    0 -0.21698990718E+02  0.41599692706E+02  0.64942994571E+03  0.66300975601E+03  0.12498520531E+03 0.  0.
          2    1    1    2  501    0 -0.31813695794E+01 -0.29991607427E+02 -0.10687588541E+04  0.10691843180E+04  0.00000000000E+00 0. -1.
          1    1    1    2  502    0  0.24880360298E+02 -0.11608085279E+02  0.50985881687E+03  0.51059748640E+03  0.00000000000E+00 0. -1.
         22    1    3    3    0    0  0.39201822092E+02 -0.12191884526E+02  0.36183199570E+03  0.36415356378E+03  0.00000000000E+00 0.  1.
         22    1    3    3    0    0 -0.60900812811E+02  0.53791577232E+02  0.28759795001E+03  0.29885619223E+03  0.00000000000E+00 0.  1.
</event>
<event>
 7    1  0.6140348E-006  0.5778449E+02  0.7818608E-02  0.1469817E+00
          2   -1    0    0  502    0  0.00000000000E+00  0.00000000000E+00  0.60130382629E+03  0.60130382629E+03  0.00000000000E+00 0. -1.
          1   -1    0    0  501    0 -0.00000000000E+00 -0.00000000000E+00 -0.10094886167E+03  0.10094886167E+03  0.00000000000E+00 0. -1.
         25    2    1    2    0    0  0.30605689656E+02 -0.74312860149E+02  0.22282202470E+03  0.26783041565E+03  0.12499746971E+03 0.  0.
          2    1    1    2  501    0  0.93769036077E+01  0.34959155066E+02 -0.71909604327E+02  0.80505031139E+02  0.00000000000E+00 0. -1.
          1    1    1    2  502    0 -0.39982593264E+02  0.39353705083E+02  0.34944254424E+03  0.35391724116E+03  0.00000000000E+00 0. -1.
         22    1    3    3    0    0 -0.17945581288E+02 -0.15395329947E+01  0.15781410283E+03  0.15883861339E+03  0.00000000000E+00 0. -1.
         22    1    3    3    0    0  0.48551270944E+02 -0.72773327154E+02  0.65007921872E+02  0.10899180227E+03  0.00000000000E+00 0. -1.
</event>
<event>
 7    1  0.6140348E-006  0.1405719E+03  0.7818608E-02  0.1328714E+00
          2   -1    0    0  502    0  0.00000000000E+00  0.00000000000E+00  0.72236893221E+03  0.72236893221E+03  0.00000000000E+00 0. -1.
          1   -1    0    0  501    0 -0.00000000000E+00 -0.00000000000E+00 -0.94913352516E+03  0.94913352516E+03  0.00000000000E+00 0. -1.
         25    2    1    2    0    0 -0.35988687735E+01 -0.10193652441E+03 -0.33584730572E+02  0.16478237993E+03  0.12498516609E+03 0.  0.
          2    1    1    2  501    0  0.20538756495E+02 -0.40784278721E+02 -0.84146069751E+03  0.84269882127E+03  0.00000000000E+00 0. -1.
          1    1    1    2  502    0 -0.16939887722E+02  0.14272080314E+03  0.64828083514E+03  0.66402125617E+03  0.00000000000E+00 0. -1.
         22    1    3    3    0    0  0.49338199471E+02 -0.91902538607E+02 -0.37293705884E+02  0.11077524556E+03  0.00000000000E+00 0. -1.
         22    1    3    3    0    0 -0.52937068245E+02 -0.10033985807E+02  0.37089753122E+01  0.54007134375E+02  0.00000000000E+00 0. -1.
</event>
<event>
 7    1  0.6140348E-006  0.2950907E+02  0.7818608E-02  0.1630788E+00
          2   -1    0    0  502    0  0.00000000000E+00  0.00000000000E+00  0.14388491806E+03  0.14388491806E+03  0.00000000000E+00 0. -1.
          1   -1    0    0  501    0 -0.00000000000E+00 -0.00000000000E+00 -0.18450528532E+03  0.18450528532E+03  0.00000000000E+00 0. -1.
         25    2    1    2    0    0 -0.12246959078E+02  0.19090408417E+01 -0.18154526297E+02  0.12688525322E+03  0.12496658840E+03 0.  0.
          2    1    1    2  501    0  0.13889644640E+02 -0.26997658892E+02 -0.10808619116E+03  0.11226941050E+03  0.00000000000E+00 0. -1.
          1    1    1    2  502    0 -0.16426855624E+01  0.25088618050E+02  0.85620350199E+02  0.89235539668E+02  0.00000000000E+00 0. -1.
         22    1    3    3    0    0 -0.22298058298E+02 -0.38653397840E+02  0.36804226278E+02  0.57843233316E+02  0.00000000000E+00 0.  1.
         22    1    3    3    0    0  0.10051099220E+02  0.40562438682E+02 -0.54958752575E+02  0.69042019901E+02  0.00000000000E+00 0.  1.
</event>
<event>
 7    1  0.6140348E-006  0.1137726E+03  0.7818608E-02  0.1315760E+00
          2   -1    0    0  502    0  0.00000000000E+00  0.00000000000E+00  0.86156610693E+03  0.86156610693E+03  0.00000000000E+00 0. -1.
          1   -1    0    0  501    0 -0.00000000000E+00 -0.00000000000E+00 -0.78429220432E+03  0.78429220432E+03  0.00000000000E+00 0. -1.
         25    2    1    2    0    0 -0.28530038539E+02 -0.46487719920E+02  0.40232568880E+03  0.42481340667E+03  0.12500159766E+03 0.  0.
          2    1    1    2  501    0  0.83062956201E+02  0.78662627993E+02 -0.76654496895E+03  0.77503448515E+03  0.00000000000E+00 0. -1.
          1    1    1    2  502    0 -0.54532917662E+02 -0.32174908073E+02  0.44149318276E+03  0.44601041944E+03  0.00000000000E+00 0. -1.
         22    1    3    3    0    0 -0.73030407516E+02 -0.31657738449E+02  0.32294710025E+03  0.33261160892E+03  0.00000000000E+00 0. -1.
         22    1    3    3    0    0  0.44500368977E+02 -0.14829981471E+02  0.79378588549E+02  0.92201797756E+02  0.00000000000E+00 0. -1.
</event>
<event>
 7    1  0.6140348E-006  0.6992532E+02  0.7818608E-02  0.1426216E+00
          2   -1    0    0  502    0  0.00000000000E+00  0.00000000000E+00  0.18050031938E+03  0.18050031938E+03  0.00000000000E+00 0. -1.
          1   -1    0    0  501    0 -0.00000000000E+00 -0.00000000000E+00 -0.65770885684E+03  0.65770885684E+03  0.00000000000E+00 0. -1.
         25    2    1    2    0    0 -0.39456113796E+02  0.89904087157E+02 -0.40292026440E+03  0.43313869838E+03  0.12499945106E+03 0.  0.
          2    1    1    2  501    0  0.39802476184E+02 -0.48624204152E+02 -0.23287241211E+03  0.24120139025E+03  0.00000000000E+00 0. -1.
          1    1    1    2  502    0 -0.34636238859E+00 -0.41279883005E+02  0.15858413905E+03  0.16386908759E+03  0.00000000000E+00 0. -1.
         22    1    3    3    0    0 -0.11712514814E+02  0.10691892717E+03 -0.37543980871E+03  0.39054307055E+03  0.00000000000E+00 0. -1.
         22    1    3    3    0    0 -0.27743598982E+02 -0.17014840015E+02 -0.27480455691E+02  0.42595627829E+02  0.00000000000E+00 0. -1.
</event>
<event>
 7    1  0.6140348E-006  0.1031157E+03  0.7818608E-02  0.1386772E+00
          2   -1    0    0  502    0  0.00000000000E+00  0.00000000000E+00  0.44333176552E+03  0.44333176552E+03  0.00000000000E+00 0. -1.
          1   -1    0    0  501    0 -0.00000000000E+00 -0.00000000000E+00 -0.83898659969E+03  0.83898659969E+03  0.00000000000E+00 0. -1.
         25    2    1    2    0    0 -0.80312105366E+02  0.63077783086E+02  0.82404637699E+02  0.18122890304E+03  0.12499819997E+03 0.  0.
          2    1    1    2  501    0  0.52379677517E+02 -0.89055471805E+02 -0.78500901951E+03  0.79177880016E+03  0.00000000000E+00 0. -1.
          1    1    1    2  502    0  0.27932427850E+02  0.25977688718E+02  0.30694954764E+03  0.30931066201E+03  0.00000000000E+00 0. -1.
         22    1    3    3    0    0 -0.30393696856E+02  0.10588999180E+02 -0.32280119840E+02  0.45584096449E+02  0.00000000000E+00 0.  1.
         22    1    3    3    0    0 -0.49918408510E+02  0.52488783907E+02  0.11468475754E+03  0.13564480659E+03  0.00000000000E+00 0.  1.
</event>
<event>
 7    1  0.6140348E-006  0.9273124E+02  0.7818608E-02  0.1362181E+00
          2   -1    0    0  502    0  0.00000000000E+00  0.00000000000E+00  0.37550962213E+03  0.37550962213E+03  0.00000000000E+00 0. -1.
          1   -1    0    0  501    0 -0.00000000000E+00 -0.00000000000E+00 -0.80211907076E+03  0.80211907076E+03  0.00000000000E+00 0. -1.
         25    2    1    2    0    0 -0.46801625210E+02 -0.12347617803E+03 -0.47364704159E+03  0.50734942453E+03  0.12500063959E+03 0.  0.
          2    1    1    2  501    0  0.33418039594E+02  0.73307388500E+02 -0.30447442914E+03  0.31495303869E+03  0.00000000000E+00 0. -1.
          1    1    1    2  502    0  0.13383585616E+02  0.50168789531E+02  0.35151202211E+03  0.35532622967E+03  0.00000000000E+00 0. -1.
         22    1    3    3    0    0 -0.10323796519E+02 -0.10018032502E+03 -0.14908342535E+03  0.17991260659E+03  0.00000000000E+00 0.  1.
         22    1    3    3    0    0 -0.36477828691E+02 -0.23295853008E+02 -0.32456361624E+03  0.32743681794E+03  0.00000000000E+00 0.  1.
</event>
<event>
 7    1  0.6140348E-006  0.4832287E+02  0.7818608E-02  0.1501936E+00
          2   -1    0    0  502    0  0.00000000000E+00  0.00000000000E+00  0.21786643248E+04  0.21786643248E+04  0.00000000000E+00 0. -1.
          1   -1    0    0  501    0 -0.00000000000E+00 -0.00000000000E+00 -0.13920608646E+02  0.13920608646E+02  0.00000000000E+00 0. -1.
         25    2    1    2    0    0  0.24940512165E+02 -0.21665880452E+02  0.14255417641E+04  0.14313932775E+04  0.12500381670E+03 0.  0.
          2    1    1    2  501    0 -0.49222855823E+02 -0.29251364649E+01  0.46978296788E+02  0.68105846502E+02  0.00000000000E+00 0. -1.
          1    1    1    2  502    0  0.24282343658E+02  0.24591016917E+02  0.69222365529E+03  0.69308580945E+03  0.00000000000E+00 0. -1.
         22    1    3    3    0    0  0.19379504027E+02  0.21518226408E+02  0.12565137176E+04  0.12568473741E+04  0.00000000000E+00 0.  1.
         22    1    3    3    0    0  0.55610081384E+01 -0.43184106860E+02  0.16902804647E+03  0.17454590339E+03  0.00000000000E+00 0.  1.
</event>
<event>
 7    1  0.6140348E-006  0.6938277E+02  0.7818608E-02  0.1394776E+00
          2   -1    0    0  502    0  0.00000000000E+00  0.00000000000E+00  0.27100509619E+04  0.27100509619E+04  0.00000000000E+00 0. -1.
          1   -1    0    0  501    0 -0.00000000000E+00 -0.00000000000E+00 -0.50815799549E+03  0.50815799549E+03  0.00000000000E+00 0. -1.
         25    2    1    2    0    0 -0.85904666557E+02 -0.86409186270E+02  0.29862971338E+03  0.34590623718E+03  0.12500103998E+03 0.  0.
          2    1    1    2  501    0  0.45517648444E+02  0.51836401589E+02 -0.48176654812E+03  0.48668046574E+03  0.00000000000E+00 0. -1.
          1    1    1    2  502    0  0.40387018113E+02  0.34572784681E+02  0.23850298011E+04  0.23856222544E+04  0.00000000000E+00 0. -1.
         22    1    3    3    0    0 -0.32017974273E+02 -0.10388185089E+03  0.13858503667E+03  0.17613177456E+03  0.00000000000E+00 0.  1.
         22    1    3    3    0    0 -0.53886692284E+02  0.17472664617E+02  0.16004467672E+03  0.16977446263E+03  0.00000000000E+00 0.  1.
</event>
<event>
 7    1  0.6140348E-006  0.1974379E+03  0.7818608E-02  0.1302804E+00
          2   -1    0    0  502    0  0.00000000000E+00  0.00000000000E+00  0.14275309259E+04  0.14275309259E+04  0.00000000000E+00 0. -1.
          1   -1    0    0  501    0 -0.00000000000E+00 -0.00000000000E+00 -0.41172996508E+03  0.41172996508E+03  0.00000000000E+00 0. -1.
         25    2    1    2    0    0  0.13155178967E+03 -0.18320654296E+03  0.48109820580E+03  0.54585407691E+03  0.12502271357E+03 0.  0.
          2    1    1    2  501    0 -0.91699057315E+02  0.17339142143E+03 -0.35349179362E+03  0.40426445589E+03  0.00000000000E+00 0. -1.
          1    1    1    2  502    0 -0.39852732353E+02  0.98151215261E+01  0.88819454860E+03  0.88914235814E+03  0.00000000000E+00 0. -1.
         22    1    3    3    0    0  0.10330995480E+03 -0.14231835696E+03  0.45887046587E+03  0.49141587880E+03  0.00000000000E+00 0.  1.
         22    1    3    3    0    0  0.28241834872E+02 -0.40888185995E+02  0.22227739927E+02  0.54438198107E+02  0.00000000000E+00 0.  1.
</event>
<event>
 7    1  0.6140348E-006  0.9678929E+02  0.7818608E-02  0.1441809E+00
          2   -1    0    0  502    0  0.00000000000E+00  0.00000000000E+00  0.16703749551E+03  0.16703749551E+03  0.00000000000E+00 0. -1.
          1   -1    0    0  501    0 -0.00000000000E+00 -0.00000000000E+00 -0.12013076999E+04  0.12013076999E+04  0.00000000000E+00 0. -1.
         25    2    1    2    0    0 -0.60123071048E+02 -0.65196392533E+02 -0.68161066912E+02  0.16774335616E+03  0.12500619673E+03 0.  0.
          2    1    1    2  501    0  0.14408718881E+02 -0.22260355347E+02 -0.10623957077E+04  0.10627265755E+04  0.00000000000E+00 0. -1.
          1    1    1    2  502    0  0.45714352167E+02  0.87456747880E+02  0.96286570220E+02  0.13787526373E+03  0.00000000000E+00 0. -1.
         22    1    3    3    0    0 -0.59640419446E+02 -0.60869093300E+02 -0.10240446462E+03  0.13322424902E+03  0.00000000000E+00 0. -1.
         22    1    3    3    0    0 -0.48265160201E+00 -0.43272992326E+01  0.34243397711E+02  0.34519107144E+02  0.00000000000E+00 0. -1.
</event>
<event>
 7    1  0.6140348E-006  0.4756394E+02  0.7818608E-02  0.1553416E+00
          2   -1    0    0  502    0  0.00000000000E+00  0.00000000000E+00  0.39809289114E+03  0.39809289114E+03  0.00000000000E+00 0. -1.
          1   -1    0    0  501    0 -0.00000000000E+00 -0.00000000000E+00 -0.25715203439E+03  0.25715203439E+03  0.00000000000E+00 0. -1.
         25    2    1    2    0    0  0.10530864312E+02 -0.32880010882E+02  0.10387578170E+03  0.16615354897E+03  0.12499931837E+03 0.  0.
          2    1    1    2  501    0 -0.19952713461E+02 -0.15015384037E+02 -0.22304609802E+03  0.22443960073E+03  0.00000000000E+00 0. -1.
          1    1    1    2  502    0  0.94218491494E+01  0.47895394919E+02  0.26011117307E+03  0.26465177583E+03  0.00000000000E+00 0. -1.
         22    1    3    3    0    0  0.66913764407E+02 -0.20310861914E+02  0.42320128404E+02  0.81737239046E+02  0.00000000000E+00 0.  1.
         22    1    3    3    0    0 -0.56382900095E+02 -0.12569148969E+02  0.61555653297E+02  0.84416309927E+02  0.00000000000E+00 0.  1.
</event>
<event>
 7    1  0.6140348E-006  0.7770335E+02  0.7818608E-02  0.1388982E+00
          2   -1    0    0  502    0  0.00000000000E+00  0.00000000000E+00  0.19144828220E+03  0.19144828220E+03  0.00000000000E+00 0. -1.
          1   -1    0    0  501    0 -0.00000000000E+00 -0.00000000000E+00 -0.81204590889E+03  0.81204590889E+03  0.00000000000E+00 0. -1.
         25    2    1    2    0    0  0.26580003800E+02  0.31255173535E+02  0.19533765429E+02  0.13300578455E+03  0.12500235301E+03 0.  0.
          2    1    1    2  501    0 -0.10218270136E+02 -0.78213162413E+02 -0.74776989740E+03  0.75191856692E+03  0.00000000000E+00 0. -1.
          1    1    1    2  502    0 -0.16361733664E+02  0.46957988879E+02  0.10763850528E+03  0.11856983962E+03  0.00000000000E+00 0. -1.
         22    1    3    3    0    0  0.68304810786E+02 -0.83236060086E+01 -0.79461251403E+01  0.69267384087E+02  0.00000000000E+00 0. -1.
         22    1    3    3    0    0 -0.41724806986E+02  0.39578779543E+02  0.27479890569E+02  0.63738400465E+02  0.00000000000E+00 0. -1.
</event>
<event>
 7    1  0.6140348E-006  0.8106147E+02  0.7818608E-02  0.1347979E+00
          2   -1    0    0  502    0  0.00000000000E+00  0.00000000000E+00  0.84419811525E+03  0.84419811525E+03  0.00000000000E+00 0. -1.
          1   -1    0    0  501    0 -0.00000000000E+00 -0.00000000000E+00 -0.35162100884E+03  0.35162100884E+03  0.00000000000E+00 0. -1.
         25    2    1    2    0    0 -0.12275273496E+02 -0.14421599306E+02 -0.90242760235E+02  0.15532851634E+03  0.12499810938E+03 0.  0.
          2    1    1    2  501    0  0.10519784009E+01 -0.66978990105E+02 -0.22179535460E+03  0.23169046397E+03  0.00000000000E+00 0. -1.
          1    1    1    2  502    0  0.11223295096E+02  0.81400589411E+02  0.80461522124E+03  0.80880014377E+03  0.00000000000E+00 0. -1.
         22    1    3    3    0    0 -0.63960206277E+02  0.15591524863E+02 -0.56116238633E+02  0.86504542499E+02  0.00000000000E+00 0.  1.
         22    1    3    3    0    0  0.51684932781E+02 -0.30013124168E+02 -0.34126521602E+02  0.68823973843E+02  0.00000000000E+00 0.  1.
</event>
<event>
 7    1  0.6140348E-006  0.5753464E+02  0.7818608E-02  0.1455349E+00
          2   -1    0    0  502    0  0.00000000000E+00  0.00000000000E+00  0.13279731191E+04  0.13279731191E+04  0.00000000000E+00 0. -1.
          1   -1    0    0  501    0 -0.00000000000E+00 -0.00000000000E+00 -0.89043631432E+02  0.89043631432E+02  0.00000000000E+00 0. -1.
         25    2    1    2    0    0 -0.11386509384E+02 -0.23864902122E+02  0.88073300704E+02  0.15518894303E+03  0.12501006197E+03 0.  0.
          2    1    1    2  501    0 -0.58000961146E+00  0.62415398356E+02 -0.37479924137E+02  0.72806339535E+02  0.00000000000E+00 0. -1.
          1    1    1    2  502    0  0.11966518995E+02 -0.38550496235E+02  0.11883361111E+04  0.11890214680E+04  0.00000000000E+00 0. -1.
         22    1    3    3    0    0 -0.23784683953E+02  0.20552449541E+02 -0.20295064093E+02  0.37416627312E+02  0.00000000000E+00 0.  1.
         22    1    3    3    0    0  0.12398174569E+02 -0.44417351663E+02  0.10836836480E+03  0.11777231572E+03  0.00000000000E+00 0.  1.
</event>
<event>
 7    1  0.6140348E-006  0.1734308E+03  0.7818608E-02  0.1233674E+00
          2   -1    0    0  502    0  0.00000000000E+00  0.00000000000E+00  0.17131111675E+03  0.17131111675E+03  0.00000000000E+00 0. -1.
          1   -1    0    0  501    0 -0.00000000000E+00 -0.00000000000E+00 -0.10203325621E+04  0.10203325621E+04  0.00000000000E+00 0. -1.
         25    2    1    2    0    0 -0.12766761442E+03 -0.80490222114E+02 -0.45646920671E+03  0.49675628368E+03  0.12499989230E+03 0.  0.
          2    1    1    2  501    0  0.20142819782E+03  0.26529532459E+02 -0.50830555170E+03  0.54740448377E+03  0.00000000000E+00 0. -1.
          1    1    1    2  502    0 -0.73760583399E+02  0.53960689655E+02  0.11575331301E+03  0.14748291143E+03  0.00000000000E+00 0. -1.
         22    1    3    3    0    0 -0.99205001748E+02 -0.68066645200E+02 -0.44896640637E+03  0.46480698641E+03  0.00000000000E+00 0. -1.
         22    1    3    3    0    0 -0.28462612672E+02 -0.12423576914E+02 -0.75028003345E+01  0.31949297274E+02  0.00000000000E+00 0. -1.
</event>
<event>
 7    1  0.6140348E-006  0.9990294E+02  0.7818608E-02  0.1366156E+00
          2   -1    0    0  502    0  0.00000000000E+00  0.00000000000E+00  0.16066327891E+04  0.16066327891E+04  0.00000000000E+00 0. -1.
          1   -1    0    0  501    0 -0.00000000000E+00 -0.00000000000E+00 -0.13018495854E+03  0.13018495854E+03  0.00000000000E+00 0. -1.
         25    2    1    2    0    0  0.12854136832E+03  0.20728206986E+02  0.36052255503E+03  0.40317998724E+03  0.12500018995E+03 0.  0.
          2    1    1    2  501    0 -0.31858732587E+02 -0.34039156463E+02 -0.10182080719E+03  0.11198714119E+03  0.00000000000E+00 0. -1.
          1    1    1    2  502    0 -0.96682635731E+02  0.13310949477E+02  0.12177460828E+04  0.12216506192E+04  0.00000000000E+00 0. -1.
         22    1    3    3    0    0  0.10889492748E+03 -0.18778054205E+02  0.14035221056E+03  0.17863220191E+03  0.00000000000E+00 0. -1.
         22    1    3    3    0    0  0.19646440842E+02  0.39506261191E+02  0.22017034447E+03  0.22454778533E+03  0.00000000000E+00 0. -1.
</event>
<event>
 7    1  0.6140348E-006  0.1247343E+03  0.7818608E-02  0.1326419E+00
          2   -1    0    0  502    0  0.00000000000E+00  0.00000000000E+00  0.11062890724E+04  0.11062890724E+04  0.00000000000E+00 0. -1.
          1   -1    0    0  501    0 -0.00000000000E+00 -0.00000000000E+00 -0.27629949727E+03  0.27629949727E+03  0.00000000000E+00 0. -1.
         25    2    1    2    0    0 -0.48786919803E+02  0.11971104810E+03  0.84124412390E+03  0.86024871772E+03  0.12500112700E+03 0.  0.
          2    1    1    2  501    0  0.89719294466E+02 -0.86810902646E+02 -0.24917083573E+03  0.27869659129E+03  0.00000000000E+00 0. -1.
          1    1    1    2  502    0 -0.40932374663E+02 -0.32900145458E+02  0.23791628693E+03  0.24364326064E+03  0.00000000000E+00 0. -1.
         22    1    3    3    0    0 -0.69119268421E+02  0.94826807360E+02  0.79685632255E+03  0.80544993354E+03  0.00000000000E+00 0.  1.
         22    1    3    3    0    0  0.20332348618E+02  0.24884240744E+02  0.44387801356E+02  0.54798784174E+02  0.00000000000E+00 0.  1.
</event>
<event>
 7    1  0.6140348E-006  0.1005882E+03  0.7818608E-02  0.1328038E+00
          2   -1    0    0  502    0  0.00000000000E+00  0.00000000000E+00  0.41398252322E+03  0.41398252322E+03  0.00000000000E+00 0. -1.
          1   -1    0    0  501    0 -0.00000000000E+00 -0.00000000000E+00 -0.48751619894E+03  0.48751619894E+03  0.00000000000E+00 0. -1.
         25    2    1    2    0    0  0.13287854332E+03  0.48707185952E+01  0.54409521934E+02  0.19044150213E+03  0.12500855364E+03 0.  0.
          2    1    1    2  501    0 -0.89998836900E+02  0.42905304104E+02 -0.40991697055E+03  0.42186796336E+03  0.00000000000E+00 0. -1.
          1    1    1    2  502    0 -0.42879706420E+02 -0.47776022699E+02  0.28197377290E+03  0.28918925667E+03  0.00000000000E+00 0. -1.
         22    1    3    3    0    0  0.65931177733E+02 -0.42962291043E+01  0.91884784953E+02  0.11317328080E+03  0.00000000000E+00 0. -1.
         22    1    3    3    0    0  0.66947365586E+02  0.91669476995E+01 -0.37475263019E+02  0.77268221329E+02  0.00000000000E+00 0. -1.
</event>
<event>
 7    1  0.6140348E-006  0.2310775E+03  0.7818608E-02  0.1305076E+00
          2   -1    0    0  502    0  0.00000000000E+00  0.00000000000E+00  0.21052649676E+04  0.21052649676E+04  0.00000000000E+00 0. -1.
          1   -1    0    0  501    0 -0.00000000000E+00 -0.00000000000E+00 -0.10547734345E+03  0.10547734345E+03  0.00000000000E+00 0. -1.
         25    2    1    2    0    0 -0.18417657969E+03  0.79079585041E+02  0.12222008355E+04  0.12448185799E+04  0.12499528521E+03 0.  0.
          2    1    1    2  501    0  0.21650432737E+03 -0.90680655725E+02  0.53145826627E+02  0.24066903411E+03  0.00000000000E+00 0. -1.
          1    1    1    2  502    0 -0.32327747682E+02  0.11601070684E+02  0.72444096207E+03  0.72525469708E+03  0.00000000000E+00 0. -1.
         22    1    3    3    0    0 -0.10967977651E+03  0.85301601789E+02  0.50611854148E+03  0.52484473387E+03  0.00000000000E+00 0.  1.
         22    1    3    3    0    0 -0.74496803178E+02 -0.62220167482E+01  0.71608229400E+03  0.71997384602E+03  0.00000000000E+00 0.  1.
</event>
<event>
 7    1  0.6140348E-006  0.9994001E+02  0.7818608E-02  0.1416338E+00
          2   -1    0    0  502    0  0.00000000000E+00  0.00000000000E+00  0.54511044505E+03  0.54511044505E+03  0.00000000000E+00 0. -1.
          1   -1    0    0  501    0 -0.00000000000E+00 -0.00000000000E+00 -0.42748903678E+03  0.42748903678E+03  0.00000000000E+00 0. -1.
         25    2    1    2    0    0 -0.12350287740E+03  0.38700719211E+02 -0.24361568428E+02  0.18157338845E+03  0.12499881193E+03 0.  0.
          2    1    1    2  501    0  0.30486355529E+02 -0.64375857663E+01 -0.31855850344E+03  0.32007870985E+03  0.00000000000E+00 0. -1.
          1    1    1    2  502    0  0.93016521875E+02 -0.32263133445E+02  0.46054148014E+03  0.47094738353E+03  0.00000000000E+00 0. -1.
         22    1    3    3    0    0 -0.10826667698E+03  0.25821651582E+02  0.36808804601E+02  0.11723190321E+03  0.00000000000E+00 0.  1.
         22    1    3    3    0    0 -0.15236200423E+02  0.12879067629E+02 -0.61170373029E+02  0.64341485240E+02  0.00000000000E+00 0.  1.
</event>
<event>
 7    1  0.6140348E-006  0.4953034E+02  0.7818608E-02  0.1451572E+00
          2   -1    0    0  502    0  0.00000000000E+00  0.00000000000E+00  0.34938707034E+03  0.34938707034E+03  0.00000000000E+00 0. -1.
          1   -1    0    0  501    0 -0.00000000000E+00 -0.00000000000E+00 -0.32925187114E+03  0.32925187114E+03  0.00000000000E+00 0. -1.
         25    2    1    2    0    0  0.88784092582E+01 -0.70345444827E+01  0.28647275757E+02  0.12873975699E+03  0.12499979062E+03 0.  0.
          2    1    1    2  501    0  0.37147250221E+02  0.30721027119E+02 -0.27461232243E+03  0.27881109615E+03  0.00000000000E+00 0. -1.
          1    1    1    2  502    0 -0.46025659480E+02 -0.23686482637E+02  0.26610024587E+03  0.27108808834E+03  0.00000000000E+00 0. -1.
         22    1    3    3    0    0 -0.29539003046E+02 -0.36065990220E+02 -0.28008256272E+02  0.54385391153E+02  0.00000000000E+00 0. -1.
         22    1    3    3    0    0  0.38417412304E+02  0.29031445737E+02  0.56655532029E+02  0.74354365838E+02  0.00000000000E+00 0. -1.
</event>
<event>
 7    1  0.6287468E-006  0.3961172E+02  0.7818608E-02  0.1525956E+00
          2   -1    0    0  502    0  0.00000000000E+00  0.00000000000E+00  0.53707612482E+03  0.53707612482E+03  0.00000000000E+00 0. -1.
          1   -1    0    0  501    0 -0.00000000000E+00 -0.00000000000E+00 -0.14274671762E+04  0.14274671762E+04  0.00000000000E+00 0. -1.
         25    2    1    2    0    0 -0.12209594378E+02 -0.48244244603E+02 -0.73162287490E+03  0.74389092816E+03  0.12500040232E+03 0.  0.
          2    1    1    2  501    0  0.34476905540E+02  0.20140568478E+02 -0.68852585637E+03  0.68968264761E+03  0.00000000000E+00 0. -1.
          1    1    1    2  502    0 -0.22267311162E+02  0.28103676125E+02  0.52975767988E+03  0.53096972527E+03  0.00000000000E+00 0. -1.
         22    1    3    3    0    0 -0.39244857872E+02 -0.66290695446E+02 -0.66817534359E+03  0.67260159453E+03  0.00000000000E+00 0. -1.
         22    1    3    3    0    0  0.27035263494E+02  0.18046450843E+02 -0.63447531310E+02  0.71289333631E+02  0.00000000000E+00 0. -1.
</event>
<event>
 7    1  0.6140348E-006  0.9444255E+02  0.7818608E-02  0.1400678E+00
          2   -1    0    0  502    0  0.00000000000E+00  0.00000000000E+00  0.31100436774E+03  0.31100436774E+03  0.00000000000E+00 0. -1.
          1   -1    0    0  501    0 -0.00000000000E+00 -0.00000000000E+00 -0.37691156756E+03  0.37691156756E+03  0.00000000000E+00 0. -1.
         25    2    1    2    0    0 -0.62121942010E+02  0.31482997362E+02 -0.41558290136E+02  0.14899958313E+03  0.12499387781E+03 0.  0.
          2    1    1    2  501    0  0.97095406226E+02 -0.18608285799E+02 -0.27151645338E+03  0.28895496305E+03  0.00000000000E+00 0. -1.
          1    1    1    2  502    0 -0.34973464216E+02 -0.12874711563E+02  0.24716754370E+03  0.24996138913E+03  0.00000000000E+00 0. -1.
         22    1    3    3    0    0 -0.64838935365E+02  0.10588850995E+02  0.31574965573E+02  0.72891630216E+02  0.00000000000E+00 0.  1.
         22    1    3    3    0    0  0.27169933545E+01  0.20894146368E+02 -0.73133255709E+02  0.76107952909E+02  0.00000000000E+00 0.  1.
</event>
<event>
 7    1  0.6140348E-006  0.4637133E+02  0.7818608E-02  0.1481463E+00
          2   -1    0    0  502    0  0.00000000000E+00  0.00000000000E+00  0.16129530542E+04  0.16129530542E+04  0.00000000000E+00 0. -1.
          1   -1    0    0  501    0 -0.00000000000E+00 -0.00000000000E+00 -0.11511625029E+03  0.11511625029E+03  0.00000000000E+00 0. -1.
         25    2    1    2    0    0  0.13195631510E+02  0.64130583978E+02  0.94506131018E+02  0.16983217782E+03  0.12499881332E+03 0.  0.
          2    1    1    2  501    0 -0.35654643008E+02 -0.29208174707E+02 -0.70277874616E+02  0.84043742768E+02  0.00000000000E+00 0. -1.
          1    1    1    2  502    0  0.22459011498E+02 -0.34922409270E+02  0.14736085475E+04  0.14741933839E+04  0.00000000000E+00 0. -1.
         22    1    3    3    0    0  0.47019480731E+01  0.72723453418E+02 -0.16755829068E+01  0.72894557896E+02  0.00000000000E+00 0. -1.
         22    1    3    3    0    0  0.84936834367E+01 -0.85928694406E+01  0.96181713925E+02  0.96937619927E+02  0.00000000000E+00 0. -1.
</event>
<event>
 7    1  0.6140348E-006  0.6344725E+02  0.7818608E-02  0.1426231E+00
          2   -1    0    0  502    0  0.00000000000E+00  0.00000000000E+00  0.63415672209E+03  0.63415672209E+03  0.00000000000E+00 0. -1.
          1   -1    0    0  501    0 -0.00000000000E+00 -0.00000000000E+00 -0.10614689260E+04  0.10614689260E+04  0.00000000000E+00 0. -1.
         25    2    1    2    0    0 -0.23162912031E+02 -0.33300282081E+02  0.24855149671E+03  0.28115552616E+03  0.12500061637E+03 0.  0.
          2    1    1    2  501    0  0.27509755407E+02 -0.36230261896E+02 -0.10413804215E+04  0.10423735419E+04  0.00000000000E+00 0. -1.
          1    1    1    2  502    0 -0.43468433764E+01  0.69530543976E+02  0.36551672092E+03  0.37209658002E+03  0.00000000000E+00 0. -1.
         22    1    3    3    0    0 -0.65086496857E+02  0.66911086211E+01  0.17928973393E+03  0.19085552572E+03  0.00000000000E+00 0. -1.
         22    1    3    3    0    0  0.41923584827E+02 -0.39991390702E+02  0.69261762784E+02  0.90300000437E+02  0.00000000000E+00 0. -1.
</event>
<event>
 7    1  0.6140348E-006  0.5355580E+02  0.7818608E-02  0.1449370E+00
          2   -1    0    0  502    0  0.00000000000E+00  0.00000000000E+00  0.17826970270E+03  0.17826970270E+03  0.00000000000E+00 0. -1.
          1   -1    0    0  501    0 -0.00000000000E+00 -0.00000000000E+00 -0.15252609101E+04  0.15252609101E+04  0.00000000000E+00 0. -1.
         25    2    1    2    0    0 -0.12481835766E+02 -0.94230370110E+02 -0.56990461112E+03  0.59114405213E+03  0.12499946287E+03 0.  0.
          2    1    1    2  501    0 -0.82708941311E+00  0.50918710984E+02 -0.94097395886E+03  0.94235099112E+03  0.00000000000E+00 0. -1.
          1    1    1    2  502    0  0.13308925179E+02  0.43311659126E+02  0.16388736258E+03  0.17003556957E+03  0.00000000000E+00 0. -1.
         22    1    3    3    0    0 -0.60532396542E+02 -0.17510380349E+02 -0.17508364958E+03  0.18607812553E+03  0.00000000000E+00 0.  1.
         22    1    3    3    0    0  0.48050560776E+02 -0.76719989761E+02 -0.39482096154E+03  0.40506592660E+03  0.00000000000E+00 0.  1.
</event>
<event>
 7    1  0.6140348E-006  0.1269828E+03  0.7818608E-02  0.1293414E+00
          2   -1    0    0  502    0  0.00000000000E+00  0.00000000000E+00  0.73464348439E+03  0.73464348439E+03  0.00000000000E+00 0. -1.
          1   -1    0    0  501    0 -0.00000000000E+00 -0.00000000000E+00 -0.65551036693E+02  0.65551036693E+02  0.00000000000E+00 0. -1.
         25    2    1    2    0    0  0.64173122758E+02 -0.74479557527E+02  0.25811745089E+03  0.30317321990E+03  0.12499595448E+03 0.  0.
          2    1    1    2  501    0 -0.13176174029E+03  0.57850882091E+02  0.92588844934E+02  0.17111567716E+03  0.00000000000E+00 0. -1.
          1    1    1    2  502    0  0.67588617531E+02  0.16628675437E+02  0.31838615187E+03  0.32590562402E+03  0.00000000000E+00 0. -1.
         22    1    3    3    0    0  0.28216050883E+02  0.61464947400E+01  0.18862451620E+03  0.19082225509E+03  0.00000000000E+00 0.  1.
         22    1    3    3    0    0  0.35957071875E+02 -0.80626052267E+02  0.69492934684E+02  0.11235096481E+03  0.00000000000E+00 0.  1.
</event>
<event>
 7    1  0.6140348E-006  0.9919283E+02  0.7818608E-02  0.1398295E+00
          2   -1    0    0  502    0  0.00000000000E+00  0.00000000000E+00  0.92961032856E+03  0.92961032856E+03  0.00000000000E+00 0. -1.
          1   -1    0    0  501    0 -0.00000000000E+00 -0.00000000000E+00 -0.13647861370E+03  0.13647861370E+03  0.00000000000E+00 0. -1.
         25    2    1    2    0    0  0.47184691610E+02 -0.72338341580E+02  0.65276221217E+03  0.67021111563E+03  0.12500081234E+03 0.  0.
          2    1    1    2  501    0  0.36140714328E+01 -0.35978711073E+02 -0.11140387461E+03  0.11712537062E+03  0.00000000000E+00 0. -1.
          1    1    1    2  502    0 -0.50798763043E+02  0.10831705265E+03  0.25177337730E+03  0.27875245602E+03  0.00000000000E+00 0. -1.
         22    1    3    3    0    0 -0.31649834109E+02  0.14303616696E+02  0.14125993208E+03  0.14546708858E+03  0.00000000000E+00 0. -1.
         22    1    3    3    0    0  0.78834525719E+02 -0.86641958275E+02  0.51150228009E+03  0.52474402704E+03  0.00000000000E+00 0. -1.
</event>
<event>
 7    1  0.6140348E-006  0.2920370E+02  0.7818608E-02  0.1620366E+00
          2   -1    0    0  502    0  0.00000000000E+00  0.00000000000E+00  0.75685821096E+02  0.75685821096E+02  0.00000000000E+00 0. -1.
          1   -1    0    0  501    0 -0.00000000000E+00 -0.00000000000E+00 -0.37191620564E+03  0.37191620564E+03  0.00000000000E+00 0. -1.
         25    2    1    2    0    0 -0.33356448301E+01  0.20997058059E+02 -0.68445040608E+02  0.14409161229E+03  0.12500266467E+03 0.  0.
          2    1    1    2  501    0 -0.23496955296E+02 -0.18042389649E+02 -0.25988537284E+03  0.26156842652E+03  0.00000000000E+00 0. -1.
          1    1    1    2  502    0  0.26832600126E+02 -0.29546684099E+01  0.32100028910E+02  0.41941987923E+02  0.00000000000E+00 0. -1.
         22    1    3    3    0    0 -0.58109366954E+02  0.37263102722E+02 -0.30280160530E+02  0.75379874463E+02  0.00000000000E+00 0.  1.
         22    1    3    3    0    0  0.54773722124E+02 -0.16266044664E+02 -0.38164880078E+02  0.68711737831E+02  0.00000000000E+00 0.  1.
</event>
<event>
 7    1  0.6140348E-006  0.9149402E+02  0.7818608E-02  0.1400565E+00
          2   -1    0    0  502    0  0.00000000000E+00  0.00000000000E+00  0.11033861494E+04  0.11033861494E+04  0.00000000000E+00 0. -1.
          1   -1    0    0  501    0 -0.00000000000E+00 -0.00000000000E+00 -0.25187503111E+02  0.25187503111E+02  0.00000000000E+00 0. -1.
         25    2    1    2    0    0  0.29196044049E+01  0.10923094210E+02  0.26767749289E+03  0.29564938721E+03  0.12501792622E+03 0.  0.
          2    1    1    2  501    0  0.69904163725E+02 -0.66311309382E+02  0.50023112410E+03  0.50942610787E+03  0.00000000000E+00 0. -1.
          1    1    1    2  502    0 -0.72823768130E+02  0.55388215172E+02  0.31029002929E+03  0.32349815743E+03  0.00000000000E+00 0. -1.
         22    1    3    3    0    0 -0.11832726592E+02  0.15489015338E+02 -0.68707851909E+01  0.20667140680E+02  0.00000000000E+00 0. -1.
         22    1    3    3    0    0  0.14752330997E+02 -0.45659211287E+01  0.27454827808E+03  0.27498224653E+03  0.00000000000E+00 0. -1.
</event>
<event>
 7    1  0.6140348E-006  0.2727202E+02  0.7818608E-02  0.1669398E+00
          2   -1    0    0  502    0  0.00000000000E+00  0.00000000000E+00  0.51683253993E+03  0.51683253993E+03  0.00000000000E+00 0. -1.
          1   -1    0    0  501    0 -0.00000000000E+00 -0.00000000000E+00 -0.90092511729E+03  0.90092511729E+03  0.00000000000E+00 0. -1.
         25    2    1    2    0    0 -0.31443911856E+02 -0.23500357815E+02  0.17395433145E+03  0.21777555158E+03  0.12500038011E+03 0.  0.
          2    1    1    2  501    0  0.21798071918E+02 -0.18387538612E+01 -0.87830549945E+03  0.87857787778E+03  0.00000000000E+00 0. -1.
          1    1    1    2  502    0  0.96458399386E+01  0.25339111676E+02  0.32025859065E+03  0.32140422787E+03  0.00000000000E+00 0. -1.
         22    1    3    3    0    0  0.14354266169E+02 -0.64520573782E+02  0.65193288185E+02  0.92839184738E+02  0.00000000000E+00 0. -1.
         22    1    3    3    0    0 -0.45798178025E+02  0.41020215967E+02  0.10876104326E+03  0.12493636684E+03  0.00000000000E+00 0. -1.
</event>
<event>
 7    1  0.6140348E-006  0.4325549E+02  0.7818608E-02  0.1496463E+00
          2   -1    0    0  502    0  0.00000000000E+00  0.00000000000E+00  0.36388658457E+03  0.36388658457E+03  0.00000000000E+00 0. -1.
          1   -1    0    0  501    0 -0.00000000000E+00 -0.00000000000E+00 -0.12541605631E+03  0.12541605631E+03  0.00000000000E+00 0. -1.
         25    2    1    2    0    0 -0.67200565899E-01  0.11570366593E+02 -0.18932429215E+02  0.12695329188E+03  0.12499929417E+03 0.  0.
          2    1    1    2  501    0  0.17240745291E+02 -0.47794724623E+02 -0.38496818723E+02  0.63746247355E+02  0.00000000000E+00 0. -1.
          1    1    1    2  502    0 -0.17173544725E+02  0.36224358030E+02  0.29589977620E+03  0.29860310164E+03  0.00000000000E+00 0. -1.
         22    1    3    3    0    0  0.52435207502E+02 -0.68459989337E+01 -0.41188417950E+02  0.67028385483E+02  0.00000000000E+00 0. -1.
         22    1    3    3    0    0 -0.52502408068E+02  0.18416365527E+02  0.22255988734E+02  0.59924906397E+02  0.00000000000E+00 0. -1.
</event>
<event>
 7    1  0.6140348E-006  0.8480397E+02  0.7818608E-02  0.1386928E+00
          2   -1    0    0  502    0  0.00000000000E+00  0.00000000000E+00  0.43329324707E+04  0.43329324707E+04  0.00000000000E+00 0. -1.
          1   -1    0    0  501    0 -0.00000000000E+00 -0.00000000000E+00 -0.71138408728E+03  0.71138408728E+03  0.00000000000E+00 0. -1.
         25    2    1    2    0    0 -0.31414823858E+01 -0.40602523456E+02  0.12857253642E+04  0.12924293404E+04  0.12500181617E+03 0.  0.
          2    1    1    2  501    0 -0.13593673074E+02  0.83797853163E+02 -0.70531038614E+03  0.71040101980E+03  0.00000000000E+00 0. -1.
          1    1    1    2  502    0  0.16735155460E+02 -0.43195329707E+02  0.30411334053E+04  0.30414861977E+04  0.00000000000E+00 0. -1.
         22    1    3    3    0    0  0.26706095987E+02 -0.35457150637E+02  0.15325764190E+03  0.15955666672E+03  0.00000000000E+00 0.  1.
         22    1    3    3    0    0 -0.29847578373E+02 -0.51453728184E+01  0.11324677223E+04  0.11328726737E+04  0.00000000000E+00 0.  1.
</event>
<event>
 7    1  0.6140348E-006  0.1109608E+03  0.7818608E-02  0.1283858E+00
          2   -1    0    0  502    0  0.00000000000E+00  0.00000000000E+00  0.99100378239E+03  0.99100378239E+03  0.00000000000E+00 0. -1.
          1   -1    0    0  501    0 -0.00000000000E+00 -0.00000000000E+00 -0.12498978665E+03  0.12498978665E+03  0.00000000000E+00 0. -1.
         25    2    1    2    0    0  0.78712646479E+02 -0.28139584873E+02  0.44941393217E+03  0.47390322386E+03  0.12499546471E+03 0.  0.
          2    1    1    2  501    0 -0.99705272741E+02 -0.56422018592E+02 -0.78825741187E+02  0.13906143631E+03  0.00000000000E+00 0. -1.
          1    1    1    2  502    0  0.20992626262E+02  0.84561603464E+02  0.49542580476E+03  0.50302890887E+03  0.00000000000E+00 0. -1.
         22    1    3    3    0    0 -0.24754932737E+02  0.22003681548E+02  0.69806345112E+02  0.77265092470E+02  0.00000000000E+00 0.  1.
         22    1    3    3    0    0  0.10346757922E+03 -0.50143266421E+02  0.37960758706E+03  0.39663813139E+03  0.00000000000E+00 0.  1.
</event>
<event>
 7    1  0.6140348E-006  0.1351076E+03  0.7818608E-02  0.1320414E+00
          2   -1    0    0  502    0  0.00000000000E+00  0.00000000000E+00  0.22427632537E+03  0.22427632537E+03  0.00000000000E+00 0. -1.
          1   -1    0    0  501    0 -0.00000000000E+00 -0.00000000000E+00 -0.11770819343E+04  0.11770819343E+04  0.00000000000E+00 0. -1.
         25    2    1    2    0    0  0.47914242148E+02 -0.11958187073E+03 -0.18600252067E+03  0.25849241791E+03  0.12500317601E+03 0.  0.
          2    1    1    2  501    0 -0.48168067174E+02 -0.17182059033E+02 -0.92916918919E+03  0.93057550364E+03  0.00000000000E+00 0. -1.
          1    1    1    2  502    0  0.25382502585E+00  0.13676392977E+03  0.16236610095E+03  0.21229033810E+03  0.00000000000E+00 0. -1.
         22    1    3    3    0    0  0.83545106560E+02 -0.87524455456E+02 -0.88703028176E+02  0.15002847177E+03  0.00000000000E+00 0.  1.
         22    1    3    3    0    0 -0.35630864411E+02 -0.32057415278E+02 -0.97299492496E+02  0.10846394614E+03  0.00000000000E+00 0.  1.
</event>
<event>
 7    1  0.6140348E-006  0.3356919E+02  0.7818608E-02  0.1601543E+00
          2   -1    0    0  502    0  0.00000000000E+00  0.00000000000E+00  0.33156248178E+03  0.33156248178E+03  0.00000000000E+00 0. -1.
          1   -1    0    0  501    0 -0.00000000000E+00 -0.00000000000E+00 -0.77019941706E+03  0.77019941706E+03  0.00000000000E+00 0. -1.
         25    2    1    2    0    0 -0.20058147667E+02  0.34900583193E+02 -0.48081721219E+03  0.49842815437E+03  0.12500021415E+03 0.  0.
          2    1    1    2  501    0  0.26190582619E+02 -0.18910099006E+01 -0.27908562954E+03  0.28031823193E+03  0.00000000000E+00 0. -1.
          1    1    1    2  502    0 -0.61324349525E+01 -0.33009573293E+02  0.32126590645E+03  0.32301551253E+03  0.00000000000E+00 0. -1.
         22    1    3    3    0    0 -0.48409259593E+02 -0.30564971638E+02 -0.26540998202E+03  0.27151451612E+03  0.00000000000E+00 0.  1.
         22    1    3    3    0    0  0.28351111926E+02  0.65465554831E+02 -0.21540723017E+03  0.22691363826E+03  0.00000000000E+00 0.  1.
</event>
<event>
 7    1  0.6140348E-006  0.2026470E+03  0.7818608E-02  0.1218701E+00
          2   -1    0    0  502    0  0.00000000000E+00  0.00000000000E+00  0.17112306304E+04  0.17112306304E+04  0.00000000000E+00 0. -1.
          1   -1    0    0  501    0 -0.00000000000E+00 -0.00000000000E+00 -0.18984768152E+03  0.18984768152E+03  0.00000000000E+00 0. -1.
         25    2    1    2    0    0 -0.16003879841E+03  0.21149984025E+03  0.10978111455E+03  0.31306946826E+03  0.12496399251E+03 0.  0.
          2    1    1    2  501    0  0.91908885879E+02 -0.15059959797E+03  0.30095048510E+01  0.17645548825E+03  0.00000000000E+00 0. -1.
          1    1    1    2  502    0  0.68129912534E+02 -0.60900242276E+02  0.14085923294E+04  0.14115533554E+04  0.00000000000E+00 0. -1.
         22    1    3    3    0    0 -0.17995923410E+03  0.17194961761E+03  0.93860878983E+02  0.26601101770E+03  0.00000000000E+00 0.  1.
         22    1    3    3    0    0  0.19920435690E+02  0.39550222635E+02  0.15920235565E+02  0.47058450559E+02  0.00000000000E+00 0.  1.
</event>
<event>
 7    1  0.6140348E-006  0.8187237E+02  0.7818608E-02  0.1330301E+00
          2   -1    0    0  502    0  0.00000000000E+00  0.00000000000E+00  0.14790069798E+04  0.14790069798E+04  0.00000000000E+00 0. -1.
          1   -1    0    0  501    0 -0.00000000000E+00 -0.00000000000E+00 -0.21978519400E+02  0.21978519400E+02  0.00000000000E+00 0. -1.
         25    2    1    2    0    0 -0.58446938353E+02 -0.11842314031E+02  0.59460229128E+03  0.61051902200E+03  0.12500122570E+03 0.  0.
          2    1    1    2  501    0  0.57457468929E+02 -0.70024071784E+02  0.16480041134E+03  0.18805293655E+03  0.00000000000E+00 0. -1.
          1    1    1    2  502    0  0.98946942313E+00  0.81866385815E+02  0.69762575774E+03  0.70241354062E+03  0.00000000000E+00 0. -1.
         22    1    3    3    0    0 -0.65966051387E+02 -0.17201726183E+02  0.59707962528E+03  0.60095881576E+03  0.00000000000E+00 0. -1.
         22    1    3    3    0    0  0.75191130343E+01  0.53594121521E+01 -0.24773340059E+01  0.95602062329E+01  0.00000000000E+00 0. -1.
</event>
<event>
 7    1  0.6140348E-006  0.4886763E+02  0.7818608E-02  0.1477328E+00
          2   -1    0    0  502    0  0.00000000000E+00  0.00000000000E+00  0.12257774125E+04  0.12257774125E+04  0.00000000000E+00 0. -1.
          1   -1    0    0  501    0 -0.00000000000E+00 -0.00000000000E+00 -0.30690126359E+04  0.30690126359E+04  0.00000000000E+00 0. -1.
         25    2    1    2    0    0 -0.77410342145E+01  0.96512341243E+01 -0.26944151894E+02  0.12847184931E+03  0.12500383519E+03 0.  0.
          2    1    1    2  501    0 -0.40562704475E+02 -0.68620803845E+00 -0.29906534717E+04  0.29909286169E+04  0.00000000000E+00 0. -1.
          1    1    1    2  502    0  0.48303738690E+02 -0.89650260858E+01  0.11743624002E+04  0.11753895822E+04  0.00000000000E+00 0. -1.
         22    1    3    3    0    0 -0.50766339960E+02  0.45675196356E+02 -0.59122855464E+01  0.68544875486E+02  0.00000000000E+00 0. -1.
         22    1    3    3    0    0  0.43025305745E+02 -0.36023962232E+02 -0.21031866348E+02  0.59926973822E+02  0.00000000000E+00 0. -1.
</event>
<event>
 7    1  0.6140348E-006  0.1847887E+03  0.7818608E-02  0.1271032E+00
          2   -1    0    0  502    0  0.00000000000E+00  0.00000000000E+00  0.19372425478E+03  0.19372425478E+03  0.00000000000E+00 0. -1.
          1   -1    0    0  501    0 -0.00000000000E+00 -0.00000000000E+00 -0.16497666879E+04  0.16497666879E+04  0.00000000000E+00 0. -1.
         25    2    1    2    0    0 -0.83599436903E+02 -0.19043564721E+03 -0.91338755836E+03  0.94506983860E+03  0.12500226598E+03 0.  0.
          2    1    1    2  501    0  0.58572929909E+02  0.81656072553E+01 -0.67131629666E+03  0.67391619318E+03  0.00000000000E+00 0. -1.
          1    1    1    2  502    0  0.25026506994E+02  0.18227003995E+03  0.12866142193E+03  0.22450491088E+03  0.00000000000E+00 0. -1.
         22    1    3    3    0    0 -0.67919655262E+02 -0.24250333651E+02 -0.35566890724E+03  0.36290705399E+03  0.00000000000E+00 0. -1.
         22    1    3    3    0    0 -0.15679781641E+02 -0.16618531356E+03 -0.55771865111E+03  0.58216278462E+03  0.00000000000E+00 0. -1.
</event>
<event>
 7    1  0.6140348E-006  0.1031765E+03  0.7818608E-02  0.1379944E+00
          2   -1    0    0  502    0  0.00000000000E+00  0.00000000000E+00  0.17570264450E+03  0.17570264450E+03  0.00000000000E+00 0. -1.
          1   -1    0    0  501    0 -0.00000000000E+00 -0.00000000000E+00 -0.15547597161E+04  0.15547597161E+04  0.00000000000E+00 0. -1.
         25    2    1    2    0    0  0.74254559909E+02 -0.49108632700E+02 -0.49420427836E+03  0.51748190117E+03  0.12499700724E+03 0.  0.
          2    1    1    2  501    0 -0.62594662768E+02  0.87679429283E+02 -0.10436271789E+04  0.10491727516E+04  0.00000000000E+00 0. -1.
          1    1    1    2  502    0 -0.11659897141E+02 -0.38570796583E+02  0.15877438575E+03  0.16380770776E+03  0.00000000000E+00 0. -1.
         22    1    3    3    0    0 -0.24071630304E+02 -0.49120244544E+02 -0.15846735282E+03  0.16764290536E+03  0.00000000000E+00 0.  1.
         22    1    3    3    0    0  0.98326190213E+02  0.11611843425E-01 -0.33573692555E+03  0.34983899581E+03  0.00000000000E+00 0.  1.
</event>
<event>
 7    1  0.6140348E-006  0.7159895E+02  0.7818608E-02  0.1392695E+00
          2   -1    0    0  502    0  0.00000000000E+00  0.00000000000E+00  0.18129148928E+03  0.18129148928E+03  0.00000000000E+00 0. -1.
          1   -1    0    0  501    0 -0.00000000000E+00 -0.00000000000E+00 -0.70837523867E+03  0.70837523867E+03  0.00000000000E+00 0. -1.
         25    2    1    2    0    0  0.10751457740E+03 -0.39570761485E+00  0.43773717253E+02  0.17059191475E+03  0.12500368842E+03 0.  0.
          2    1    1    2  501    0 -0.64624543873E+02 -0.29676077663E+02 -0.63346504253E+03  0.63744408489E+03  0.00000000000E+00 0. -1.
          1    1    1    2  502    0 -0.42890033527E+02  0.30071785278E+02  0.62607575885E+02  0.81630728307E+02  0.00000000000E+00 0. -1.
         22    1    3    3    0    0  0.46256404775E+02 -0.57309884460E+02 -0.49507265858E+01  0.73814548249E+02  0.00000000000E+00 0.  1.
         22    1    3    3    0    0  0.61258172625E+02  0.56914176845E+02  0.48724443839E+02  0.96777366500E+02  0.00000000000E+00 0.  1.
</event>
<event>
 7    1  0.6140348E-006  0.7826756E+02  0.7818608E-02  0.1395473E+00
          2   -1    0    0  502    0  0.00000000000E+00  0.00000000000E+00  0.20440997500E+03  0.20440997500E+03  0.00000000000E+00 0. -1.
          1   -1    0    0  501    0 -0.00000000000E+00 -0.00000000000E+00 -0.51349958596E+03  0.51349958596E+03  0.00000000000E+00 0. -1.
         25    2    1    2    0    0  0.50822447384E+02 -0.54494899303E+02  0.67011714521E+02  0.16020899210E+03  0.12499494413E+03 0.  0.
          2    1    1    2  501    0 -0.10332130354E+02  0.78098025331E+02 -0.45725177736E+03  0.46398840758E+03  0.00000000000E+00 0. -1.
          1    1    1    2  502    0 -0.40490317030E+02 -0.23603126029E+02  0.81150451872E+02  0.93712161274E+02  0.00000000000E+00 0. -1.
         22    1    3    3    0    0  0.33390592322E+02 -0.40451517386E+02  0.10428348039E+03  0.11673174888E+03  0.00000000000E+00 0. -1.
         22    1    3    3    0    0  0.17431855062E+02 -0.14043381917E+02 -0.37271765870E+02  0.43477243215E+02  0.00000000000E+00 0. -1.
</event>
<event>
 7    1  0.6140348E-006  0.5112018E+02  0.7818608E-02  0.1569985E+00
          2   -1    0    0  502    0  0.00000000000E+00  0.00000000000E+00  0.11060075165E+04  0.11060075165E+04  0.00000000000E+00 0. -1.
          1   -1    0    0  501    0 -0.00000000000E+00 -0.00000000000E+00 -0.13466018081E+02  0.13466018081E+02  0.00000000000E+00 0. -1.
         25    2    1    2    0    0  0.47855295164E+02 -0.36662908574E+02  0.49966550430E+03  0.51857961881E+03  0.12499962687E+03 0.  0.
          2    1    1    2  501    0 -0.27274362214E-02  0.20922759704E+02  0.35210287157E+02  0.40957614710E+02  0.00000000000E+00 0. -1.
          1    1    1    2  502    0 -0.47852567728E+02  0.15740148870E+02  0.55766570697E+03  0.55993630107E+03  0.00000000000E+00 0. -1.
         22    1    3    3    0    0 -0.41298881202E+02 -0.59196462379E+01  0.20458090527E+03  0.20879173020E+03  0.00000000000E+00 0. -1.
         22    1    3    3    0    0  0.89154176366E+02 -0.30743262336E+02  0.29508459903E+03  0.30978788861E+03  0.00000000000E+00 0. -1.
</event>
<event>
 7    1  0.6140348E-006  0.1258644E+03  0.7818608E-02  0.1360698E+00
          2   -1    0    0  502    0  0.00000000000E+00  0.00000000000E+00  0.24855774052E+04  0.24855774052E+04  0.00000000000E+00 0. -1.
          1   -1    0    0  501    0 -0.00000000000E+00 -0.00000000000E+00 -0.14969677683E+03  0.14969677683E+03  0.00000000000E+00 0. -1.
         25    2    1    2    0    0  0.11302990333E+03  0.41691906446E+02  0.36081569205E+03  0.40040784123E+03  0.12499800631E+03 0.  0.
          2    1    1    2  501    0 -0.13059448608E+02  0.36465355856E+02 -0.12505502833E+03  0.13091612386E+03  0.00000000000E+00 0. -1.
          1    1    1    2  502    0 -0.99970454719E+02 -0.78157262301E+02  0.21001199646E+04  0.21039502169E+04  0.00000000000E+00 0. -1.
         22    1    3    3    0    0  0.12067692074E+03  0.24020214186E+02  0.17688513321E+03  0.21547213332E+03  0.00000000000E+00 0.  1.
         22    1    3    3    0    0 -0.76470174167E+01  0.17671692260E+02  0.18393055884E+03  0.18493570791E+03  0.00000000000E+00 0.  1.
</event>
<event>
 7    1  0.6536828E-006  0.1180568E+03  0.7818608E-02  0.1371000E+00
          2   -1    0    0  502    0  0.00000000000E+00  0.00000000000E+00  0.20332347446E+04  0.20332347446E+04  0.00000000000E+00 0. -1.
          1   -1    0    0  501    0 -0.00000000000E+00 -0.00000000000E+00 -0.38523747455E+03  0.38523747455E+03  0.00000000000E+00 0. -1.
         25    2    1    2    0    0 -0.44148373062E+02  0.14474311885E+03 -0.13180479268E+03  0.23642104580E+03  0.12499103258E+03 0.  0.
          2    1    1    2  501    0 -0.47105942780E+01 -0.37605463586E+02 -0.19757196852E+03  0.20117416170E+03  0.00000000000E+00 0. -1.
          1    1    1    2  502    0  0.48858967340E+02 -0.10713765526E+03  0.19773740312E+04  0.19808770116E+04  0.00000000000E+00 0. -1.
         22    1    3    3    0    0 -0.33559491184E+02  0.15828332568E+03 -0.14297567748E+03  0.21592103878E+03  0.00000000000E+00 0.  1.
         22    1    3    3    0    0 -0.10588881878E+02 -0.13540206838E+02  0.11170884793E+02  0.20500007017E+02  0.00000000000E+00 0.  1.
</event>
<event>
 7    1  0.6140348E-006  0.8314830E+02  0.7818608E-02  0.1427985E+00
          2   -1    0    0  502    0  0.00000000000E+00  0.00000000000E+00  0.83369502918E+02  0.83369502918E+02  0.00000000000E+00 0. -1.
          1   -1    0    0  501    0 -0.00000000000E+00 -0.00000000000E+00 -0.12904647318E+04  0.12904647318E+04  0.00000000000E+00 0. -1.
         25    2    1    2    0    0 -0.82685828813E+02  0.53890941255E+02 -0.30985264319E+03  0.34838851273E+03  0.12499886191E+03 0.  0.
          2    1    1    2  501    0  0.32359506306E+02  0.11227459764E+02 -0.93448479081E+03  0.93511230221E+03  0.00000000000E+00 0. -1.
          1    1    1    2  502    0  0.50326322506E+02 -0.65118401018E+02  0.37242205104E+02  0.90333419780E+02  0.00000000000E+00 0. -1.
         22    1    3    3    0    0 -0.20854906245E+02  0.86673497603E+02 -0.16641814834E+03  0.18879147861E+03  0.00000000000E+00 0.  1.
         22    1    3    3    0    0 -0.61830922568E+02 -0.32782556349E+02 -0.14343449485E+03  0.15959703412E+03  0.00000000000E+00 0.  1.
</event>
<event>
 7    1  0.6140348E-006  0.1371759E+03  0.7818608E-02  0.1274629E+00
          2   -1    0    0  502    0  0.00000000000E+00  0.00000000000E+00  0.26159849977E+04  0.26159849977E+04  0.00000000000E+00 0. -1.
          1   -1    0    0  501    0 -0.00000000000E+00 -0.00000000000E+00 -0.59095852686E+03  0.59095852686E+03  0.00000000000E+00 0. -1.
         25    2    1    2    0    0  0.69484880377E+02 -0.10147797060E+02  0.62997635655E+02  0.15659964044E+03  0.12499447549E+03 0.  0.
          2    1    1    2  501    0 -0.13222016874E+03  0.54716311942E+02 -0.53414706444E+03  0.55298203792E+03  0.00000000000E+00 0. -1.
          1    1    1    2  502    0  0.62735288362E+02 -0.44568514882E+02  0.24961758996E+04  0.24973618461E+04  0.00000000000E+00 0. -1.
         22    1    3    3    0    0 -0.30753195838E+02 -0.26653869584E+02  0.95175110582E+01  0.41794387600E+02  0.00000000000E+00 0.  1.
         22    1    3    3    0    0  0.10023807622E+03  0.16506072525E+02  0.53480124596E+02  0.11480525284E+03  0.00000000000E+00 0.  1.
</event>
<event>
 7    1  0.6140348E-006  0.1577884E+03  0.7818608E-02  0.1256256E+00
          2   -1    0    0  502    0  0.00000000000E+00  0.00000000000E+00  0.14262567997E+03  0.14262567997E+03  0.00000000000E+00 0. -1.
          1   -1    0    0  501    0 -0.00000000000E+00 -0.00000000000E+00 -0.32782739135E+04  0.32782739135E+04  0.00000000000E+00 0. -1.
         25    2    1    2    0    0  0.66719039374E+01  0.15472236694E+03 -0.83743980868E+03  0.86076356969E+03  0.12499985848E+03 0.  0.
          2    1    1    2  501    0  0.72751964633E+02 -0.14501588928E+03 -0.24139680983E+04  0.24194140688E+04  0.00000000000E+00 0. -1.
          1    1    1    2  502    0 -0.79423868570E+02 -0.97064776565E+01  0.11575967349E+03  0.14072195498E+03  0.00000000000E+00 0. -1.
         22    1    3    3    0    0  0.44280323343E+02  0.11838845355E+02 -0.29594024708E+03  0.29946875486E+03  0.00000000000E+00 0.  1.
         22    1    3    3    0    0 -0.37608419406E+02  0.14288352158E+03 -0.54149956160E+03  0.56129481484E+03  0.00000000000E+00 0.  1.
</event>
<event>
 7    1  0.6140348E-006  0.2658986E+03  0.7818608E-02  0.1238954E+00
          2   -1    0    0  502    0  0.00000000000E+00  0.00000000000E+00  0.29024517605E+04  0.29024517605E+04  0.00000000000E+00 0. -1.
          1   -1    0    0  501    0 -0.00000000000E+00 -0.00000000000E+00 -0.39419342135E+03  0.39419342135E+03  0.00000000000E+00 0. -1.
         25    2    1    2    0    0  0.25161882306E+03 -0.14297251071E+03  0.30944762839E+01  0.31525615119E+03  0.12499477646E+03 0.  0.
          2    1    1    2  501    0 -0.10016432848E+01  0.56469991803E+02 -0.22825690226E+03  0.23514054668E+03  0.00000000000E+00 0. -1.
          1    1    1    2  502    0 -0.25061717977E+03  0.86502518904E+02  0.27334207651E+04  0.27462484840E+04  0.00000000000E+00 0. -1.
         22    1    3    3    0    0  0.11593082803E+03 -0.27317074125E+02  0.52625311349E+02  0.13021368139E+03  0.00000000000E+00 0. -1.
         22    1    3    3    0    0  0.13568799503E+03 -0.11565543658E+03 -0.49530835065E+02  0.18504246980E+03  0.00000000000E+00 0. -1.
</event>
<event>
 7    1  0.6140348E-006  0.2919216E+02  0.7818608E-02  0.1636404E+00
          2   -1    0    0  502    0  0.00000000000E+00  0.00000000000E+00  0.44874423371E+03  0.44874423371E+03  0.00000000000E+00 0. -1.
          1   -1    0    0  501    0 -0.00000000000E+00 -0.00000000000E+00 -0.16301332041E+03  0.16301332041E+03  0.00000000000E+00 0. -1.
         25    2    1    2    0    0  0.15401344195E+02  0.25370790933E+02 -0.30291271718E+02  0.13200043604E+03  0.12500270212E+03 0.  0.
          2    1    1    2  501    0 -0.24484367362E+02  0.24409835050E+01 -0.79465969576E+02  0.83188238149E+02  0.00000000000E+00 0. -1.
          1    1    1    2  502    0  0.90830231677E+01 -0.27811774438E+02  0.39548815459E+03  0.39656887993E+03  0.00000000000E+00 0. -1.
         22    1    3    3    0    0 -0.45746391973E+02  0.11971780016E+02 -0.47556342500E+02  0.67064607710E+02  0.00000000000E+00 0.  1.
         22    1    3    3    0    0  0.61147736168E+02  0.13399010917E+02  0.17265070782E+02  0.64935828332E+02  0.00000000000E+00 0.  1.
</event>
<event>
 7    1  0.6140348E-006  0.4604056E+02  0.7818608E-02  0.1518910E+00
          2   -1    0    0  502    0  0.00000000000E+00  0.00000000000E+00  0.20005195109E+04  0.20005195109E+04  0.00000000000E+00 0. -1.
          1   -1    0    0  501    0 -0.00000000000E+00 -0.00000000000E+00 -0.89946165023E+02  0.89946165023E+02  0.00000000000E+00 0. -1.
         25    2    1    2    0    0  0.63936948021E+02 -0.14630125416E+01  0.90980940023E+03  0.92057973943E+03  0.12499535264E+03 0.  0.
          2    1    1    2  501    0 -0.24747268343E+02 -0.20807597671E+02 -0.80983762414E+02  0.87199502212E+02  0.00000000000E+00 0. -1.
          1    1    1    2  502    0 -0.39189679677E+02  0.22270610213E+02  0.10817477081E+04  0.10826864343E+04  0.00000000000E+00 0. -1.
         22    1    3    3    0    0  0.41274337599E+02  0.40769650229E+02  0.17828194324E+03  0.18748383026E+03  0.00000000000E+00 0. -1.
         22    1    3    3    0    0  0.22662610421E+02 -0.42232662771E+02  0.73152745699E+03  0.73309590917E+03  0.00000000000E+00 0. -1.
</event>
<event>
 7    1  0.6140348E-006  0.4538878E+02  0.7818608E-02  0.1495873E+00
          2   -1    0    0  502    0  0.00000000000E+00  0.00000000000E+00  0.67452666259E+03  0.67452666259E+03  0.00000000000E+00 0. -1.
          1   -1    0    0  501    0 -0.00000000000E+00 -0.00000000000E+00 -0.33657776798E+03  0.33657776798E+03  0.00000000000E+00 0. -1.
         25    2    1    2    0    0 -0.99094623070E+01 -0.28653472723E+00  0.14149388614E+02  0.12618698215E+03  0.12499867888E+03 0.  0.
          2    1    1    2  501    0  0.38605257941E+02  0.25744632418E+02 -0.27802548655E+03  0.28187111099E+03  0.00000000000E+00 0. -1.
          1    1    1    2  502    0 -0.28695795634E+02 -0.25458097691E+02  0.60182499255E+03  0.60304633743E+03  0.00000000000E+00 0. -1.
         22    1    3    3    0    0  0.20742015306E+01  0.56914711915E+02  0.31680888172E+02  0.65171047404E+02  0.00000000000E+00 0.  1.
         22    1    3    3    0    0 -0.11983663838E+02 -0.57201246642E+02 -0.17531499558E+02  0.61015934748E+02  0.00000000000E+00 0.  1.
</event>
<event>
 7    1  0.6140348E-006  0.2851188E+02  0.7818608E-02  0.1636223E+00
          2   -1    0    0  502    0  0.00000000000E+00  0.00000000000E+00  0.55213642175E+03  0.55213642175E+03  0.00000000000E+00 0. -1.
          1   -1    0    0  501    0 -0.00000000000E+00 -0.00000000000E+00 -0.49430353878E+03  0.49430353878E+03  0.00000000000E+00 0. -1.
         25    2    1    2    0    0 -0.41051621547E+02  0.30456941540E+01 -0.12825824955E+03  0.18376466063E+03  0.12499904013E+03 0.  0.
          2    1    1    2  501    0  0.23869474923E+02  0.15414376280E+02 -0.33739134824E+03  0.33858570067E+03  0.00000000000E+00 0. -1.
          1    1    1    2  502    0  0.17182146624E+02 -0.18460070434E+02  0.52348248076E+03  0.52408959924E+03  0.00000000000E+00 0. -1.
         22    1    3    3    0    0  0.18003508412E+01 -0.15372278854E+02 -0.13565875895E+03  0.13653881170E+03  0.00000000000E+00 0. -1.
         22    1    3    3    0    0 -0.42851972388E+02  0.18417973008E+02  0.74005094045E+01  0.47225848925E+02  0.00000000000E+00 0. -1.
</event>
<event>
 7    1  0.6140348E-006  0.1676129E+03  0.7818608E-02  0.1345606E+00
          2   -1    0    0  502    0  0.00000000000E+00  0.00000000000E+00  0.56025813270E+03  0.56025813270E+03  0.00000000000E+00 0. -1.
          1   -1    0    0  501    0 -0.00000000000E+00 -0.00000000000E+00 -0.72730351759E+03  0.72730351759E+03  0.00000000000E+00 0. -1.
         25    2    1    2    0    0 -0.13456281738E+03 -0.35882206506E+02 -0.24313635397E+03  0.30681455870E+03  0.12500080898E+03 0.  0.
          2    1    1    2  501    0 -0.32126901292E+02  0.78090051360E+01 -0.43817088957E+03  0.43941648446E+03  0.00000000000E+00 0. -1.
          1    1    1    2  502    0  0.16668971867E+03  0.28073201370E+02  0.51426185865E+03  0.54133060712E+03  0.00000000000E+00 0. -1.
         22    1    3    3    0    0 -0.49935682982E+02 -0.21577362037E+02 -0.20641256018E+03  0.21346030073E+03  0.00000000000E+00 0. -1.
         22    1    3    3    0    0 -0.84627134396E+02 -0.14304844469E+02 -0.36723793791E+02  0.93354257973E+02  0.00000000000E+00 0. -1.
</event>
<event>
 7    1  0.6140348E-006  0.6252182E+02  0.7818608E-02  0.1483548E+00
          2   -1    0    0  502    0  0.00000000000E+00  0.00000000000E+00  0.54672292038E+03  0.54672292038E+03  0.00000000000E+00 0. -1.
          1   -1    0    0  501    0 -0.00000000000E+00 -0.00000000000E+00 -0.14395487226E+04  0.14395487226E+04  0.00000000000E+00 0. -1.
         25    2    1    2    0    0  0.52363182494E+02 -0.27624495403E+02  0.80945144025E+02  0.16025686941E+03  0.12500052889E+03 0.  0.
          2    1    1    2  501    0  0.10751858002E+02  0.28378145889E+02 -0.13973898139E+04  0.13977192900E+04  0.00000000000E+00 0. -1.
          1    1    1    2  502    0 -0.63115040496E+02 -0.75365048570E+00  0.42361886759E+03  0.42829548364E+03  0.00000000000E+00 0. -1.
         22    1    3    3    0    0  0.26506028392E+02 -0.68558682491E+02  0.97350568868E+01  0.74146030363E+02  0.00000000000E+00 0.  1.
         22    1    3    3    0    0  0.25857154101E+02  0.40934187087E+02  0.71210087138E+02  0.86110839045E+02  0.00000000000E+00 0.  1.
</event>
<event>
 7    1  0.6140348E-006  0.6890560E+02  0.7818608E-02  0.1476282E+00
          2   -1    0    0  502    0  0.00000000000E+00  0.00000000000E+00  0.33055778922E+03  0.33055778922E+03  0.00000000000E+00 0. -1.
          1   -1    0    0  501    0 -0.00000000000E+00 -0.00000000000E+00 -0.10951772293E+04  0.10951772293E+04  0.00000000000E+00 0. -1.
         25    2    1    2    0    0  0.21426947923E+02 -0.42603186757E+02 -0.23272349626E+03  0.26843925136E+03  0.12500104136E+03 0.  0.
          2    1    1    2  501    0  0.28468695724E+02 -0.54487629052E+01 -0.84050656881E+03  0.84100621155E+03  0.00000000000E+00 0. -1.
          1    1    1    2  502    0 -0.49895643647E+02  0.48051949662E+02  0.30861062500E+03  0.31628955560E+03  0.00000000000E+00 0. -1.
         22    1    3    3    0    0  0.24171459983E+02  0.13344903478E+02  0.14604539478E+01  0.27649210699E+02  0.00000000000E+00 0. -1.
         22    1    3    3    0    0 -0.27445120593E+01 -0.55948090234E+02 -0.23418395021E+03  0.24079004066E+03  0.00000000000E+00 0. -1.
</event>
<event>
 7    1  0.6140348E-006  0.1901609E+03  0.7818608E-02  0.1222013E+00
          2   -1    0    0  502    0  0.00000000000E+00  0.00000000000E+00  0.15351144683E+04  0.15351144683E+04  0.00000000000E+00 0. -1.
          1   -1    0    0  501    0 -0.00000000000E+00 -0.00000000000E+00 -0.21535888651E+04  0.21535888651E+04  0.00000000000E+00 0. -1.
         25    2    1    2    0    0 -0.22200976808E+03  0.17159739507E+03 -0.12851006310E+03  0.33297840387E+03  0.12500311199E+03 0.  0.
          2    1    1    2  501    0  0.66210493057E+02 -0.66803200885E+02 -0.19155346830E+04  0.19178424385E+04  0.00000000000E+00 0. -1.
          1    1    1    2  502    0  0.15579927502E+03 -0.10479419418E+03  0.14255703493E+04  0.14378824911E+04  0.00000000000E+00 0. -1.
         22    1    3    3    0    0 -0.23593976077E+03  0.17147633482E+03 -0.12925600431E+03  0.31902792788E+03  0.00000000000E+00 0. -1.
         22    1    3    3    0    0  0.13929992691E+02  0.12106024070E+00  0.74594121021E+00  0.13950475987E+02  0.00000000000E+00 0. -1.
</event>
<event>
 7    1  0.6140348E-006  0.6483117E+02  0.7818608E-02  0.1448464E+00
          2   -1    0    0  502    0  0.00000000000E+00  0.00000000000E+00  0.41045429328E+03  0.41045429328E+03  0.00000000000E+00 0. -1.
          1   -1    0    0  501    0 -0.00000000000E+00 -0.00000000000E+00 -0.67425530252E+03  0.67425530252E+03  0.00000000000E+00 0. -1.
         25    2    1    2    0    0  0.19875149005E+02  0.22833230051E+02  0.17096068563E+02  0.12974186569E+03  0.12499719281E+03 0.  0.
          2    1    1    2  501    0 -0.27169724338E+02 -0.59801232968E+02 -0.61512523887E+03  0.61862221176E+03  0.00000000000E+00 0. -1.
          1    1    1    2  502    0  0.72945753332E+01  0.36968002917E+02  0.33422816106E+03  0.33634551835E+03  0.00000000000E+00 0. -1.
         22    1    3    3    0    0  0.43748461590E+01  0.42133305034E+02 -0.45658228501E+02  0.62281847290E+02  0.00000000000E+00 0. -1.
         22    1    3    3    0    0  0.15500302846E+02 -0.19300074982E+02  0.62754297064E+02  0.67460018401E+02  0.00000000000E+00 0. -1.
</event>
<event>
 7    1  0.6140348E-006  0.9583374E+02  0.7818608E-02  0.1432761E+00
          2   -1    0    0  502    0  0.00000000000E+00  0.00000000000E+00  0.11680346270E+03  0.11680346270E+03  0.00000000000E+00 0. -1.
          1   -1    0    0  501    0 -0.00000000000E+00 -0.00000000000E+00 -0.62789259229E+03  0.62789259229E+03  0.00000000000E+00 0. -1.
         25    2    1    2    0    0 -0.12665506250E+01 -0.75638528284E+02 -0.23554952228E+03  0.27718445124E+03  0.12499940581E+03 0.  0.
          2    1    1    2  501    0  0.12093568586E+02  0.10217694125E+03 -0.36204505186E+03  0.37638145717E+03  0.00000000000E+00 0. -1.
          1    1    1    2  502    0 -0.10827017961E+02 -0.26538412965E+02  0.86505444544E+02  0.91130146584E+02  0.00000000000E+00 0. -1.
         22    1    3    3    0    0 -0.61221099488E+02 -0.46998338539E+02 -0.15165835701E+03  0.17016792912E+03  0.00000000000E+00 0. -1.
         22    1    3    3    0    0  0.59954548863E+02 -0.28640189745E+02 -0.83891165265E+02  0.10701652212E+03  0.00000000000E+00 0. -1.
</event>
<event>
 7    1  0.6140348E-006  0.4761860E+02  0.7818608E-02  0.1468258E+00
          2   -1    0    0  502    0  0.00000000000E+00  0.00000000000E+00  0.43171834892E+03  0.43171834892E+03  0.00000000000E+00 0. -1.
          1   -1    0    0  501    0 -0.00000000000E+00 -0.00000000000E+00 -0.58313594803E+02  0.58313594803E+02  0.00000000000E+00 0. -1.
         25    2    1    2    0    0 -0.16975137391E+02 -0.14026116420E+02  0.16224631429E+03  0.20597843037E+03  0.12497343735E+03 0.  0.
          2    1    1    2  501    0 -0.23504214542E+02  0.41413555505E+02 -0.17119388288E+02  0.50602412355E+02  0.00000000000E+00 0. -1.
          1    1    1    2  502    0  0.40479351933E+02 -0.27387439085E+02  0.22827782811E+03  0.23345110100E+03  0.00000000000E+00 0. -1.
         22    1    3    3    0    0  0.50680184033E+02  0.74960891354E+01  0.41606048541E+02  0.65997997554E+02  0.00000000000E+00 0.  1.
         22    1    3    3    0    0 -0.67655321424E+02 -0.21522205555E+02  0.12064026575E+03  0.13998043281E+03  0.00000000000E+00 0.  1.
</event>
<event>
 7    1  0.6140348E-006  0.3551901E+02  0.7818608E-02  0.1568042E+00
          2   -1    0    0  502    0  0.00000000000E+00  0.00000000000E+00  0.22616921008E+03  0.22616921008E+03  0.00000000000E+00 0. -1.
          1   -1    0    0  501    0 -0.00000000000E+00 -0.00000000000E+00 -0.21982015817E+04  0.21982015817E+04  0.00000000000E+00 0. -1.
         25    2    1    2    0    0  0.48987830713E+02 -0.28421511014E+02 -0.51342811653E+02  0.14652659689E+03  0.12500547765E+03 0.  0.
          2    1    1    2  501    0 -0.13746714204E+02  0.27205783270E+02 -0.20974143338E+04  0.20976358155E+04  0.00000000000E+00 0. -1.
          1    1    1    2  502    0 -0.35241116509E+02  0.12157277437E+01  0.17672477388E+03  0.18020837936E+03  0.00000000000E+00 0. -1.
         22    1    3    3    0    0  0.68017414922E+02 -0.11444247285E+02 -0.81672315441E+02  0.10690045200E+03  0.00000000000E+00 0.  1.
         22    1    3    3    0    0 -0.19029584209E+02 -0.16977263729E+02  0.30329503787E+02  0.39626144891E+02  0.00000000000E+00 0.  1.
</event>
<event>
 7    1  0.6140348E-006  0.8250199E+02  0.7818608E-02  0.1333991E+00
          2   -1    0    0  502    0  0.00000000000E+00  0.00000000000E+00  0.60867751987E+03  0.60867751987E+03  0.00000000000E+00 0. -1.
          1   -1    0    0  501    0 -0.00000000000E+00 -0.00000000000E+00 -0.42738415203E+03  0.42738415203E+03  0.00000000000E+00 0. -1.
         25    2    1    2    0    0  0.55385100207E+01  0.18061194676E+02 -0.46855112144E+02  0.13482405448E+03  0.12500096914E+03 0.  0.
          2    1    1    2  501    0  0.75482710587E+02 -0.33622052506E+02 -0.32838516068E+03  0.33862205446E+03  0.00000000000E+00 0. -1.
          1    1    1    2  502    0 -0.81021220608E+02  0.15560857830E+02  0.55653364067E+03  0.56261556296E+03  0.00000000000E+00 0. -1.
         22    1    3    3    0    0  0.58988697671E+02  0.88957611173E+01 -0.53571740664E+02  0.80179376504E+02  0.00000000000E+00 0. -1.
         22    1    3    3    0    0 -0.53450187650E+02  0.91654335586E+01  0.67166285198E+01  0.54644677974E+02  0.00000000000E+00 0. -1.
</event>
<event>
 7    1  0.6140348E-006  0.6435809E+02  0.7818608E-02  0.1476506E+00
          2   -1    0    0  502    0  0.00000000000E+00  0.00000000000E+00  0.13334802646E+04  0.13334802646E+04  0.00000000000E+00 0. -1.
          1   -1    0    0  501    0 -0.00000000000E+00 -0.00000000000E+00 -0.24158406843E+03  0.24158406843E+03  0.00000000000E+00 0. -1.
         25    2    1    2    0    0 -0.27073559888E+02 -0.83907475311E+02  0.28595428370E+03  0.32429641635E+03  0.12499948492E+03 0.  0.
          2    1    1    2  501    0 -0.65255477549E+01  0.30289149754E+02 -0.22035477925E+03  0.22252245753E+03  0.00000000000E+00 0. -1.
          1    1    1    2  502    0  0.33599107643E+02  0.53618325558E+02  0.10262966918E+04  0.10282454592E+04  0.00000000000E+00 0. -1.
         22    1    3    3    0    0 -0.38092566283E+01  0.26868470015E+02  0.12253547077E+03  0.12550444898E+03  0.00000000000E+00 0. -1.
         22    1    3    3    0    0 -0.23264303259E+02 -0.11077594533E+03  0.16341881293E+03  0.19879196737E+03  0.00000000000E+00 0. -1.
</event>
<event>
 7    1  0.6140348E-006  0.1162948E+03  0.7818608E-02  0.1323676E+00
          2   -1    0    0  502    0  0.00000000000E+00  0.00000000000E+00  0.21957967961E+04  0.21957967961E+04  0.00000000000E+00 0. -1.
          1   -1    0    0  501    0 -0.00000000000E+00 -0.00000000000E+00 -0.35873609555E+03  0.35873609555E+03  0.00000000000E+00 0. -1.
         25    2    1    2    0    0  0.79242035977E+02  0.44453870487E+01  0.95380541923E+03  0.96523003081E+03  0.12500069158E+03 0.  0.
          2    1    1    2  501    0 -0.10149866572E+03 -0.57693643320E+02 -0.34267363818E+03  0.36201623987E+03  0.00000000000E+00 0. -1.
          1    1    1    2  502    0  0.22256629747E+02  0.53248256271E+02  0.12259289195E+04  0.12272866210E+04  0.00000000000E+00 0. -1.
         22    1    3    3    0    0  0.33856331459E+02 -0.59898793869E+02  0.48545658661E+03  0.49030828483E+03  0.00000000000E+00 0.  1.
         22    1    3    3    0    0  0.45385704517E+02  0.64344180917E+02  0.46834883262E+03  0.47492174598E+03  0.00000000000E+00 0.  1.
</event>
<event>
 7    1  0.6140348E-006  0.5413603E+02  0.7818608E-02  0.1505574E+00
          2   -1    0    0  502    0  0.00000000000E+00  0.00000000000E+00  0.15797605542E+04  0.15797605542E+04  0.00000000000E+00 0. -1.
          1   -1    0    0  501    0 -0.00000000000E+00 -0.00000000000E+00 -0.41957993349E+02  0.41957993349E+02  0.00000000000E+00 0. -1.
         25    2    1    2    0    0  0.39173938197E+01  0.45129807360E+02  0.13147198267E+04  0.13214261082E+04  0.12500676424E+03 0.  0.
          2    1    1    2  501    0 -0.21929645837E+02  0.20604210202E+02 -0.27403602205E+02  0.40698897508E+02  0.00000000000E+00 0. -1.
          1    1    1    2  502    0  0.18012252018E+02 -0.65734017561E+02  0.25048633632E+03  0.25959354185E+03  0.00000000000E+00 0. -1.
         22    1    3    3    0    0  0.56532658864E+02  0.55623283610E+02  0.78155264510E+03  0.78556631054E+03  0.00000000000E+00 0. -1.
         22    1    3    3    0    0 -0.52615265045E+02 -0.10493476251E+02  0.53316718164E+03  0.53585979765E+03  0.00000000000E+00 0. -1.
</event>
<event>
 7    1  0.6140348E-006  0.1074696E+03  0.7818608E-02  0.1293387E+00
          2   -1    0    0  502    0  0.00000000000E+00  0.00000000000E+00  0.58795757747E+03  0.58795757747E+03  0.00000000000E+00 0. -1.
          1   -1    0    0  501    0 -0.00000000000E+00 -0.00000000000E+00 -0.51394218103E+03  0.51394218103E+03  0.00000000000E+00 0. -1.
         25    2    1    2    0    0  0.92115536423E+02  0.88750629869E+02 -0.14454072418E+03  0.22995208235E+03  0.12499597144E+03 0.  0.
          2    1    1    2  501    0 -0.80202334570E+02  0.18293553166E+02 -0.31606013038E+03  0.32659007115E+03  0.00000000000E+00 0. -1.
          1    1    1    2  502    0 -0.11913201853E+02 -0.10704418304E+03  0.53461625100E+03  0.54535760500E+03  0.00000000000E+00 0. -1.
         22    1    3    3    0    0  0.51478815591E+02  0.14317300120E+02  0.93475637513E+01  0.54244174668E+02  0.00000000000E+00 0. -1.
         22    1    3    3    0    0  0.40636720832E+02  0.74433329749E+02 -0.15388828793E+03  0.17570790768E+03  0.00000000000E+00 0. -1.
</event>
<event>
 7    1  0.6140348E-006  0.1079169E+03  0.7818608E-02  0.1343581E+00
          2   -1    0    0  502    0  0.00000000000E+00  0.00000000000E+00  0.73654170304E+03  0.73654170304E+03  0.00000000000E+00 0. -1.
          1   -1    0    0  501    0 -0.00000000000E+00 -0.00000000000E+00 -0.67703558641E+03  0.67703558641E+03  0.00000000000E+00 0. -1.
         25    2    1    2    0    0  0.40223170634E+02 -0.14268563703E+03  0.52879447317E+03  0.56322803186E+03  0.12500050617E+03 0.  0.
          2    1    1    2  501    0 -0.54946340947E+02  0.92549156302E+02 -0.65173737603E+03  0.66056495066E+03  0.00000000000E+00 0. -1.
          1    1    1    2  502    0  0.14723170313E+02  0.50136480729E+02  0.18244901949E+03  0.18978430693E+03  0.00000000000E+00 0. -1.
         22    1    3    3    0    0  0.15250108710E+02 -0.98957264449E+02  0.14539446344E+03  0.17653514098E+03  0.00000000000E+00 0.  1.
         22    1    3    3    0    0  0.24973061924E+02 -0.43728372582E+02  0.38340000974E+03  0.38669289088E+03  0.00000000000E+00 0.  1.
</event>
<event>
 7    1  0.6140348E-006  0.2214257E+03  0.7818608E-02  0.1213210E+00
          2   -1    0    0  502    0  0.00000000000E+00  0.00000000000E+00  0.34001937489E+03  0.34001937489E+03  0.00000000000E+00 0. -1.
          1   -1    0    0  501    0 -0.00000000000E+00 -0.00000000000E+00 -0.48496208517E+03  0.48496208517E+03  0.00000000000E+00 0. -1.
         25    2    1    2    0    0  0.94325016761E+01  0.16447527520E+03  0.16132841238E+02  0.20742290151E+03  0.12499161278E+03 0.  0.
          2    1    1    2  501    0  0.38471931297E+02 -0.23904224698E+03 -0.34028524368E+03  0.41763061718E+03  0.00000000000E+00 0. -1.
          1    1    1    2  502    0 -0.47904432973E+02  0.74566971780E+02  0.17920969216E+03  0.19992794137E+03  0.00000000000E+00 0. -1.
         22    1    3    3    0    0  0.13569856268E+02  0.66410203115E+02 -0.54104806876E+02  0.86728231874E+02  0.00000000000E+00 0.  1.
         22    1    3    3    0    0 -0.41373545922E+01  0.98065072082E+02  0.70237648114E+02  0.12069466963E+03  0.00000000000E+00 0.  1.
</event>
<event>
 7    1  0.6140348E-006  0.7880188E+02  0.7818608E-02  0.1431906E+00
          2   -1    0    0  502    0  0.00000000000E+00  0.00000000000E+00  0.12919470665E+04  0.12919470665E+04  0.00000000000E+00 0. -1.
          1   -1    0    0  501    0 -0.00000000000E+00 -0.00000000000E+00 -0.93700426848E+02  0.93700426848E+02  0.00000000000E+00 0. -1.
         25    2    1    2    0    0 -0.65428939769E+02 -0.27462767997E+02  0.45910075365E+03  0.48107535132E+03  0.12499936743E+03 0.  0.
          2    1    1    2  501    0  0.11261445490E+02 -0.33226014787E+02 -0.76877572612E+02  0.84504138264E+02  0.00000000000E+00 0. -1.
          1    1    1    2  502    0  0.54167494279E+02  0.60688782784E+02  0.81602345866E+03  0.82006800381E+03  0.00000000000E+00 0. -1.
         22    1    3    3    0    0 -0.72570803413E+02 -0.69816887367E+02  0.32915085578E+03  0.34421098927E+03  0.00000000000E+00 0.  1.
         22    1    3    3    0    0  0.71418636438E+01  0.42354119371E+02  0.12994989787E+03  0.13686436205E+03  0.00000000000E+00 0.  1.
</event>
<event>
 7    1  0.6140348E-006  0.8788109E+02  0.7818608E-02  0.1358083E+00
          2   -1    0    0  502    0  0.00000000000E+00  0.00000000000E+00  0.44535780155E+03  0.44535780155E+03  0.00000000000E+00 0. -1.
          1   -1    0    0  501    0 -0.00000000000E+00 -0.00000000000E+00 -0.93842166598E+03  0.93842166598E+03  0.00000000000E+00 0. -1.
         25    2    1    2    0    0  0.50266159774E+02 -0.55605640089E+02 -0.33171522889E+01  0.14578260594E+03  0.12499156238E+03 0.  0.
          2    1    1    2  501    0 -0.45219143346E+02 -0.34220395406E+02 -0.85751295236E+03  0.85938598421E+03  0.00000000000E+00 0. -1.
          1    1    1    2  502    0 -0.50470164285E+01  0.89826035495E+02  0.36776624022E+03  0.37861087739E+03  0.00000000000E+00 0. -1.
         22    1    3    3    0    0  0.32865068163E+02  0.35363246738E+02  0.16592083894E+02  0.51048694138E+02  0.00000000000E+00 0.  1.
         22    1    3    3    0    0  0.17401091611E+02 -0.90968886827E+02 -0.19909236183E+02  0.94733911802E+02  0.00000000000E+00 0.  1.
</event>
<event>
 7    1  0.6140348E-006  0.7392804E+02  0.7818608E-02  0.1380096E+00
          2   -1    0    0  502    0  0.00000000000E+00  0.00000000000E+00  0.56031430535E+03  0.56031430535E+03  0.00000000000E+00 0. -1.
          1   -1    0    0  501    0 -0.00000000000E+00 -0.00000000000E+00 -0.24552918759E+03  0.24552918759E+03  0.00000000000E+00 0. -1.
         25    2    1    2    0    0  0.30804853214E+02  0.88167329160E+02 -0.65895351049E+02  0.16938463661E+03  0.12500616352E+03 0.  0.
          2    1    1    2  501    0 -0.53282731248E+02 -0.17767829015E+02 -0.11886997804E+03  0.13147173414E+03  0.00000000000E+00 0. -1.
          1    1    1    2  502    0  0.22477878034E+02 -0.70399500145E+02  0.49955044686E+03  0.50498712219E+03  0.00000000000E+00 0. -1.
         22    1    3    3    0    0  0.63126566133E+02  0.10656255373E+01 -0.26899752996E+02  0.68627222156E+02  0.00000000000E+00 0. -1.
         22    1    3    3    0    0 -0.32321712920E+02  0.87101703623E+02 -0.38995598054E+02  0.10075741445E+03  0.00000000000E+00 0. -1.
</event>
<event>
 7    1  0.6140348E-006  0.6932574E+02  0.7818608E-02  0.1449570E+00
          2   -1    0    0  502    0  0.00000000000E+00  0.00000000000E+00  0.12484148549E+03  0.12484148549E+03  0.00000000000E+00 0. -1.
          1   -1    0    0  501    0 -0.00000000000E+00 -0.00000000000E+00 -0.41108833869E+04  0.41108833869E+04  0.00000000000E+00 0. -1.
         25    2    1    2    0    0 -0.17939031163E+02  0.10012914054E+03 -0.52769108775E+03  0.55175283246E+03  0.12500260164E+03 0.  0.
          2    1    1    2  501    0  0.33171257533E+01 -0.68383146894E+02 -0.35681179308E+04  0.35687746953E+04  0.00000000000E+00 0. -1.
          1    1    1    2  502    0  0.14621905409E+02 -0.31745993645E+02  0.10976711706E+03  0.11519734466E+03  0.00000000000E+00 0. -1.
         22    1    3    3    0    0 -0.80542889534E+01  0.15997406876E+02 -0.62362142932E+00  0.17921425753E+02  0.00000000000E+00 0. -1.
         22    1    3    3    0    0 -0.98847422092E+01  0.84131733662E+02 -0.52706746632E+03  0.53383140671E+03  0.00000000000E+00 0. -1.
</event>
<event>
 7    1  0.6140348E-006  0.6074296E+02  0.7818608E-02  0.1403415E+00
          2   -1    0    0  502    0  0.00000000000E+00  0.00000000000E+00  0.17006027061E+03  0.17006027061E+03  0.00000000000E+00 0. -1.
          1   -1    0    0  501    0 -0.00000000000E+00 -0.00000000000E+00 -0.11077899905E+04  0.11077899905E+04  0.00000000000E+00 0. -1.
         25    2    1    2    0    0  0.81460906590E+02  0.41736290263E+02 -0.18979974134E+03  0.24500329264E+03  0.12499949744E+03 0.  0.
          2    1    1    2  501    0 -0.55276819717E+02  0.12649176605E+02 -0.88304421211E+03  0.88486304534E+03  0.00000000000E+00 0. -1.
          1    1    1    2  502    0 -0.26184086872E+02 -0.54385466868E+02  0.13511423353E+03  0.14798392316E+03  0.00000000000E+00 0. -1.
         22    1    3    3    0    0  0.11121422791E+03  0.25290315451E+02 -0.11085777896E+03  0.15905235522E+03  0.00000000000E+00 0.  1.
         22    1    3    3    0    0 -0.29753321323E+02  0.16445974812E+02 -0.78941962388E+02  0.85950937417E+02  0.00000000000E+00 0.  1.
</event>
<event>
 7    1  0.6140348E-006  0.8858028E+02  0.7818608E-02  0.1455244E+00
          2   -1    0    0  502    0  0.00000000000E+00  0.00000000000E+00  0.17600336121E+03  0.17600336121E+03  0.00000000000E+00 0. -1.
          1   -1    0    0  501    0 -0.00000000000E+00 -0.00000000000E+00 -0.18672404932E+03  0.18672404932E+03  0.00000000000E+00 0. -1.
         25    2    1    2    0    0 -0.18795507597E+01  0.81172265601E+02 -0.88311029076E+02  0.17325243466E+03  0.12500039538E+03 0.  0.
          2    1    1    2  501    0 -0.25890237702E+02  0.42580610586E+01 -0.36069009983E+02  0.44602791095E+02  0.00000000000E+00 0. -1.
          1    1    1    2  502    0  0.27769788462E+02 -0.85430326660E+02  0.11365935095E+03  0.14487218478E+03  0.00000000000E+00 0. -1.
         22    1    3    3    0    0 -0.38053449036E+02  0.31134564222E+02  0.16283174820E+02  0.51793511708E+02  0.00000000000E+00 0. -1.
         22    1    3    3    0    0  0.36173898276E+02  0.50037701379E+02 -0.10459420390E+03  0.12145892295E+03  0.00000000000E+00 0. -1.
</event>
<event>
 7    1  0.6140348E-006  0.4638915E+02  0.7818608E-02  0.1499414E+00
          2   -1    0    0  502    0  0.00000000000E+00  0.00000000000E+00  0.72411084663E+03  0.72411084663E+03  0.00000000000E+00 0. -1.
          1   -1    0    0  501    0 -0.00000000000E+00 -0.00000000000E+00 -0.27485185721E+03  0.27485185721E+03  0.00000000000E+00 0. -1.
         25    2    1    2    0    0 -0.78593855218E+02  0.93171411232E+01  0.52332642248E+03  0.54383688810E+03  0.12499685274E+03 0.  0.
          2    1    1    2  501    0  0.42872031189E+02 -0.17416879985E+02 -0.26078024061E+03  0.26485409692E+03  0.00000000000E+00 0. -1.
          1    1    1    2  502    0  0.35721824029E+02  0.80997388615E+01  0.18671280755E+03  0.19027171882E+03  0.00000000000E+00 0. -1.
         22    1    3    3    0    0 -0.38760231487E+02 -0.36063621797E+02  0.42616355163E+03  0.42943953370E+03  0.00000000000E+00 0. -1.
         22    1    3    3    0    0 -0.39833623731E+02  0.45380762920E+02  0.97162870846E+02  0.11439735440E+03  0.00000000000E+00 0. -1.
</event>
<event>
 7    1  0.6140348E-006  0.6813115E+02  0.7818608E-02  0.1417246E+00
          2   -1    0    0  502    0  0.00000000000E+00  0.00000000000E+00  0.77403186191E+03  0.77403186191E+03  0.00000000000E+00 0. -1.
          1   -1    0    0  501    0 -0.00000000000E+00 -0.00000000000E+00 -0.34171632272E+03  0.34171632272E+03  0.00000000000E+00 0. -1.
         25    2    1    2    0    0  0.61022650091E+02 -0.18960896063E+02  0.17071766145E+03  0.22102757348E+03  0.12500155561E+03 0.  0.
          2    1    1    2  501    0 -0.37131565751E+02  0.57550296564E+02 -0.31194987265E+03  0.31937988799E+03  0.00000000000E+00 0. -1.
          1    1    1    2  502    0 -0.23891084340E+02 -0.38589400501E+02  0.57354775039E+03  0.57534072315E+03  0.00000000000E+00 0. -1.
         22    1    3    3    0    0  0.47719725491E+02 -0.64802372324E+02  0.59760457892E+02  0.10023887463E+03  0.00000000000E+00 0. -1.
         22    1    3    3    0    0  0.13302924600E+02  0.45841476261E+02  0.11095720356E+03  0.12078869885E+03  0.00000000000E+00 0. -1.
</event>
<event>
 7    1  0.6140348E-006  0.1249246E+03  0.7818608E-02  0.1279568E+00
          2   -1    0    0  502    0  0.00000000000E+00  0.00000000000E+00  0.29028233000E+04  0.29028233000E+04  0.00000000000E+00 0. -1.
          1   -1    0    0  501    0 -0.00000000000E+00 -0.00000000000E+00 -0.65827937447E+02  0.65827937447E+02  0.00000000000E+00 0. -1.
         25    2    1    2    0    0 -0.90554674428E+02 -0.34682710639E+02  0.30688941799E+03  0.34526701038E+03  0.12500061641E+03 0.  0.
          2    1    1    2  501    0  0.78061399983E+02  0.11431307622E+03  0.58194232618E+02  0.15015868364E+03  0.00000000000E+00 0. -1.
          1    1    1    2  502    0  0.12493274445E+02 -0.79630365580E+02  0.24719117120E+04  0.24732255434E+04  0.00000000000E+00 0. -1.
         22    1    3    3    0    0 -0.96360791340E+02 -0.43688651321E+02  0.12804218907E+03  0.16609907448E+03  0.00000000000E+00 0. -1.
         22    1    3    3    0    0  0.58061169122E+01  0.90059406820E+01  0.17884722892E+03  0.17916793589E+03  0.00000000000E+00 0. -1.
</event>
<event>
 7    1  0.6140348E-006  0.7839494E+02  0.7818608E-02  0.1418540E+00
          2   -1    0    0  502    0  0.00000000000E+00  0.00000000000E+00  0.21651478034E+04  0.21651478034E+04  0.00000000000E+00 0. -1.
          1   -1    0    0  501    0 -0.00000000000E+00 -0.00000000000E+00 -0.82963626144E+02  0.82963626144E+02  0.00000000000E+00 0. -1.
         25    2    1    2    0    0  0.49198007780E+02  0.12468124997E+02  0.57649496403E+02  0.14671164380E+03  0.12499977552E+03 0.  0.
          2    1    1    2  501    0  0.12262757410E+02  0.37077220282E+02 -0.27553130026E+02  0.47794042070E+02  0.00000000000E+00 0. -1.
          1    1    1    2  502    0 -0.61460765190E+02 -0.49545345279E+02  0.20520878109E+04  0.20536057437E+04  0.00000000000E+00 0. -1.
         22    1    3    3    0    0  0.90298447600E+02  0.16659780781E+02  0.50470358344E+02  0.10477888626E+03  0.00000000000E+00 0.  1.
         22    1    3    3    0    0 -0.41100439820E+02 -0.41916557843E+01  0.71791380595E+01  0.41932757540E+02  0.00000000000E+00 0.  1.
</event>
<event>
 7    1  0.6140348E-006  0.9854964E+02  0.7818608E-02  0.1296951E+00
          2   -1    0    0  502    0  0.00000000000E+00  0.00000000000E+00  0.29822305709E+04  0.29822305709E+04  0.00000000000E+00 0. -1.
          1   -1    0    0  501    0 -0.00000000000E+00 -0.00000000000E+00 -0.29493782885E+03  0.29493782885E+03  0.00000000000E+00 0. -1.
         25    2    1    2    0    0 -0.86071853040E+02  0.66532670627E+02  0.55462281250E+02  0.17473977783E+03  0.12499186041E+03 0.  0.
          2    1    1    2  501    0  0.80572803286E+02  0.32249349095E+02 -0.22641141208E+03  0.24247499802E+03  0.00000000000E+00 0. -1.
          1    1    1    2  502    0  0.54990497532E+01 -0.98782019722E+02  0.28582418729E+04  0.28599536239E+04  0.00000000000E+00 0. -1.
         22    1    3    3    0    0 -0.31756978857E+02  0.85244880748E+02 -0.52966821194E+01  0.91122172062E+02  0.00000000000E+00 0. -1.
         22    1    3    3    0    0 -0.54314874183E+02 -0.18712210121E+02  0.60758963370E+02  0.83617605771E+02  0.00000000000E+00 0. -1.
</event>
<event>
 7    1  0.6140348E-006  0.1077336E+03  0.7818608E-02  0.1402637E+00
          2   -1    0    0  502    0  0.00000000000E+00  0.00000000000E+00  0.14077599198E+04  0.14077599198E+04  0.00000000000E+00 0. -1.
          1   -1    0    0  501    0 -0.00000000000E+00 -0.00000000000E+00 -0.85262512719E+03  0.85262512719E+03  0.00000000000E+00 0. -1.
         25    2    1    2    0    0 -0.51231641651E+02  0.83856987085E+02 -0.70074578565E+02  0.17375920879E+03  0.12500056275E+03 0.  0.
          2    1    1    2  501    0  0.27262558615E+02 -0.10531178657E+03 -0.72646705344E+03  0.73456667446E+03  0.00000000000E+00 0. -1.
          1    1    1    2  502    0  0.23969083035E+02  0.21454799489E+02  0.13516764246E+04  0.13520591637E+04  0.00000000000E+00 0. -1.
         22    1    3    3    0    0 -0.29236003673E+02 -0.29029337815E+02 -0.46981631422E+01  0.41467084557E+02  0.00000000000E+00 0.  1.
         22    1    3    3    0    0 -0.21995637977E+02  0.11288632490E+03 -0.65376415423E+02  0.13229212423E+03  0.00000000000E+00 0.  1.
</event>
<event>
 7    1  0.6140348E-006  0.2182190E+03  0.7818608E-02  0.1227263E+00
          2   -1    0    0  502    0  0.00000000000E+00  0.00000000000E+00  0.13847088192E+04  0.13847088192E+04  0.00000000000E+00 0. -1.
          1   -1    0    0  501    0 -0.00000000000E+00 -0.00000000000E+00 -0.70141762360E+03  0.70141762360E+03  0.00000000000E+00 0. -1.
         25    2    1    2    0    0  0.29774454994E+02  0.22000688164E+03  0.24444409908E+03  0.35308028036E+03  0.12499288247E+03 0.  0.
          2    1    1    2  501    0  0.73174128284E+02 -0.25832639734E+02 -0.63358822101E+03  0.63832265519E+03  0.00000000000E+00 0. -1.
          1    1    1    2  502    0 -0.10294858328E+03 -0.19417424191E+03  0.10724353176E+04  0.10947235073E+04  0.00000000000E+00 0. -1.
         22    1    3    3    0    0  0.18978493456E+02  0.19202991162E+03  0.12496517306E+03  0.22989555160E+03  0.00000000000E+00 0.  1.
         22    1    3    3    0    0  0.10795961537E+02  0.27976970027E+02  0.11947892602E+03  0.12318472876E+03  0.00000000000E+00 0.  1.
</event>
<event>
 7    1  0.6140348E-006  0.1488891E+03  0.7818608E-02  0.1292799E+00
          2   -1    0    0  502    0  0.00000000000E+00  0.00000000000E+00  0.83953550783E+03  0.83953550783E+03  0.00000000000E+00 0. -1.
          1   -1    0    0  501    0 -0.00000000000E+00 -0.00000000000E+00 -0.38677493970E+03  0.38677493970E+03  0.00000000000E+00 0. -1.
         25    2    1    2    0    0 -0.37609248642E+02  0.14585014772E+03 -0.73568211168E+02  0.20910248299E+03  0.12499938210E+03 0.  0.
          2    1    1    2  501    0  0.91638673182E+02 -0.12044519522E+03 -0.22080471263E+03  0.26769275783E+03  0.00000000000E+00 0. -1.
          1    1    1    2  502    0 -0.54029424540E+02 -0.25404952504E+02  0.74713349193E+03  0.74951520671E+03  0.00000000000E+00 0. -1.
         22    1    3    3    0    0 -0.53911330240E+02  0.87887943769E+02  0.12716246500E+02  0.10388659737E+03  0.00000000000E+00 0.  1.
         22    1    3    3    0    0  0.16302081598E+02  0.57962203953E+02 -0.86284457669E+02  0.10521588562E+03  0.00000000000E+00 0.  1.
</event>
<event>
 7    1  0.6140348E-006  0.3141042E+02  0.7818608E-02  0.1611515E+00
          2   -1    0    0  502    0  0.00000000000E+00  0.00000000000E+00  0.57210809120E+02  0.57210809120E+02  0.00000000000E+00 0. -1.
          1   -1    0    0  501    0 -0.00000000000E+00 -0.00000000000E+00 -0.59967416549E+03  0.59967416549E+03  0.00000000000E+00 0. -1.
         25    2    1    2    0    0 -0.36730450740E+02 -0.73794674762E+01 -0.51131342989E+03  0.52770150406E+03  0.12499548494E+03 0.  0.
          2    1    1    2  501    0  0.18191038710E+02  0.26234205666E+02 -0.73002425573E+02  0.79677484748E+02  0.00000000000E+00 0. -1.
          1    1    1    2  502    0  0.18539412030E+02 -0.18854738189E+02  0.41852499085E+02  0.49505985803E+02  0.00000000000E+00 0. -1.
         22    1    3    3    0    0 -0.11948155938E+02 -0.63571183823E+02 -0.32969856473E+03  0.33598392436E+03  0.00000000000E+00 0.  1.
         22    1    3    3    0    0 -0.24782294802E+02  0.56191716347E+02 -0.18161486516E+03  0.19171757971E+03  0.00000000000E+00 0.  1.
</event>
<event>
 7    1  0.6140348E-006  0.9156949E+02  0.7818608E-02  0.1426030E+00
          2   -1    0    0  502    0  0.00000000000E+00  0.00000000000E+00  0.91847186157E+02  0.91847186157E+02  0.00000000000E+00 0. -1.
          1   -1    0    0  501    0 -0.00000000000E+00 -0.00000000000E+00 -0.29214600308E+04  0.29214600308E+04  0.00000000000E+00 0. -1.
         25    2    1    2    0    0 -0.73934380951E+02 -0.96043930893E+02 -0.13835012827E+04  0.13944143241E+04  0.12499911472E+03 0.  0.
          2    1    1    2  501    0  0.25048024514E+02  0.19213617267E+02 -0.15082932121E+04  0.15086235382E+04  0.00000000000E+00 0. -1.
          1    1    1    2  502    0  0.48886356437E+02  0.76830313626E+02  0.62181650163E+02  0.11026935456E+03  0.00000000000E+00 0. -1.
         22    1    3    3    0    0 -0.68637620631E+01 -0.54491014254E+02 -0.17674556661E+03  0.18508208228E+03  0.00000000000E+00 0.  1.
         22    1    3    3    0    0 -0.67070618888E+02 -0.41552916639E+02 -0.12067557161E+04  0.12093322418E+04  0.00000000000E+00 0.  1.
</event>
<event>
 7    1  0.6140348E-006  0.5016142E+02  0.7818608E-02  0.1535552E+00
          2   -1    0    0  502    0  0.00000000000E+00  0.00000000000E+00  0.21952174336E+04  0.21952174336E+04  0.00000000000E+00 0. -1.
          1   -1    0    0  501    0 -0.00000000000E+00 -0.00000000000E+00 -0.18010882082E+03  0.18010882082E+03  0.00000000000E+00 0. -1.
         25    2    1    2    0    0  0.26158890793E+02 -0.12322092438E+02  0.34460309562E+03  0.36771138164E+03  0.12499698055E+03 0.  0.
          2    1    1    2  501    0  0.24659186294E+02  0.99199540614E+01 -0.16715258864E+03  0.16925267751E+03  0.00000000000E+00 0. -1.
          1    1    1    2  502    0 -0.50818077088E+02  0.24021383770E+01  0.18376581058E+04  0.18383621953E+04  0.00000000000E+00 0. -1.
         22    1    3    3    0    0 -0.21156013886E+02 -0.22181118319E+02  0.30118845802E+03  0.30274422568E+03  0.00000000000E+00 0. -1.
         22    1    3    3    0    0  0.47314904680E+02  0.98590258805E+01  0.43414637597E+02  0.64967155962E+02  0.00000000000E+00 0. -1.
</event>
<event>
 7    1  0.6140348E-006  0.6176848E+02  0.7818608E-02  0.1456489E+00
          2   -1    0    0  502    0  0.00000000000E+00  0.00000000000E+00  0.33168506253E+03  0.33168506253E+03  0.00000000000E+00 0. -1.
          1   -1    0    0  501    0 -0.00000000000E+00 -0.00000000000E+00 -0.10752970989E+03  0.10752970989E+03  0.00000000000E+00 0. -1.
         25    2    1    2    0    0 -0.18769271122E+02  0.94470733350E+02  0.19176467382E+03  0.24835451211E+03  0.12501707308E+03 0.  0.
          2    1    1    2  501    0  0.53064568072E+01 -0.59699427804E+02 -0.63895845139E+02  0.87606273691E+02  0.00000000000E+00 0. -1.
          1    1    1    2  502    0  0.13462814315E+02 -0.34771305545E+02  0.96286523953E+02  0.10325398662E+03  0.00000000000E+00 0. -1.
         22    1    3    3    0    0 -0.54532702752E+02  0.16621358503E+02  0.13232317381E+03  0.14408160033E+03  0.00000000000E+00 0. -1.
         22    1    3    3    0    0  0.35763431630E+02  0.77849374847E+02  0.59441500013E+02  0.10427291177E+03  0.00000000000E+00 0. -1.
</event>
<event>
 7    1  0.6140348E-006  0.5630267E+02  0.7818608E-02  0.1421833E+00
          2   -1    0    0  502    0  0.00000000000E+00  0.00000000000E+00  0.40699371621E+03  0.40699371621E+03  0.00000000000E+00 0. -1.
          1   -1    0    0  501    0 -0.00000000000E+00 -0.00000000000E+00 -0.73022542876E+03  0.73022542876E+03  0.00000000000E+00 0. -1.
         25    2    1    2    0    0 -0.40881916977E+02  0.74409620751E+02 -0.29048829609E+03  0.32743909921E+03  0.12499916293E+03 0.  0.
          2    1    1    2  501    0  0.50311377570E+02 -0.22238408188E+02 -0.41764121728E+03  0.42124810727E+03  0.00000000000E+00 0. -1.
          1    1    1    2  502    0 -0.94294605930E+01 -0.52171212563E+02  0.38489780081E+03  0.38853193848E+03  0.00000000000E+00 0. -1.
         22    1    3    3    0    0 -0.63180160392E+02  0.84770531273E+01 -0.63329638621E+02  0.89856753919E+02  0.00000000000E+00 0. -1.
         22    1    3    3    0    0  0.22298243415E+02  0.65932567623E+02 -0.22715865747E+03  0.23758234529E+03  0.00000000000E+00 0. -1.
</event>
<event>
 7    1  0.6140348E-006  0.6541564E+02  0.7818608E-02  0.1490853E+00
          2   -1    0    0  502    0  0.00000000000E+00  0.00000000000E+00  0.15385093497E+03  0.15385093497E+03  0.00000000000E+00 0. -1.
          1   -1    0    0  501    0 -0.00000000000E+00 -0.00000000000E+00 -0.13287366061E+04  0.13287366061E+04  0.00000000000E+00 0. -1.
         25    2    1    2    0    0 -0.73192629692E+01  0.53761374599E+02 -0.40804064453E+03  0.43019295390E+03  0.12499981195E+03 0.  0.
          2    1    1    2  501    0 -0.27489615047E+02  0.19624188082E+01 -0.90183938857E+03  0.90226039080E+03  0.00000000000E+00 0. -1.
          1    1    1    2  502    0  0.34808878016E+02 -0.55723793407E+02  0.13499436200E+03  0.15013419634E+03  0.00000000000E+00 0. -1.
         22    1    3    3    0    0 -0.37358153405E+02  0.55315489177E+02 -0.97268906396E+02  0.11796895829E+03  0.00000000000E+00 0. -1.
         22    1    3    3    0    0  0.30038890436E+02 -0.15541145782E+01 -0.31077173814E+03  0.31222399561E+03  0.00000000000E+00 0. -1.
</event>
<event>
 7    1  0.6140348E-006  0.1399455E+03  0.7818608E-02  0.1263696E+00
          2   -1    0    0  502    0  0.00000000000E+00  0.00000000000E+00  0.12929625251E+04  0.12929625251E+04  0.00000000000E+00 0. -1.
          1   -1    0    0  501    0 -0.00000000000E+00 -0.00000000000E+00 -0.16946959431E+03  0.16946959431E+03  0.00000000000E+00 0. -1.
         25    2    1    2    0    0  0.56664868063E+02  0.31986105282E+02  0.28927600807E+03  0.32177589381E+03  0.12500039515E+03 0.  0.
          2    1    1    2  501    0 -0.13018555064E+03 -0.72315724051E+02 -0.11474241389E+03  0.18799910395E+03  0.00000000000E+00 0. -1.
          1    1    1    2  502    0  0.73520682577E+02  0.40329618769E+02  0.94895933665E+03  0.95265712170E+03  0.00000000000E+00 0. -1.
         22    1    3    3    0    0  0.22775311195E+02  0.44166387509E+02  0.26067133666E+02  0.56114882547E+02  0.00000000000E+00 0.  1.
         22    1    3    3    0    0  0.33889556867E+02 -0.12180282228E+02  0.26320887440E+03  0.26566101126E+03  0.00000000000E+00 0.  1.
</event>
<event>
 7    1  0.6140348E-006  0.1091700E+03  0.7818608E-02  0.1440820E+00
          2   -1    0    0  502    0  0.00000000000E+00  0.00000000000E+00  0.16214166950E+03  0.16214166950E+03  0.00000000000E+00 0. -1.
          1   -1    0    0  501    0 -0.00000000000E+00 -0.00000000000E+00 -0.18883306277E+04  0.18883306277E+04  0.00000000000E+00 0. -1.
         25    2    1    2    0    0  0.92136063957E+02 -0.90106472978E+01 -0.12577586591E+04  0.12673404708E+04  0.12499911312E+03 0.  0.
          2    1    1    2  501    0  0.17050992177E+02  0.16437040634E+02 -0.60649286195E+03  0.60695510891E+03  0.00000000000E+00 0. -1.
          1    1    1    2  502    0 -0.10918705613E+03 -0.74263933367E+01  0.13806256283E+03  0.17617671753E+03  0.00000000000E+00 0. -1.
         22    1    3    3    0    0 -0.38284302548E+01  0.31949136949E+02 -0.10377265870E+03  0.10864699224E+03  0.00000000000E+00 0. -1.
         22    1    3    3    0    0  0.95964494212E+02 -0.40959784247E+02 -0.11539860004E+04  0.11586934785E+04  0.00000000000E+00 0. -1.
</event>
<event>
 7    1  0.6140348E-006  0.2053881E+03  0.7818608E-02  0.1297366E+00
          2   -1    0    0  502    0  0.00000000000E+00  0.00000000000E+00  0.16604923981E+04  0.16604923981E+04  0.00000000000E+00 0. -1.
          1   -1    0    0  501    0 -0.00000000000E+00 -0.00000000000E+00 -0.33533220999E+03  0.33533220999E+03  0.00000000000E+00 0. -1.
         25    2    1    2    0    0  0.67122049089E+01  0.22757611704E+03  0.13066415970E+04  0.13322060458E+04  0.12499897096E+03 0.  0.
          2    1    1    2  501    0 -0.38739174076E+02 -0.20121146933E+03 -0.28847074986E+03  0.35383916194E+03  0.00000000000E+00 0. -1.
          1    1    1    2  502    0  0.32026969168E+02 -0.26364647713E+02  0.30698934101E+03  0.30977940037E+03  0.00000000000E+00 0. -1.
         22    1    3    3    0    0  0.28839320098E+02  0.14861803722E+02  0.69299094442E+02  0.76517606367E+02  0.00000000000E+00 0. -1.
         22    1    3    3    0    0 -0.22127115189E+02  0.21271431332E+03  0.12373425026E+04  0.12556884394E+04  0.00000000000E+00 0. -1.
</event>
<event>
 7    1  0.6140348E-006  0.9096480E+02  0.7818608E-02  0.1354665E+00
          2   -1    0    0  502    0  0.00000000000E+00  0.00000000000E+00  0.29290486576E+03  0.29290486576E+03  0.00000000000E+00 0. -1.
          1   -1    0    0  501    0 -0.00000000000E+00 -0.00000000000E+00 -0.48849236811E+03  0.48849236811E+03  0.00000000000E+00 0. -1.
         25    2    1    2    0    0  0.13141055573E+03 -0.61181077636E+02 -0.25762033845E+03  0.32094346522E+03  0.12499844266E+03 0.  0.
          2    1    1    2  501    0 -0.47149459406E+02  0.30933393348E+02 -0.18726347453E+03  0.19556982190E+03  0.00000000000E+00 0. -1.
          1    1    1    2  502    0 -0.84261096319E+02  0.30247684288E+02  0.24929631063E+03  0.26488394676E+03  0.00000000000E+00 0. -1.
         22    1    3    3    0    0  0.40430984213E+02 -0.87368103619E+02 -0.11872098680E+03  0.15284803800E+03  0.00000000000E+00 0. -1.
         22    1    3    3    0    0  0.90979571512E+02  0.26187025983E+02 -0.13889935164E+03  0.16809542721E+03  0.00000000000E+00 0. -1.
</event>
<event>
 7    1  0.6140348E-006  0.1076663E+03  0.7818608E-02  0.1355257E+00
          2   -1    0    0  502    0  0.00000000000E+00  0.00000000000E+00  0.72364700151E+03  0.72364700151E+03  0.00000000000E+00 0. -1.
          1   -1    0    0  501    0 -0.00000000000E+00 -0.00000000000E+00 -0.69390594371E+03  0.69390594371E+03  0.00000000000E+00 0. -1.
         25    2    1    2    0    0  0.11757521616E+03  0.65396141775E+02 -0.19354491772E+03  0.26680548975E+03  0.12499978948E+03 0.  0.
          2    1    1    2  501    0 -0.10216207187E+03 -0.20566235373E+02 -0.45704077447E+03  0.46877108325E+03  0.00000000000E+00 0. -1.
          1    1    1    2  502    0 -0.15413144292E+02 -0.44829906403E+02  0.68032674999E+03  0.68197637223E+03  0.00000000000E+00 0. -1.
         22    1    3    3    0    0  0.45238642758E+02  0.94477324800E+02 -0.12409536331E+03  0.16239507041E+03  0.00000000000E+00 0.  1.
         22    1    3    3    0    0  0.72336573406E+02 -0.29081183024E+02 -0.69449554413E+02  0.10441041934E+03  0.00000000000E+00 0.  1.
</event>
<event>
 7    1  0.6140348E-006  0.6685380E+02  0.7818608E-02  0.1445686E+00
          2   -1    0    0  502    0  0.00000000000E+00  0.00000000000E+00  0.38507893662E+04  0.38507893662E+04  0.00000000000E+00 0. -1.
          1   -1    0    0  501    0 -0.00000000000E+00 -0.00000000000E+00 -0.19676184700E+03  0.19676184700E+03  0.00000000000E+00 0. -1.
         25    2    1    2    0    0 -0.21018736571E+02 -0.22508310044E+02  0.23531709167E+02  0.13086903362E+03  0.12499820525E+03 0.  0.
          2    1    1    2  501    0 -0.33285405632E+02 -0.16832930056E+02 -0.14035931495E+03  0.14523086124E+03  0.00000000000E+00 0. -1.
          1    1    1    2  502    0  0.54304142203E+02  0.39341240100E+02  0.37708551249E+04  0.37714513183E+04  0.00000000000E+00 0. -1.
         22    1    3    3    0    0  0.11850268261E+02 -0.69957923505E+02  0.10996705088E+02  0.71801583839E+02  0.00000000000E+00 0.  1.
         22    1    3    3    0    0 -0.32869004832E+02  0.47449613461E+02  0.12535004079E+02  0.59067449780E+02  0.00000000000E+00 0.  1.
</event>
<event>
 7    1  0.6140348E-006  0.4558485E+02  0.7818608E-02  0.1516159E+00
          2   -1    0    0  502    0  0.00000000000E+00  0.00000000000E+00  0.10660149257E+04  0.10660149257E+04  0.00000000000E+00 0. -1.
          1   -1    0    0  501    0 -0.00000000000E+00 -0.00000000000E+00 -0.27800137423E+03  0.27800137423E+03  0.00000000000E+00 0. -1.
         25    2    1    2    0    0  0.33065694411E+01  0.73876954625E+02  0.14173615441E+03  0.20293620522E+03  0.12500091238E+03 0.  0.
          2    1    1    2  501    0  0.11106064809E+02 -0.43897370534E+02 -0.24501663214E+03  0.24916555509E+03  0.00000000000E+00 0. -1.
          1    1    1    2  502    0 -0.14412634251E+02 -0.29979584091E+02  0.89129402919E+03  0.89191453960E+03  0.00000000000E+00 0. -1.
         22    1    3    3    0    0  0.59876010063E+02  0.29453190796E+02  0.98626735971E+02  0.11907921766E+03  0.00000000000E+00 0.  1.
         22    1    3    3    0    0 -0.56569440622E+02  0.44423763830E+02  0.43109418440E+02  0.83856987564E+02  0.00000000000E+00 0.  1.
</event>
<event>
 7    1  0.6140348E-006  0.1434885E+03  0.7818608E-02  0.1301335E+00
          2   -1    0    0  502    0  0.00000000000E+00  0.00000000000E+00  0.16012489969E+04  0.16012489969E+04  0.00000000000E+00 0. -1.
          1   -1    0    0  501    0 -0.00000000000E+00 -0.00000000000E+00 -0.12386112597E+03  0.12386112597E+03  0.00000000000E+00 0. -1.
         25    2    1    2    0    0 -0.37099750337E+02  0.18210099981E+03  0.58091285182E+03  0.62259306482E+03  0.12500086938E+03 0.  0.
          2    1    1    2  501    0 -0.10644935160E+02 -0.56244284887E+02 -0.90130083300E+02  0.10677156055E+03  0.00000000000E+00 0. -1.
          1    1    1    2  502    0  0.47744685498E+02 -0.12585671492E+03  0.98660510241E+03  0.99574549750E+03  0.00000000000E+00 0. -1.
         22    1    3    3    0    0  0.36572491962E+02  0.11729509904E+03  0.27176916545E+03  0.29825185116E+03  0.00000000000E+00 0. -1.
         22    1    3    3    0    0 -0.73672242299E+02  0.64805900767E+02  0.30914368637E+03  0.32434121366E+03  0.00000000000E+00 0. -1.
</event>
<event>
 7    1  0.6140348E-006  0.1303219E+03  0.7818608E-02  0.1363780E+00
          2   -1    0    0  502    0  0.00000000000E+00  0.00000000000E+00  0.10011509129E+04  0.10011509129E+04  0.00000000000E+00 0. -1.
          1   -1    0    0  501    0 -0.00000000000E+00 -0.00000000000E+00 -0.24679352688E+03  0.24679352688E+03  0.00000000000E+00 0. -1.
         25    2    1    2    0    0 -0.56818620942E+02 -0.11717861870E+03 -0.32335033736E+02  0.18338379280E+03  0.12499950675E+03 0.  0.
          2    1    1    2  501    0 -0.30425643234E+02  0.20081631857E+02 -0.13184609854E+03  0.13679322134E+03  0.00000000000E+00 0. -1.
          1    1    1    2  502    0  0.87244264176E+02  0.97096986848E+02  0.91853851825E+03  0.92776742560E+03  0.00000000000E+00 0. -1.
         22    1    3    3    0    0 -0.17305194470E+02 -0.45730135460E+02 -0.76322837943E+02  0.90641550276E+02  0.00000000000E+00 0. -1.
         22    1    3    3    0    0 -0.39513426471E+02 -0.71448483244E+02  0.43987804207E+02  0.92742242524E+02  0.00000000000E+00 0. -1.
</event>
<event>
 7    1  0.6140348E-006  0.7450949E+02  0.7818608E-02  0.1483520E+00
          2   -1    0    0  502    0  0.00000000000E+00  0.00000000000E+00  0.15967101713E+03  0.15967101713E+03  0.00000000000E+00 0. -1.
          1   -1    0    0  501    0 -0.00000000000E+00 -0.00000000000E+00 -0.61894438483E+03  0.61894438483E+03  0.00000000000E+00 0. -1.
         25    2    1    2    0    0 -0.49247801967E+02 -0.32736187811E+02 -0.39509730461E+02  0.14381620818E+03  0.12500031577E+03 0.  0.
          2    1    1    2  501    0  0.48019236547E+02  0.58175712069E+02 -0.52302830674E+03  0.52844003463E+03  0.00000000000E+00 0. -1.
          1    1    1    2  502    0  0.12285654198E+01 -0.25439524258E+02  0.10326466950E+03  0.10635915915E+03  0.00000000000E+00 0. -1.
         22    1    3    3    0    0 -0.48462844602E+02 -0.77494157140E+02 -0.38116761688E+02  0.99029688575E+02  0.00000000000E+00 0. -1.
         22    1    3    3    0    0 -0.78495736480E+00  0.44757969328E+02 -0.13929687728E+01  0.44786519607E+02  0.00000000000E+00 0. -1.
</event>
<event>
 7    1  0.6140348E-006  0.5441981E+02  0.7818608E-02  0.1459321E+00
          2   -1    0    0  502    0  0.00000000000E+00  0.00000000000E+00  0.32995526259E+04  0.32995526259E+04  0.00000000000E+00 0. -1.
          1   -1    0    0  501    0 -0.00000000000E+00 -0.00000000000E+00 -0.54892802496E+02  0.54892802496E+02  0.00000000000E+00 0. -1.
         25    2    1    2    0    0 -0.74714359272E+02  0.42956984899E+02  0.56520481789E+03  0.58524363448E+03  0.12500434995E+03 0.  0.
          2    1    1    2  501    0  0.41450325204E+02 -0.75593118119E+00 -0.34975130823E+02  0.54239843911E+02  0.00000000000E+00 0. -1.
          1    1    1    2  502    0  0.33264034068E+02 -0.42201053718E+02  0.27144301364E+04  0.27149619500E+04  0.00000000000E+00 0. -1.
         22    1    3    3    0    0 -0.66802477512E+02  0.85479767847E+02  0.41328697981E+03  0.42728853179E+03  0.00000000000E+00 0. -1.
         22    1    3    3    0    0 -0.79118817598E+01 -0.42522782948E+02  0.15191783807E+03  0.15795510270E+03  0.00000000000E+00 0. -1.
</event>
<event>
 7    1  0.6140348E-006  0.6528442E+02  0.7818608E-02  0.1514410E+00
          2   -1    0    0  502    0  0.00000000000E+00  0.00000000000E+00  0.75915668533E+03  0.75915668533E+03  0.00000000000E+00 0. -1.
          1   -1    0    0  501    0 -0.00000000000E+00 -0.00000000000E+00 -0.71782826148E+02  0.71782826148E+02  0.00000000000E+00 0. -1.
         25    2    1    2    0    0 -0.42353368163E+02  0.75106599230E+02  0.10017406951E+03  0.18192066460E+03  0.12500189984E+03 0.  0.
          2    1    1    2  501    0  0.17550552354E+02 -0.15630067489E+02 -0.24490994450E+02  0.33943036204E+02  0.00000000000E+00 0. -1.
          1    1    1    2  502    0  0.24802815809E+02 -0.59476531741E+02  0.61169078412E+03  0.61507581068E+03  0.00000000000E+00 0. -1.
         22    1    3    3    0    0 -0.99969513544E+01  0.50653497080E+02 -0.19784538470E+02  0.55291443871E+02  0.00000000000E+00 0.  1.
         22    1    3    3    0    0 -0.32356416808E+02  0.24453102149E+02  0.11995860798E+03  0.12662922073E+03  0.00000000000E+00 0.  1.
</event>
<event>
 7    1  0.6140348E-006  0.2126404E+03  0.7818608E-02  0.1297451E+00
          2   -1    0    0  502    0  0.00000000000E+00  0.00000000000E+00  0.34920017861E+04  0.34920017861E+04  0.00000000000E+00 0. -1.
          1   -1    0    0  501    0 -0.00000000000E+00 -0.00000000000E+00 -0.20677447647E+03  0.20677447647E+03  0.00000000000E+00 0. -1.
         25    2    1    2    0    0 -0.20383407191E+03  0.38095147240E+02  0.32812879498E+03  0.40779194361E+03  0.12500477616E+03 0.  0.
          2    1    1    2  501    0 -0.95970412572E+01 -0.38869180073E+02 -0.16084061827E+03  0.16574866771E+03  0.00000000000E+00 0. -1.
          1    1    1    2  502    0  0.21343111317E+03  0.77403283259E+00  0.31179391329E+04  0.31252356513E+04  0.00000000000E+00 0. -1.
         22    1    3    3    0    0 -0.46943704595E+02 -0.38815891610E+02  0.13038714331E+03  0.14391383528E+03  0.00000000000E+00 0. -1.
         22    1    3    3    0    0 -0.15689036732E+03  0.76911038850E+02  0.19774165167E+03  0.26387810834E+03  0.00000000000E+00 0. -1.
</event>
<event>
 7    1  0.6140348E-006  0.9779517E+02  0.7818608E-02  0.1306365E+00
          2   -1    0    0  502    0  0.00000000000E+00  0.00000000000E+00  0.10211831280E+04  0.10211831280E+04  0.00000000000E+00 0. -1.
          1   -1    0    0  501    0 -0.00000000000E+00 -0.00000000000E+00 -0.11111985394E+03  0.11111985394E+03  0.00000000000E+00 0. -1.
         25    2    1    2    0    0 -0.67192031932E+01  0.33418998379E+02  0.64172098838E+02  0.14458587350E+03  0.12500015761E+03 0.  0.
          2    1    1    2  501    0 -0.87500606940E+02 -0.59620574071E+02 -0.27076188504E+02  0.10928901615E+03  0.00000000000E+00 0. -1.
          1    1    1    2  502    0  0.94219810133E+02  0.26201575692E+02  0.87296736372E+03  0.87842809228E+03  0.00000000000E+00 0. -1.
         22    1    3    3    0    0  0.20474638418E+02  0.17213565897E+02 -0.32946588050E+02  0.42438135367E+02  0.00000000000E+00 0.  1.
         22    1    3    3    0    0 -0.27193841612E+02  0.16205432482E+02  0.97118686888E+02  0.10214773814E+03  0.00000000000E+00 0.  1.
</event>
<event>
 7    1  0.6140348E-006  0.1039947E+03  0.7818608E-02  0.1361585E+00
          2   -1    0    0  502    0  0.00000000000E+00  0.00000000000E+00  0.36617388469E+03  0.36617388469E+03  0.00000000000E+00 0. -1.
          1   -1    0    0  501    0 -0.00000000000E+00 -0.00000000000E+00 -0.59566015695E+03  0.59566015695E+03  0.00000000000E+00 0. -1.
         25    2    1    2    0    0 -0.48957776089E+02 -0.72536248783E+02 -0.27736243637E+03  0.31656416148E+03  0.12499830398E+03 0.  0.
          2    1    1    2  501    0  0.34574986161E+02 -0.31140672932E+02 -0.28888954247E+03  0.29261295072E+03  0.00000000000E+00 0. -1.
          1    1    1    2  502    0  0.14382789928E+02  0.10367692172E+03  0.33676570659E+03  0.35265692943E+03  0.00000000000E+00 0. -1.
         22    1    3    3    0    0 -0.56830850745E+02 -0.26752898700E+02 -0.25917084152E+03  0.26667393626E+03  0.00000000000E+00 0.  1.
         22    1    3    3    0    0  0.78730746560E+01 -0.45783350084E+02 -0.18191594849E+02  0.49890225221E+02  0.00000000000E+00 0.  1.
</event>
<event>
 7    1  0.6140348E-006  0.1289697E+03  0.7818608E-02  0.1317322E+00
          2   -1    0    0  502    0  0.00000000000E+00  0.00000000000E+00  0.18792602747E+04  0.18792602747E+04  0.00000000000E+00 0. -1.
          1   -1    0    0  501    0 -0.00000000000E+00 -0.00000000000E+00 -0.15532514598E+03  0.15532514598E+03  0.00000000000E+00 0. -1.
         25    2    1    2    0    0  0.18876070440E+01  0.14609742416E+03 -0.30097110587E+02  0.19462473339E+03  0.12499972150E+03 0.  0.
          2    1    1    2  501    0  0.39350321988E+02 -0.10958663233E+03  0.37186069310E+02  0.12223126268E+03  0.00000000000E+00 0. -1.
          1    1    1    2  502    0 -0.41237929032E+02 -0.36510791836E+02  0.17168461700E+04  0.17177294246E+04  0.00000000000E+00 0. -1.
         22    1    3    3    0    0 -0.38731654950E+02  0.33821342730E+01  0.11458462194E+02  0.40532410282E+02  0.00000000000E+00 0. -1.
         22    1    3    3    0    0  0.40619261994E+02  0.14271528989E+03 -0.41555572781E+02  0.15409232311E+03  0.00000000000E+00 0. -1.
</event>
<event>
 7    1  0.6140348E-006  0.1010988E+03  0.7818608E-02  0.1446538E+00
          2   -1    0    0  502    0  0.00000000000E+00  0.00000000000E+00  0.72962588542E+03  0.72962588542E+03  0.00000000000E+00 0. -1.
          1   -1    0    0  501    0 -0.00000000000E+00 -0.00000000000E+00 -0.75921793359E+03  0.75921793359E+03  0.00000000000E+00 0. -1.
         25    2    1    2    0    0  0.23038455937E+02  0.77761565417E+02 -0.15144755687E+03  0.21245880298E+03  0.12499899588E+03 0.  0.
          2    1    1    2  501    0 -0.20670853225E+02 -0.10215705836E+03 -0.57234204757E+03  0.58175490386E+03  0.00000000000E+00 0. -1.
          1    1    1    2  502    0 -0.23676027128E+01  0.24395492946E+02  0.69419755627E+03  0.69463011218E+03  0.00000000000E+00 0. -1.
         22    1    3    3    0    0  0.16590759255E+01 -0.34554748426E+02 -0.38108144391E+02  0.51468571387E+02  0.00000000000E+00 0. -1.
         22    1    3    3    0    0  0.21379380012E+02  0.11231631384E+03 -0.11333941248E+03  0.16099023159E+03  0.00000000000E+00 0. -1.
</event>
<event>
 7    1  0.6140348E-006  0.4486455E+02  0.7818608E-02  0.1537227E+00
          2   -1    0    0  502    0  0.00000000000E+00  0.00000000000E+00  0.89151195111E+03  0.89151195111E+03  0.00000000000E+00 0. -1.
          1   -1    0    0  501    0 -0.00000000000E+00 -0.00000000000E+00 -0.13767905174E+03  0.13767905174E+03  0.00000000000E+00 0. -1.
         25    2    1    2    0    0  0.16200808341E+02  0.30752624757E+02  0.22159245004E+03  0.25678254314E+03  0.12500348166E+03 0.  0.
          2    1    1    2  501    0 -0.25904857607E+02  0.13890548328E+02 -0.11747102136E+03  0.12109273240E+03  0.00000000000E+00 0. -1.
          1    1    1    2  502    0  0.97040492665E+01 -0.44643173085E+02  0.64971147070E+03  0.65131572730E+03  0.00000000000E+00 0. -1.
         22    1    3    3    0    0  0.41524422477E+02 -0.33499743711E+02  0.55906112113E+02  0.77278741335E+02  0.00000000000E+00 0.  1.
         22    1    3    3    0    0 -0.25323614136E+02  0.64252368468E+02  0.16568633793E+03  0.17950380181E+03  0.00000000000E+00 0.  1.
</event>
<event>
 7    1  0.6140348E-006  0.8758673E+02  0.7818608E-02  0.1326702E+00
          2   -1    0    0  502    0  0.00000000000E+00  0.00000000000E+00  0.34538944290E+03  0.34538944290E+03  0.00000000000E+00 0. -1.
          1   -1    0    0  501    0 -0.00000000000E+00 -0.00000000000E+00 -0.99780216125E+03  0.99780216125E+03  0.00000000000E+00 0. -1.
         25    2    1    2    0    0 -0.61026337394E+02  0.10860745399E+03  0.53865553203E+02  0.18451671284E+03  0.12500050630E+03 0.  0.
          2    1    1    2  501    0  0.70749999402E+02 -0.23660991498E+02 -0.92283752963E+03  0.92584799564E+03  0.00000000000E+00 0. -1.
          1    1    1    2  502    0 -0.97236620077E+01 -0.84946462495E+02  0.21655925808E+03  0.23282689568E+03  0.00000000000E+00 0. -1.
         22    1    3    3    0    0  0.31543279809E+02  0.48397834826E+02  0.45931676518E+02  0.73804117939E+02  0.00000000000E+00 0. -1.
         22    1    3    3    0    0 -0.92569617203E+02  0.60209619167E+02  0.79338766855E+01  0.11071259490E+03  0.00000000000E+00 0. -1.
</event>
<event>
 7    1  0.6140348E-006  0.4778019E+02  0.7818608E-02  0.1526567E+00
          2   -1    0    0  502    0  0.00000000000E+00  0.00000000000E+00  0.51449733316E+03  0.51449733316E+03  0.00000000000E+00 0. -1.
          1   -1    0    0  501    0 -0.00000000000E+00 -0.00000000000E+00 -0.38535976942E+02  0.38535976942E+02  0.00000000000E+00 0. -1.
         25    2    1    2    0    0 -0.50722292334E+00 -0.66582219423E+02  0.28161042280E+03  0.31521968662E+03  0.12500228552E+03 0.  0.
          2    1    1    2  501    0 -0.17520713612E+02  0.43098127765E+02  0.57202368113E+01  0.46873714718E+02  0.00000000000E+00 0. -1.
          1    1    1    2  502    0  0.18027936535E+02  0.23484091658E+02  0.18863069661E+03  0.19093990877E+03  0.00000000000E+00 0. -1.
         22    1    3    3    0    0  0.31016107001E+01 -0.78321593534E+02  0.28996071689E+03  0.30036828951E+03  0.00000000000E+00 0. -1.
         22    1    3    3    0    0 -0.36088336235E+01  0.11739374112E+02 -0.83502940924E+01  0.14851397109E+02  0.00000000000E+00 0. -1.
</event>
<event>
 7    1  0.6140348E-006  0.1767579E+03  0.7818608E-02  0.1178669E+00
          2   -1    0    0  502    0  0.00000000000E+00  0.00000000000E+00  0.15720673399E+04  0.15720673399E+04  0.00000000000E+00 0. -1.
          1   -1    0    0  501    0 -0.00000000000E+00 -0.00000000000E+00 -0.25599616012E+03  0.25599616012E+03  0.00000000000E+00 0. -1.
         25    2    1    2    0    0  0.67600996457E+02  0.47505339701E+01  0.22043930347E+03  0.26231866017E+03  0.12500052265E+03 0.  0.
          2    1    1    2  501    0  0.15948904088E+03  0.28377790027E+02 -0.19577437561E+03  0.25410560653E+03  0.00000000000E+00 0. -1.
          1    1    1    2  502    0 -0.22709003733E+03 -0.33128323997E+02  0.12914062519E+04  0.13116392333E+04  0.00000000000E+00 0. -1.
         22    1    3    3    0    0  0.29171621871E+02  0.40094216158E+02  0.20032001145E+03  0.20636529912E+03  0.00000000000E+00 0.  1.
         22    1    3    3    0    0  0.38429374586E+02 -0.35343682188E+02  0.20119292021E+02  0.55953361053E+02  0.00000000000E+00 0.  1.
</event>
<event>
 7    1  0.6140348E-006  0.7628155E+02  0.7818608E-02  0.1412934E+00
          2   -1    0    0  502    0  0.00000000000E+00  0.00000000000E+00  0.33878409800E+02  0.33878409800E+02  0.00000000000E+00 0. -1.
          1   -1    0    0  501    0 -0.00000000000E+00 -0.00000000000E+00 -0.68540376277E+03  0.68540376277E+03  0.00000000000E+00 0. -1.
         25    2    1    2    0    0  0.65787078127E+02  0.77552385604E+02 -0.30603214294E+03  0.34587125025E+03  0.12501574731E+03 0.  0.
          2    1    1    2  501    0 -0.39891461106E+02 -0.12862810753E+02 -0.25886563359E+03  0.26223690973E+03  0.00000000000E+00 0. -1.
          1    1    1    2  502    0 -0.25895617021E+02 -0.64689574851E+02 -0.86627576433E+02  0.11117401258E+03  0.00000000000E+00 0. -1.
         22    1    3    3    0    0  0.55306422732E+01  0.74376815737E+02 -0.70133602480E+02  0.10237783412E+03  0.00000000000E+00 0. -1.
         22    1    3    3    0    0  0.60256435854E+02  0.31755698667E+01 -0.23589854046E+03  0.24349341613E+03  0.00000000000E+00 0. -1.
</event>
<event>
 7    1  0.6140348E-006  0.4729949E+03  0.7818608E-02  0.1143712E+00
          2   -1    0    0  502    0  0.00000000000E+00  0.00000000000E+00  0.12205459854E+04  0.12205459854E+04  0.00000000000E+00 0. -1.
          1   -1    0    0  501    0 -0.00000000000E+00 -0.00000000000E+00 -0.12950088784E+04  0.12950088784E+04  0.00000000000E+00 0. -1.
         25    2    1    2    0    0  0.72764027492E+02 -0.39306518563E+03 -0.15093061937E+03  0.44519572052E+03  0.12499733539E+03 0.  0.
          2    1    1    2  501    0 -0.12933849205E+02 -0.89939043505E+02 -0.93947277203E+03  0.94385666570E+03  0.00000000000E+00 0. -1.
          1    1    1    2  502    0 -0.59830178287E+02  0.48300422914E+03  0.10159404985E+04  0.11265024776E+04  0.00000000000E+00 0. -1.
         22    1    3    3    0    0 -0.13928577206E+02 -0.11013748147E+03  0.41840728804E+01  0.11109354866E+03  0.00000000000E+00 0. -1.
         22    1    3    3    0    0  0.86692604697E+02 -0.28292770416E+03 -0.15511469225E+03  0.33410217186E+03  0.00000000000E+00 0. -1.
</event>
<event>
 7    1  0.6140348E-006  0.5673496E+02  0.7818608E-02  0.1447862E+00
          2   -1    0    0  502    0  0.00000000000E+00  0.00000000000E+00  0.50413057929E+03  0.50413057929E+03  0.00000000000E+00 0. -1.
          1   -1    0    0  501    0 -0.00000000000E+00 -0.00000000000E+00 -0.11098439394E+04  0.11098439394E+04  0.00000000000E+00 0. -1.
         25    2    1    2    0    0  0.19953682962E+02  0.82353654020E+02 -0.52174872437E+02  0.15977278919E+03  0.12499941223E+03 0.  0.
          2    1    1    2  501    0  0.17039765305E+02 -0.39751737806E+02 -0.10016343426E+04  0.10025676589E+04  0.00000000000E+00 0. -1.
          1    1    1    2  502    0 -0.36993448266E+02 -0.42601916214E+02  0.44809585499E+03  0.45163407061E+03  0.00000000000E+00 0. -1.
         22    1    3    3    0    0 -0.25415122965E+02  0.89584353033E+02 -0.63182108925E+02  0.11253116756E+03  0.00000000000E+00 0. -1.
         22    1    3    3    0    0  0.45368805927E+02 -0.72306990131E+01  0.11007236488E+02  0.47241621633E+02  0.00000000000E+00 0. -1.
</event>
<event>
 7    1  0.6140348E-006  0.5743539E+02  0.7818608E-02  0.1453753E+00
          2   -1    0    0  502    0  0.00000000000E+00  0.00000000000E+00  0.10044909495E+03  0.10044909495E+03  0.00000000000E+00 0. -1.
          1   -1    0    0  501    0 -0.00000000000E+00 -0.00000000000E+00 -0.59613330155E+03  0.59613330155E+03  0.00000000000E+00 0. -1.
         25    2    1    2    0    0  0.40167382628E+02 -0.86881832403E+02 -0.67445597669E+02  0.17127387154E+03  0.12499583593E+03 0.  0.
          2    1    1    2  501    0 -0.15947409335E+02  0.53911828996E+02 -0.46615297499E+03  0.46953104398E+03  0.00000000000E+00 0. -1.
          1    1    1    2  502    0 -0.24219973293E+02  0.32970003406E+02  0.37914366054E+02  0.55777480978E+02  0.00000000000E+00 0. -1.
         22    1    3    3    0    0 -0.47554578866E+01 -0.82338778158E+02 -0.88915242609E+02  0.12127740571E+03  0.00000000000E+00 0.  1.
         22    1    3    3    0    0  0.44922840514E+02 -0.45430542442E+01  0.21469644940E+02  0.49996465831E+02  0.00000000000E+00 0.  1.
</event>
<event>
 7    1  0.6140348E-006  0.5957954E+02  0.7818608E-02  0.1432719E+00
          2   -1    0    0  502    0  0.00000000000E+00  0.00000000000E+00  0.81711010079E+02  0.81711010079E+02  0.00000000000E+00 0. -1.
          1   -1    0    0  501    0 -0.00000000000E+00 -0.00000000000E+00 -0.29716762920E+03  0.29716762920E+03  0.00000000000E+00 0. -1.
         25    2    1    2    0    0 -0.24006421822E+02  0.42810732333E+02 -0.58972851256E+02  0.14666792566E+03  0.12499846455E+03 0.  0.
          2    1    1    2  501    0  0.60859218385E+02 -0.15085668296E+02 -0.17238108633E+03  0.18343026134E+03  0.00000000000E+00 0. -1.
          1    1    1    2  502    0 -0.36852796563E+02 -0.27725064037E+02  0.15897318468E+02  0.48780452282E+02  0.00000000000E+00 0. -1.
         22    1    3    3    0    0 -0.33533257773E+02 -0.33257408326E+02 -0.51131136847E+02  0.69605515160E+02  0.00000000000E+00 0. -1.
         22    1    3    3    0    0  0.95268359508E+01  0.76068140659E+02 -0.78417144093E+01  0.77062410496E+02  0.00000000000E+00 0. -1.
</event>
<event>
 7    1  0.6140348E-006  0.1525424E+03  0.7818608E-02  0.1350534E+00
          2   -1    0    0  502    0  0.00000000000E+00  0.00000000000E+00  0.68182854162E+03  0.68182854162E+03  0.00000000000E+00 0. -1.
          1   -1    0    0  501    0 -0.00000000000E+00 -0.00000000000E+00 -0.65106462000E+03  0.65106462000E+03  0.00000000000E+00 0. -1.
         25    2    1    2    0    0  0.49085904436E+02 -0.12712858085E+03  0.10257343350E+03  0.21146500284E+03  0.12500014433E+03 0.  0.
          2    1    1    2  501    0  0.34435876029E+02 -0.52165316832E+01 -0.58442217843E+03  0.58545907150E+03  0.00000000000E+00 0. -1.
          1    1    1    2  502    0 -0.83521780465E+02  0.13234511253E+03  0.51261266655E+03  0.53596908729E+03  0.00000000000E+00 0. -1.
         22    1    3    3    0    0 -0.22149387894E+02 -0.94117263068E+02  0.22396529843E+02  0.99248471728E+02  0.00000000000E+00 0. -1.
         22    1    3    3    0    0  0.71235292330E+02 -0.33011317783E+02  0.80176903657E+02  0.11221653111E+03  0.00000000000E+00 0. -1.
</event>
<event>
 7    1  0.6140348E-006  0.1306280E+03  0.7818608E-02  0.1254515E+00
          2   -1    0    0  502    0  0.00000000000E+00  0.00000000000E+00  0.15627822055E+04  0.15627822055E+04  0.00000000000E+00 0. -1.
          1   -1    0    0  501    0 -0.00000000000E+00 -0.00000000000E+00 -0.32044612169E+03  0.32044612169E+03  0.00000000000E+00 0. -1.
         25    2    1    2    0    0 -0.36954034777E+02  0.46998464339E+02  0.95834752681E+02  0.16847333730E+03  0.12499803688E+03 0.  0.
          2    1    1    2  501    0  0.36464731054E+02  0.91321109115E+02 -0.27215343921E+03  0.28937297050E+03  0.00000000000E+00 0. -1.
          1    1    1    2  502    0  0.48930372315E+00 -0.13831957345E+03  0.14186547703E+04  0.14253820194E+04  0.00000000000E+00 0. -1.
         22    1    3    3    0    0 -0.61191537874E+02  0.73989274079E+02  0.45037417791E+02  0.10605275097E+03  0.00000000000E+00 0.  1.
         22    1    3    3    0    0  0.24237503097E+02 -0.26990809740E+02  0.50797334890E+02  0.62420586337E+02  0.00000000000E+00 0.  1.
</event>
<event>
 7    1  0.6140348E-006  0.9086267E+02  0.7818608E-02  0.1352214E+00
          2   -1    0    0  502    0  0.00000000000E+00  0.00000000000E+00  0.36662449569E+03  0.36662449569E+03  0.00000000000E+00 0. -1.
          1   -1    0    0  501    0 -0.00000000000E+00 -0.00000000000E+00 -0.19840113040E+03  0.19840113040E+03  0.00000000000E+00 0. -1.
         25    2    1    2    0    0 -0.71912889338E+02 -0.21650561467E+02 -0.72014506233E+02  0.16263287241E+03  0.12499260625E+03 0.  0.
          2    1    1    2  501    0  0.10680962189E+03 -0.24226392428E+02 -0.39765304869E+02  0.11651820841E+03  0.00000000000E+00 0. -1.
          1    1    1    2  502    0 -0.34896732556E+02  0.45876953895E+02  0.28000317639E+03  0.28587454527E+03  0.00000000000E+00 0. -1.
         22    1    3    3    0    0 -0.78030246381E+02 -0.50418023603E+02 -0.89013690657E+02  0.12866286791E+03  0.00000000000E+00 0. -1.
         22    1    3    3    0    0  0.61173570422E+01  0.28767462136E+02  0.16999184424E+02  0.33970004504E+02  0.00000000000E+00 0. -1.
</event>
<event>
 7    1  0.6770243E-006  0.8973653E+02  0.7818608E-02  0.1343239E+00
          2   -1    0    0  502    0  0.00000000000E+00  0.00000000000E+00  0.78134687524E+03  0.78134687524E+03  0.00000000000E+00 0. -1.
          1   -1    0    0  501    0 -0.00000000000E+00 -0.00000000000E+00 -0.10615742128E+04  0.10615742128E+04  0.00000000000E+00 0. -1.
         25    2    1    2    0    0 -0.13767703384E+03  0.41552412704E+01 -0.15036100142E+03  0.23917692399E+03  0.12499975416E+03 0.  0.
          2    1    1    2  501    0  0.55345324682E+02  0.30151644863E+02 -0.86295297590E+03  0.86525144627E+03  0.00000000000E+00 0. -1.
          1    1    1    2  502    0  0.82331709163E+02 -0.34306886133E+02  0.73308663978E+03  0.73849271777E+03  0.00000000000E+00 0. -1.
         22    1    3    3    0    0  0.76688202720E+01 -0.77542044914E+01 -0.73546298475E+02  0.74350497718E+02  0.00000000000E+00 0. -1.
         22    1    3    3    0    0 -0.14534585412E+03  0.11909445762E+02 -0.76814702948E+02  0.16482642627E+03  0.00000000000E+00 0. -1.
</event>
<event>
 7    1  0.6140348E-006  0.1694637E+03  0.7818608E-02  0.1199211E+00
          2   -1    0    0  502    0  0.00000000000E+00  0.00000000000E+00  0.11824509405E+03  0.11824509405E+03  0.00000000000E+00 0. -1.
          1   -1    0    0  501    0 -0.00000000000E+00 -0.00000000000E+00 -0.10427714801E+04  0.10427714801E+04  0.00000000000E+00 0. -1.
         25    2    1    2    0    0  0.42529993581E+02  0.68959755681E+01 -0.15224968544E+03  0.20165019394E+03  0.12500591653E+03 0.  0.
          2    1    1    2  501    0  0.10232798415E+03  0.13508117088E+03 -0.73354867762E+03  0.75286891389E+03  0.00000000000E+00 0. -1.
          1    1    1    2  502    0 -0.14485797773E+03 -0.14197714645E+03 -0.38728022969E+02  0.20649746630E+03  0.00000000000E+00 0. -1.
         22    1    3    3    0    0 -0.40579887181E+01  0.15167925839E+02 -0.15351574161E+03  0.15431661015E+03  0.00000000000E+00 0.  1.
         22    1    3    3    0    0  0.46587982299E+02 -0.82719502712E+01  0.12660561729E+01  0.47333583788E+02  0.00000000000E+00 0.  1.
</event>
<event>
 7    1  0.6140348E-006  0.1920888E+03  0.7818608E-02  0.1206117E+00
          2   -1    0    0  502    0  0.00000000000E+00  0.00000000000E+00  0.28057771575E+04  0.28057771575E+04  0.00000000000E+00 0. -1.
          1   -1    0    0  501    0 -0.00000000000E+00 -0.00000000000E+00 -0.20276666394E+04  0.20276666394E+04  0.00000000000E+00 0. -1.
         25    2    1    2    0    0 -0.20110331343E+02  0.21803658654E+03 -0.24502916440E+03  0.35158035610E+03  0.12500030755E+03 0.  0.
          2    1    1    2  501    0  0.10111550434E+03 -0.43832383428E+02 -0.17242482184E+04  0.17277666341E+04  0.00000000000E+00 0. -1.
          1    1    1    2  502    0 -0.81005172995E+02 -0.17420420311E+03  0.27473879009E+04  0.27540968067E+04  0.00000000000E+00 0. -1.
         22    1    3    3    0    0 -0.18362899007E+02 -0.37377599279E+01 -0.59655800427E+02  0.62529844346E+02  0.00000000000E+00 0.  1.
         22    1    3    3    0    0 -0.17474323357E+01  0.22177434647E+03 -0.18537336397E+03  0.28905051175E+03  0.00000000000E+00 0.  1.
</event>
<event>
 7    1  0.6140348E-006  0.6034499E+02  0.7818608E-02  0.1547123E+00
          2   -1    0    0  502    0  0.00000000000E+00  0.00000000000E+00  0.68146257145E+03  0.68146257145E+03  0.00000000000E+00 0. -1.
          1   -1    0    0  501    0 -0.00000000000E+00 -0.00000000000E+00 -0.15801119988E+03  0.15801119988E+03  0.00000000000E+00 0. -1.
         25    2    1    2    0    0 -0.53423422716E+02 -0.59688485431E+02  0.13366433085E+02  0.14906852515E+03  0.12500394502E+03 0.  0.
          2    1    1    2  501    0  0.15769799107E+02  0.13088837975E+02 -0.87477976745E+02  0.89846539493E+02  0.00000000000E+00 0. -1.
          1    1    1    2  502    0  0.37653623609E+02  0.46599647456E+02  0.59756291524E+03  0.60055870669E+03  0.00000000000E+00 0. -1.
         22    1    3    3    0    0 -0.37766691485E+02 -0.52305310442E+02 -0.51111322072E+02  0.82307567879E+02  0.00000000000E+00 0. -1.
         22    1    3    3    0    0 -0.15656731231E+02 -0.73831749892E+01  0.64477755157E+02  0.66760957272E+02  0.00000000000E+00 0. -1.
</event>
<event>
 7    1  0.6140348E-006  0.1144131E+03  0.7818608E-02  0.1356400E+00
          2   -1    0    0  502    0  0.00000000000E+00  0.00000000000E+00  0.58612885895E+03  0.58612885895E+03  0.00000000000E+00 0. -1.
          1   -1    0    0  501    0 -0.00000000000E+00 -0.00000000000E+00 -0.70177183948E+03  0.70177183948E+03  0.00000000000E+00 0. -1.
         25    2    1    2    0    0  0.48259982339E+02 -0.95765650756E+02 -0.16583487951E+03  0.23371780569E+03  0.12499087836E+03 0.  0.
          2    1    1    2  501    0 -0.39979308221E+02 -0.18803956236E+02 -0.49502715693E+03  0.49699478866E+03  0.00000000000E+00 0. -1.
          1    1    1    2  502    0 -0.82806741179E+01  0.11456960699E+03  0.54521905590E+03  0.55718810408E+03  0.00000000000E+00 0. -1.
         22    1    3    3    0    0  0.23430206330E+02 -0.11394025367E+03 -0.16629724912E+03  0.20294366470E+03  0.00000000000E+00 0. -1.
         22    1    3    3    0    0  0.24829776009E+02  0.18174602918E+02  0.46236961504E+00  0.30774140988E+02  0.00000000000E+00 0. -1.
</event>
<event>
 7    1  0.6140348E-006  0.1128733E+03  0.7818608E-02  0.1407447E+00
          2   -1    0    0  502    0  0.00000000000E+00  0.00000000000E+00  0.91394778175E+02  0.91394778175E+02  0.00000000000E+00 0. -1.
          1   -1    0    0  501    0 -0.00000000000E+00 -0.00000000000E+00 -0.10247005599E+04  0.10247005599E+04  0.00000000000E+00 0. -1.
         25    2    1    2    0    0  0.10595492460E+03  0.19474952263E+02 -0.29024957933E+03  0.33387965549E+03  0.12500034494E+03 0.  0.
          2    1    1    2  501    0 -0.28324946107E+01  0.29428849956E+02 -0.66528400990E+03  0.66594060851E+03  0.00000000000E+00 0. -1.
          1    1    1    2  502    0 -0.10312242999E+03 -0.48903802219E+02  0.22227807459E+02  0.11627507412E+03  0.00000000000E+00 0. -1.
         22    1    3    3    0    0  0.45182251025E+02  0.62899575072E+02 -0.82708956510E+02  0.11330738651E+03  0.00000000000E+00 0. -1.
         22    1    3    3    0    0  0.60772673573E+02 -0.43424622809E+02 -0.20754062282E+03  0.22057226897E+03  0.00000000000E+00 0. -1.
</event>
<event>
 7    1  0.6140348E-006  0.9151708E+02  0.7818608E-02  0.1399340E+00
          2   -1    0    0  502    0  0.00000000000E+00  0.00000000000E+00  0.26757753648E+04  0.26757753648E+04  0.00000000000E+00 0. -1.
          1   -1    0    0  501    0 -0.00000000000E+00 -0.00000000000E+00 -0.53657296741E+02  0.53657296741E+02  0.00000000000E+00 0. -1.
         25    2    1    2    0    0 -0.20515470644E+02  0.54727573663E+02  0.33131593005E+03  0.35890321219E+03  0.12500111342E+03 0.  0.
          2    1    1    2  501    0  0.30950404496E+02 -0.92169603777E+02  0.19835356265E+02  0.99230059745E+02  0.00000000000E+00 0. -1.
          1    1    1    2  502    0 -0.10434933852E+02  0.37442030114E+02  0.22709667817E+04  0.22712993896E+04  0.00000000000E+00 0. -1.
         22    1    3    3    0    0  0.46861511980E+02  0.51341305877E+01  0.68978731220E+02  0.83548943516E+02  0.00000000000E+00 0. -1.
         22    1    3    3    0    0 -0.67376982624E+02  0.49593443075E+02  0.26233719883E+03  0.27535426867E+03  0.00000000000E+00 0. -1.
</event>
<event>
 7    1  0.6140348E-006  0.9942582E+02  0.7818608E-02  0.1452205E+00
          2   -1    0    0  502    0  0.00000000000E+00  0.00000000000E+00  0.71797595068E+03  0.71797595068E+03  0.00000000000E+00 0. -1.
          1   -1    0    0  501    0 -0.00000000000E+00 -0.00000000000E+00 -0.79982889985E+03  0.79982889985E+03  0.00000000000E+00 0. -1.
         25    2    1    2    0    0 -0.57461777047E+02  0.54151194402E+02  0.29843756305E+03  0.33305298399E+03  0.12500041370E+03 0.  0.
          2    1    1    2  501    0  0.62640388953E+02 -0.77485839918E+02 -0.77899005853E+03  0.78533647885E+03  0.00000000000E+00 0. -1.
          1    1    1    2  502    0 -0.51786119062E+01  0.23334645517E+02  0.39869954631E+03  0.39941538770E+03  0.00000000000E+00 0. -1.
         22    1    3    3    0    0 -0.53355463057E+02 -0.12008151193E+02  0.44205962206E+02  0.70321890103E+02  0.00000000000E+00 0. -1.
         22    1    3    3    0    0 -0.41063139899E+01  0.66159345595E+02  0.25423160085E+03  0.26273109388E+03  0.00000000000E+00 0. -1.
</event>
<event>
 7    1  0.6140348E-006  0.1069862E+03  0.7818608E-02  0.1358765E+00
          2   -1    0    0  502    0  0.00000000000E+00  0.00000000000E+00  0.12882244268E+04  0.12882244268E+04  0.00000000000E+00 0. -1.
          1   -1    0    0  501    0 -0.00000000000E+00 -0.00000000000E+00 -0.70773164168E+02  0.70773164168E+02  0.00000000000E+00 0. -1.
         25    2    1    2    0    0 -0.75070174834E+02 -0.12525495263E+03  0.44550997860E+03  0.48520968049E+03  0.12499983481E+03 0.  0.
          2    1    1    2  501    0  0.30776325555E+02  0.34610137294E+02 -0.36566559654E+02  0.59009805144E+02  0.00000000000E+00 0. -1.
          1    1    1    2  502    0  0.44293849279E+02  0.90644815332E+02  0.80850784371E+03  0.81477810536E+03  0.00000000000E+00 0. -1.
         22    1    3    3    0    0 -0.94749000755E+02 -0.13153976410E+03  0.42949525523E+03  0.45907108050E+03  0.00000000000E+00 0.  1.
         22    1    3    3    0    0  0.19678825921E+02  0.62848114772E+01  0.16014723368E+02  0.26138599991E+02  0.00000000000E+00 0.  1.
</event>
<event>
 7    1  0.6140348E-006  0.5397259E+02  0.7818608E-02  0.1501447E+00
          2   -1    0    0  502    0  0.00000000000E+00  0.00000000000E+00  0.19394222004E+04  0.19394222004E+04  0.00000000000E+00 0. -1.
          1   -1    0    0  501    0 -0.00000000000E+00 -0.00000000000E+00 -0.44450517065E+03  0.44450517065E+03  0.00000000000E+00 0. -1.
         25    2    1    2    0    0 -0.45554240757E+02  0.57382745589E+02  0.65897763188E+03  0.67471803593E+03  0.12499976139E+03 0.  0.
          2    1    1    2  501    0 -0.38525955192E+00 -0.31043280698E+02 -0.43553128645E+03  0.43663638783E+03  0.00000000000E+00 0. -1.
          1    1    1    2  502    0  0.45939500309E+02 -0.26339464892E+02  0.12714706843E+04  0.12725729473E+04  0.00000000000E+00 0. -1.
         22    1    3    3    0    0  0.17010056701E+02 -0.23537971691E+02  0.55555667300E+02  0.62688199125E+02  0.00000000000E+00 0. -1.
         22    1    3    3    0    0 -0.62564297458E+02  0.80920717280E+02  0.60342196458E+03  0.61202983681E+03  0.00000000000E+00 0. -1.
</event>
<event>
 7    1  0.6140348E-006  0.4972306E+02  0.7818608E-02  0.1467834E+00
          2   -1    0    0  502    0  0.00000000000E+00  0.00000000000E+00  0.57268071977E+03  0.57268071977E+03  0.00000000000E+00 0. -1.
          1   -1    0    0  501    0 -0.00000000000E+00 -0.00000000000E+00 -0.20858054778E+03  0.20858054778E+03  0.00000000000E+00 0. -1.
         25    2    1    2    0    0 -0.33507160805E+02 -0.23164133930E+01  0.46044683903E+02  0.13738018385E+03  0.12500042561E+03 0.  0.
          2    1    1    2  501    0  0.25528070316E+02  0.44229511651E+02 -0.15793299377E+03  0.16598422394E+03  0.00000000000E+00 0. -1.
          1    1    1    2  502    0  0.79790904891E+01 -0.41913098258E+02  0.47598848187E+03  0.47789685975E+03  0.00000000000E+00 0. -1.
         22    1    3    3    0    0 -0.77912547123E+02  0.18161122814E+02  0.22484462543E+02  0.83100796849E+02  0.00000000000E+00 0.  1.
         22    1    3    3    0    0  0.44405386318E+02 -0.20477536207E+02  0.23560221360E+02  0.54279387005E+02  0.00000000000E+00 0.  1.
</event>
<event>
 7    1  0.6140348E-006  0.5147065E+02  0.7818608E-02  0.1478266E+00
          2   -1    0    0  502    0  0.00000000000E+00  0.00000000000E+00  0.41223597003E+03  0.41223597003E+03  0.00000000000E+00 0. -1.
          1   -1    0    0  501    0 -0.00000000000E+00 -0.00000000000E+00 -0.36628758659E+03  0.36628758659E+03  0.00000000000E+00 0. -1.
         25    2    1    2    0    0 -0.38817819971E+02 -0.31453615695E+02 -0.28075309155E+03  0.31135888137E+03  0.12500360598E+03 0.  0.
          2    1    1    2  501    0  0.10821873197E+02  0.57533922357E+02 -0.56912448478E+02  0.81647363418E+02  0.00000000000E+00 0. -1.
          1    1    1    2  502    0  0.27995946775E+02 -0.26080306663E+02  0.38361392347E+03  0.38551731182E+03  0.00000000000E+00 0. -1.
         22    1    3    3    0    0 -0.81239127642E+02 -0.10609562198E+02 -0.13279754772E+03  0.15603700635E+03  0.00000000000E+00 0. -1.
         22    1    3    3    0    0  0.42421307670E+02 -0.20844053497E+02 -0.14795554383E+03  0.15532187502E+03  0.00000000000E+00 0. -1.
</event>
<event>
 7    1  0.6140348E-006  0.6216600E+02  0.7818608E-02  0.1430745E+00
          2   -1    0    0  502    0  0.00000000000E+00  0.00000000000E+00  0.76103160027E+03  0.76103160027E+03  0.00000000000E+00 0. -1.
          1   -1    0    0  501    0 -0.00000000000E+00 -0.00000000000E+00 -0.74908660443E+02  0.74908660443E+02  0.00000000000E+00 0. -1.
         25    2    1    2    0    0  0.20630589794E+02 -0.42252211616E+02  0.31836802196E+03  0.34524310168E+03  0.12499492481E+03 0.  0.
          2    1    1    2  501    0 -0.60076444744E+02  0.20880625320E+02 -0.43466449774E+02  0.77035783781E+02  0.00000000000E+00 0. -1.
          1    1    1    2  502    0  0.39445854950E+02  0.21371586296E+02  0.41122136764E+03  0.41366137525E+03  0.00000000000E+00 0. -1.
         22    1    3    3    0    0 -0.19648982744E+02  0.34180338132E+02  0.16059255133E+03  0.16536125780E+03  0.00000000000E+00 0.  1.
         22    1    3    3    0    0  0.40279572538E+02 -0.76432549748E+02  0.15777547063E+03  0.17988184388E+03  0.00000000000E+00 0.  1.
</event>
<event>
 7    1  0.6140348E-006  0.1042419E+03  0.7818608E-02  0.1339482E+00
          2   -1    0    0  502    0  0.00000000000E+00  0.00000000000E+00  0.29902694491E+03  0.29902694491E+03  0.00000000000E+00 0. -1.
          1   -1    0    0  501    0 -0.00000000000E+00 -0.00000000000E+00 -0.24088246769E+03  0.24088246769E+03  0.00000000000E+00 0. -1.
         25    2    1    2    0    0  0.13409283869E+03 -0.35091898701E+02 -0.44529512617E+02  0.19188597774E+03  0.12500008086E+03 0.  0.
          2    1    1    2  501    0 -0.96274391402E+02 -0.62725343364E+01 -0.99280117928E+02  0.13843642925E+03  0.00000000000E+00 0. -1.
          1    1    1    2  502    0 -0.37818447292E+02  0.41364433038E+02  0.20195410777E+03  0.20958700561E+03  0.00000000000E+00 0. -1.
         22    1    3    3    0    0  0.14178589320E+03 -0.23005317731E+02 -0.72171209145E+02  0.16075188205E+03  0.00000000000E+00 0. -1.
         22    1    3    3    0    0 -0.76930545053E+01 -0.12086580970E+02  0.27641696528E+02  0.31134095685E+02  0.00000000000E+00 0. -1.
</event>
<event>
 7    1  0.6140348E-006  0.7199720E+02  0.7818608E-02  0.1390352E+00
          2   -1    0    0  502    0  0.00000000000E+00  0.00000000000E+00  0.90286752517E+03  0.90286752517E+03  0.00000000000E+00 0. -1.
          1   -1    0    0  501    0 -0.00000000000E+00 -0.00000000000E+00 -0.16890791142E+03  0.16890791142E+03  0.00000000000E+00 0. -1.
         25    2    1    2    0    0 -0.32799276775E+02  0.10790476880E+03 -0.32939411349E+02  0.17155421044E+03  0.12500644229E+03 0.  0.
          2    1    1    2  501    0  0.38412952102E+02 -0.36632237598E+02 -0.54289500078E+02  0.75926448220E+02  0.00000000000E+00 0. -1.
          1    1    1    2  502    0 -0.56136753272E+01 -0.71272531201E+02  0.82118852518E+03  0.82429477794E+03  0.00000000000E+00 0. -1.
         22    1    3    3    0    0 -0.47691442860E+02  0.11181867102E+03 -0.63635328901E+02  0.13721276907E+03  0.00000000000E+00 0. -1.
         22    1    3    3    0    0  0.14892166084E+02 -0.39139022192E+01  0.30695917553E+02  0.34341441374E+02  0.00000000000E+00 0. -1.
</event>
<event>
 7    1  0.6140348E-006  0.4631388E+02  0.7818608E-02  0.1489550E+00
          2   -1    0    0  502    0  0.00000000000E+00  0.00000000000E+00  0.71271448588E+03  0.71271448588E+03  0.00000000000E+00 0. -1.
          1   -1    0    0  501    0 -0.00000000000E+00 -0.00000000000E+00 -0.44637792121E+02  0.44637792121E+02  0.00000000000E+00 0. -1.
         25    2    1    2    0    0  0.36134247369E+02  0.62412628561E+02  0.19302948373E+03  0.24100859741E+03  0.12499496950E+03 0.  0.
          2    1    1    2  501    0 -0.35467355355E+02 -0.16884514738E+02  0.16307371371E+00  0.39281633455E+02  0.00000000000E+00 0. -1.
          1    1    1    2  502    0 -0.66689201329E+00 -0.45528113823E+02  0.47488413632E+03  0.47706204714E+03  0.00000000000E+00 0. -1.
         22    1    3    3    0    0  0.33354564029E+02  0.97664818600E+02  0.16978798393E+03  0.19869298735E+03  0.00000000000E+00 0. -1.
         22    1    3    3    0    0  0.27796833400E+01 -0.35252190039E+02  0.23241499794E+02  0.42315610059E+02  0.00000000000E+00 0. -1.
</event>
<event>
 7    1  0.6140348E-006  0.8095293E+02  0.7818608E-02  0.1471554E+00
          2   -1    0    0  502    0  0.00000000000E+00  0.00000000000E+00  0.17766262042E+04  0.17766262042E+04  0.00000000000E+00 0. -1.
          1   -1    0    0  501    0 -0.00000000000E+00 -0.00000000000E+00 -0.85315761599E+03  0.85315761599E+03  0.00000000000E+00 0. -1.
         25    2    1    2    0    0 -0.86799072007E+02 -0.33143207589E+02  0.17576840696E+03  0.23484426680E+03  0.12499898261E+03 0.  0.
          2    1    1    2  501    0  0.65579964889E+02  0.47315706472E+02 -0.82153072197E+03  0.82550120231E+03  0.00000000000E+00 0. -1.
          1    1    1    2  502    0  0.21219107119E+02 -0.14172498883E+02  0.15692309032E+04  0.15694383511E+04  0.00000000000E+00 0. -1.
         22    1    3    3    0    0 -0.11423769555E+03 -0.45307897480E+02  0.12142461879E+03  0.17276282791E+03  0.00000000000E+00 0.  1.
         22    1    3    3    0    0  0.27438623545E+02  0.12164689891E+02  0.54343788169E+02  0.62081438891E+02  0.00000000000E+00 0.  1.
</event>
<event>
 7    1  0.6140348E-006  0.4420898E+02  0.7818608E-02  0.1503781E+00
          2   -1    0    0  502    0  0.00000000000E+00  0.00000000000E+00  0.28877486359E+03  0.28877486359E+03  0.00000000000E+00 0. -1.
          1   -1    0    0  501    0 -0.00000000000E+00 -0.00000000000E+00 -0.18432030554E+03  0.18432030554E+03  0.00000000000E+00 0. -1.
         25    2    1    2    0    0  0.10194000082E+02 -0.76867060994E+02  0.85825744062E+02  0.17029916270E+03  0.12499313489E+03 0.  0.
          2    1    1    2  501    0 -0.13215917490E+02  0.34881409682E+02 -0.13678635283E+03  0.14178109725E+03  0.00000000000E+00 0. -1.
          1    1    1    2  502    0  0.30219174084E+01  0.41985651312E+02  0.15541516681E+03  0.16101490918E+03  0.00000000000E+00 0. -1.
         22    1    3    3    0    0  0.67441755327E+02 -0.36941451726E+02  0.51242262708E+02  0.92405793674E+02  0.00000000000E+00 0.  1.
         22    1    3    3    0    0 -0.57247755245E+02 -0.39925609268E+02  0.34583481354E+02  0.77893369028E+02  0.00000000000E+00 0.  1.
</event>
<event>
 7    1  0.6140348E-006  0.1245653E+03  0.7818608E-02  0.1332923E+00
          2   -1    0    0  502    0  0.00000000000E+00  0.00000000000E+00  0.50708073195E+03  0.50708073195E+03  0.00000000000E+00 0. -1.
          1   -1    0    0  501    0 -0.00000000000E+00 -0.00000000000E+00 -0.20856360754E+03  0.20856360754E+03  0.00000000000E+00 0. -1.
         25    2    1    2    0    0  0.76174953622E+02 -0.30221936532E+02  0.21128218547E+02  0.15095760540E+03  0.12500323196E+03 0.  0.
          2    1    1    2  501    0  0.43582452634E+02 -0.23806626272E+02 -0.12866028998E+03  0.13791176835E+03  0.00000000000E+00 0. -1.
          1    1    1    2  502    0 -0.11975740626E+03  0.54028562804E+02  0.40604919583E+03  0.42677496574E+03  0.00000000000E+00 0. -1.
         22    1    3    3    0    0  0.25970285254E+02 -0.44742788705E+02 -0.43676198952E+02  0.67705119542E+02  0.00000000000E+00 0.  1.
         22    1    3    3    0    0  0.50204668368E+02  0.14520852173E+02  0.64804417500E+02  0.83252485856E+02  0.00000000000E+00 0.  1.
</event>
<event>
 7    1  0.6140348E-006  0.9417753E+02  0.7818608E-02  0.1422986E+00
          2   -1    0    0  502    0  0.00000000000E+00  0.00000000000E+00  0.23338326681E+04  0.23338326681E+04  0.00000000000E+00 0. -1.
          1   -1    0    0  501    0 -0.00000000000E+00 -0.00000000000E+00 -0.29398431355E+03  0.29398431355E+03  0.00000000000E+00 0. -1.
         25    2    1    2    0    0 -0.51217503248E+02  0.10964232890E+03  0.18017001065E+03  0.25046038717E+03  0.12499799949E+03 0.  0.
          2    1    1    2  501    0  0.24003306808E+02 -0.20269072591E+02 -0.25685157227E+03  0.25876577096E+03  0.00000000000E+00 0. -1.
          1    1    1    2  502    0  0.27214196440E+02 -0.89373256305E+02  0.21165299162E+04  0.21185908235E+04  0.00000000000E+00 0. -1.
         22    1    3    3    0    0 -0.67526884985E+02  0.13067828143E+03  0.14735336028E+03  0.20820592263E+03  0.00000000000E+00 0.  1.
         22    1    3    3    0    0  0.16309381737E+02 -0.21035952533E+02  0.32816650368E+02  0.42254464533E+02  0.00000000000E+00 0.  1.
</event>
<event>
 7    1  0.7211587E-006  0.7581944E+02  0.7818608E-02  0.1416561E+00
          2   -1    0    0  502    0  0.00000000000E+00  0.00000000000E+00  0.16096053872E+04  0.16096053872E+04  0.00000000000E+00 0. -1.
          1   -1    0    0  501    0 -0.00000000000E+00 -0.00000000000E+00 -0.63256205506E+03  0.63256205506E+03  0.00000000000E+00 0. -1.
         25    2    1    2    0    0 -0.61180910207E+02  0.39095180375E+02 -0.16566638211E+03  0.21986767098E+03  0.12499962271E+03 0.  0.
          2    1    1    2  501    0  0.33842311063E+02 -0.69650873073E+02 -0.43611810663E+03  0.44293966752E+03  0.00000000000E+00 0. -1.
          1    1    1    2  502    0  0.27338599144E+02  0.30555692698E+02  0.15788278209E+04  0.15793601037E+04  0.00000000000E+00 0. -1.
         22    1    3    3    0    0 -0.73815857945E+02  0.42262228971E+02 -0.40824088927E+02  0.94347671506E+02  0.00000000000E+00 0.  1.
         22    1    3    3    0    0  0.12634947738E+02 -0.31670485969E+01 -0.12484229318E+03  0.12551999947E+03  0.00000000000E+00 0.  1.
</event>
<event>
 7    1  0.6140348E-006  0.6337646E+02  0.7818608E-02  0.1453485E+00
          2   -1    0    0  502    0  0.00000000000E+00  0.00000000000E+00  0.66602503401E+03  0.66602503401E+03  0.00000000000E+00 0. -1.
          1   -1    0    0  501    0 -0.00000000000E+00 -0.00000000000E+00 -0.70482566700E+02  0.70482566700E+02  0.00000000000E+00 0. -1.
         25    2    1    2    0    0  0.46727752099E+01  0.39031777981E+02  0.57087992768E+02  0.14293110676E+03  0.12499979136E+03 0.  0.
          2    1    1    2  501    0 -0.96332189993E+01 -0.75847087006E+02  0.27466971904E+02  0.81240470587E+02  0.00000000000E+00 0. -1.
          1    1    1    2  502    0  0.49604437894E+01  0.36815309025E+02  0.51098750264E+03  0.51233602336E+03  0.00000000000E+00 0. -1.
         22    1    3    3    0    0 -0.13660727140E+02  0.25559856338E+02 -0.36506198202E+02  0.46611417369E+02  0.00000000000E+00 0. -1.
         22    1    3    3    0    0  0.18333502350E+02  0.13471921644E+02  0.93594190970E+02  0.96319689392E+02  0.00000000000E+00 0. -1.
</event>
<event>
 7    1  0.6140348E-006  0.4980083E+02  0.7818608E-02  0.1468572E+00
          2   -1    0    0  502    0  0.00000000000E+00  0.00000000000E+00  0.13692793293E+04  0.13692793293E+04  0.00000000000E+00 0. -1.
          1   -1    0    0  501    0 -0.00000000000E+00 -0.00000000000E+00 -0.49048386585E+02  0.49048386585E+02  0.00000000000E+00 0. -1.
         25    2    1    2    0    0 -0.33923101412E+02  0.10023603359E+02  0.35591536007E+03  0.37888316548E+03  0.12500184045E+03 0.  0.
          2    1    1    2  501    0  0.40044552858E+02  0.31905900697E+02 -0.19446945335E+02  0.54769849331E+02  0.00000000000E+00 0. -1.
          1    1    1    2  502    0 -0.61214514457E+01 -0.41929504056E+02  0.98376252801E+03  0.98467470111E+03  0.00000000000E+00 0. -1.
         22    1    3    3    0    0 -0.17729670271E+02  0.59847337924E+02  0.27848733749E+03  0.28539664015E+03  0.00000000000E+00 0.  1.
         22    1    3    3    0    0 -0.16193431141E+02 -0.49823734565E+02  0.77428022575E+02  0.93486525329E+02  0.00000000000E+00 0.  1.
</event>
<event>
 7    1  0.6140348E-006  0.6981990E+02  0.7818608E-02  0.1505670E+00
          2   -1    0    0  502    0  0.00000000000E+00  0.00000000000E+00  0.72191403206E+03  0.72191403206E+03  0.00000000000E+00 0. -1.
          1   -1    0    0  501    0 -0.00000000000E+00 -0.00000000000E+00 -0.20222990764E+02  0.20222990764E+02  0.00000000000E+00 0. -1.
         25    2    1    2    0    0 -0.36344349773E+02 -0.61528387696E+02  0.40074048632E+03  0.42582231070E+03  0.12500019465E+03 0.  0.
          2    1    1    2  501    0  0.53424275329E+02  0.45656688438E+02  0.25850145498E+03  0.26788372220E+03  0.00000000000E+00 0. -1.
          1    1    1    2  502    0 -0.17079925556E+02  0.15871699258E+02  0.42449099998E+02  0.48430989923E+02  0.00000000000E+00 0. -1.
         22    1    3    3    0    0 -0.35223567469E+02 -0.99706640045E+02  0.29903839222E+03  0.31718460523E+03  0.00000000000E+00 0.  1.
         22    1    3    3    0    0 -0.11207823045E+01  0.38178252349E+02  0.10170209410E+03  0.10863770547E+03  0.00000000000E+00 0.  1.
</event>
<event>
 7    1  0.6140348E-006  0.6066586E+02  0.7818608E-02  0.1481034E+00
          2   -1    0    0  502    0  0.00000000000E+00  0.00000000000E+00  0.70219549628E+02  0.70219549628E+02  0.00000000000E+00 0. -1.
          1   -1    0    0  501    0 -0.00000000000E+00 -0.00000000000E+00 -0.59212514567E+03  0.59212514567E+03  0.00000000000E+00 0. -1.
         25    2    1    2    0    0  0.71379481556E+02  0.35597624380E+01 -0.32064389111E+03  0.35149020878E+03  0.12500063866E+03 0.  0.
          2    1    1    2  501    0 -0.15885172647E+02 -0.27586798592E+02 -0.23798512110E+03  0.24010474388E+03  0.00000000000E+00 0. -1.
          1    1    1    2  502    0 -0.55494308908E+02  0.24027036154E+02  0.36723416175E+02  0.70749742637E+02  0.00000000000E+00 0. -1.
         22    1    3    3    0    0  0.84128228903E+01 -0.53736189539E+02 -0.16958059286E+03  0.17808967160E+03  0.00000000000E+00 0.  1.
         22    1    3    3    0    0  0.62966658666E+02  0.57295951977E+02 -0.15106329825E+03  0.17340053718E+03  0.00000000000E+00 0.  1.
</event>
<event>
 7    1  0.6140348E-006  0.1061670E+03  0.7818608E-02  0.1417510E+00
          2   -1    0    0  502    0  0.00000000000E+00  0.00000000000E+00  0.86450584496E+03  0.86450584496E+03  0.00000000000E+00 0. -1.
          1   -1    0    0  501    0 -0.00000000000E+00 -0.00000000000E+00 -0.15069574638E+03  0.15069574638E+03  0.00000000000E+00 0. -1.
         25    2    1    2    0    0  0.48238759191E+02  0.97587247429E+02  0.39535757603E+03  0.42869933032E+03  0.12500101658E+03 0.  0.
          2    1    1    2  501    0  0.22531104493E+02 -0.18363678705E+02 -0.12611387107E+03  0.12942018328E+03  0.00000000000E+00 0. -1.
          1    1    1    2  502    0 -0.70769863684E+02 -0.79223568724E+02  0.44456639362E+03  0.45708207774E+03  0.00000000000E+00 0. -1.
         22    1    3    3    0    0  0.25735305271E+02  0.10442969865E+03  0.16382903079E+03  0.19597912957E+03  0.00000000000E+00 0. -1.
         22    1    3    3    0    0  0.22503453920E+02 -0.68424512203E+01  0.23152854524E+03  0.23272020076E+03  0.00000000000E+00 0. -1.
</event>
<event>
 7    1  0.6140348E-006  0.1659103E+03  0.7818608E-02  0.1303858E+00
          2   -1    0    0  502    0  0.00000000000E+00  0.00000000000E+00  0.17257867434E+04  0.17257867434E+04  0.00000000000E+00 0. -1.
          1   -1    0    0  501    0 -0.00000000000E+00 -0.00000000000E+00 -0.12242240029E+03  0.12242240029E+03  0.00000000000E+00 0. -1.
         25    2    1    2    0    0 -0.12152938440E+03 -0.36375391769E+02  0.40950869426E+03  0.44655432986E+03  0.12498335266E+03 0.  0.
          2    1    1    2  501    0  0.16966762200E+03  0.31613389543E+02 -0.31420212179E+02  0.17542445122E+03  0.00000000000E+00 0. -1.
          1    1    1    2  502    0 -0.48138237593E+02  0.47620022261E+01  0.12252758610E+04  0.12262303626E+04  0.00000000000E+00 0. -1.
         22    1    3    3    0    0 -0.25534044107E+02  0.10408894633E+02  0.47938325639E+01  0.27987735288E+02  0.00000000000E+00 0. -1.
         22    1    3    3    0    0 -0.95995340296E+02 -0.46784286402E+02  0.40471486170E+03  0.41856659457E+03  0.00000000000E+00 0. -1.
</event>
<event>
 7    1  0.6140348E-006  0.1000987E+03  0.7818608E-02  0.1337669E+00
          2   -1    0    0  502    0  0.00000000000E+00  0.00000000000E+00  0.26838466774E+03  0.26838466774E+03  0.00000000000E+00 0. -1.
          1   -1    0    0  501    0 -0.00000000000E+00 -0.00000000000E+00 -0.15699935163E+04  0.15699935163E+04  0.00000000000E+00 0. -1.
         25    2    1    2    0    0 -0.10653659066E+03 -0.44057577275E+02  0.87286468625E+02  0.19114659496E+03  0.12500791133E+03 0.  0.
          2    1    1    2  501    0  0.99017335663E+02 -0.14756047208E+02 -0.15095126882E+04  0.15128287178E+04  0.00000000000E+00 0. -1.
          1    1    1    2  502    0  0.75192549931E+01  0.58813624482E+02  0.12061737099E+03  0.13440287126E+03  0.00000000000E+00 0. -1.
         22    1    3    3    0    0 -0.12661078296E+03 -0.61613770273E+02  0.60202173567E+02  0.15313669956E+03  0.00000000000E+00 0.  1.
         22    1    3    3    0    0  0.20074192309E+02  0.17556192998E+02  0.27084295057E+02  0.38009895399E+02  0.00000000000E+00 0.  1.
</event>
<event>
 7    1  0.6645108E-006  0.1344628E+03  0.7818608E-02  0.1291499E+00
          2   -1    0    0  502    0  0.00000000000E+00  0.00000000000E+00  0.17224973102E+04  0.17224973102E+04  0.00000000000E+00 0. -1.
          1   -1    0    0  501    0 -0.00000000000E+00 -0.00000000000E+00 -0.51545832425E+03  0.51545832425E+03  0.00000000000E+00 0. -1.
         25    2    1    2    0    0  0.83077600505E+02  0.36746529094E+02  0.10539911417E+02  0.15488165118E+03  0.12500016413E+03 0.  0.
          2    1    1    2  501    0  0.53395142305E+02 -0.40333950342E+02 -0.43789987082E+03  0.44298325661E+03  0.00000000000E+00 0. -1.
          1    1    1    2  502    0 -0.13647274281E+03  0.35874212477E+01  0.16343989453E+04  0.16400907266E+04  0.00000000000E+00 0. -1.
         22    1    3    3    0    0  0.60843873208E+02  0.83049950311E+02  0.32679460336E+01  0.10300461458E+03  0.00000000000E+00 0.  1.
         22    1    3    3    0    0  0.22233727297E+02 -0.46303421217E+02  0.72719653837E+01  0.51877036601E+02  0.00000000000E+00 0.  1.
</event>
<event>
 7    1  0.6140348E-006  0.2624950E+03  0.7818608E-02  0.1237809E+00
          2   -1    0    0  502    0  0.00000000000E+00  0.00000000000E+00  0.17938820782E+04  0.17938820782E+04  0.00000000000E+00 0. -1.
          1   -1    0    0  501    0 -0.00000000000E+00 -0.00000000000E+00 -0.53934940738E+03  0.53934940738E+03  0.00000000000E+00 0. -1.
         25    2    1    2    0    0 -0.21463032357E+03 -0.15262340615E+02  0.16116513078E+03  0.29647642525E+03  0.12499982605E+03 0.  0.
          2    1    1    2  501    0  0.26795968674E+03  0.37764001159E+02 -0.43228827758E+03  0.51000163572E+03  0.00000000000E+00 0. -1.
          1    1    1    2  502    0 -0.53329363174E+02 -0.22501660544E+02  0.15256558176E+04  0.15267534246E+04  0.00000000000E+00 0. -1.
         22    1    3    3    0    0 -0.16886058954E+03  0.43391914144E+02  0.11678274594E+03  0.20984510159E+03  0.00000000000E+00 0.  1.
         22    1    3    3    0    0 -0.45769734024E+02 -0.58654254759E+02  0.44382384847E+02  0.86631323658E+02  0.00000000000E+00 0.  1.
</event>
<event>
 7    1  0.6140348E-006  0.1441412E+03  0.7818608E-02  0.1361881E+00
          2   -1    0    0  502    0  0.00000000000E+00  0.00000000000E+00  0.38979192066E+03  0.38979192066E+03  0.00000000000E+00 0. -1.
          1   -1    0    0  501    0 -0.00000000000E+00 -0.00000000000E+00 -0.19339709969E+04  0.19339709969E+04  0.00000000000E+00 0. -1.
         25    2    1    2    0    0 -0.10625045564E+03  0.44589006537E+02  0.99605108821E+02  0.19703629739E+03  0.12499914383E+03 0.  0.
          2    1    1    2  501    0  0.12553151920E+03 -0.71969586103E+02 -0.18813025739E+04  0.18868590722E+04  0.00000000000E+00 0. -1.
          1    1    1    2  502    0 -0.19281063556E+02  0.27380579566E+02  0.23751838884E+03  0.23986754801E+03  0.00000000000E+00 0. -1.
         22    1    3    3    0    0 -0.22474186011E+02  0.76848973774E+02  0.51302096417E+02  0.95093421979E+02  0.00000000000E+00 0. -1.
         22    1    3    3    0    0 -0.83776269632E+02 -0.32259967236E+02  0.48303012404E+02  0.10194287541E+03  0.00000000000E+00 0. -1.
</event>
<event>
 7    1  0.6140348E-006  0.9719483E+02  0.7818608E-02  0.1431191E+00
          2   -1    0    0  502    0  0.00000000000E+00  0.00000000000E+00  0.90646048974E+02  0.90646048974E+02  0.00000000000E+00 0. -1.
          1   -1    0    0  501    0 -0.00000000000E+00 -0.00000000000E+00 -0.13143227213E+04  0.13143227213E+04  0.00000000000E+00 0. -1.
         25    2    1    2    0    0 -0.72965929079E+02  0.79678659584E+02 -0.27932541969E+03  0.32453106313E+03  0.12500002101E+03 0.  0.
          2    1    1    2  501    0  0.44927304884E+02 -0.85306696729E+02 -0.10069818380E+04  0.10115869302E+04  0.00000000000E+00 0. -1.
          1    1    1    2  502    0  0.28038624195E+02  0.56280371450E+01  0.62630585432E+02  0.68850776905E+02  0.00000000000E+00 0. -1.
         22    1    3    3    0    0  0.29223226205E+02  0.38190951950E+02 -0.13207129719E+03  0.14055380928E+03  0.00000000000E+00 0.  1.
         22    1    3    3    0    0 -0.10218915528E+03  0.41487707634E+02 -0.14725412250E+03  0.18397725385E+03  0.00000000000E+00 0.  1.
</event>
<event>
 7    1  0.6140348E-006  0.9771355E+02  0.7818608E-02  0.1406323E+00
          2   -1    0    0  502    0  0.00000000000E+00  0.00000000000E+00  0.69904486812E+03  0.69904486812E+03  0.00000000000E+00 0. -1.
          1   -1    0    0  501    0 -0.00000000000E+00 -0.00000000000E+00 -0.76837259175E+03  0.76837259175E+03  0.00000000000E+00 0. -1.
         25    2    1    2    0    0  0.69140917935E+02  0.73208383931E+02  0.28232204306E+02  0.16297682221E+03  0.12499781280E+03 0.  0.
          2    1    1    2  501    0 -0.38913049912E+02 -0.89741320322E+02 -0.69709111522E+03  0.70392027456E+03  0.00000000000E+00 0. -1.
          1    1    1    2  502    0 -0.30227868023E+02  0.16532936390E+02  0.59953118728E+03  0.60052036311E+03  0.00000000000E+00 0. -1.
         22    1    3    3    0    0  0.14505661774E+02 -0.21792135103E+02  0.45049388336E+02  0.52103346969E+02  0.00000000000E+00 0.  1.
         22    1    3    3    0    0  0.54635256161E+02  0.95000519034E+02 -0.16817184030E+02  0.11087347524E+03  0.00000000000E+00 0.  1.
</event>
<event>
 7    1  0.6140348E-006  0.5828179E+02  0.7818608E-02  0.1420726E+00
          2   -1    0    0  502    0  0.00000000000E+00  0.00000000000E+00  0.15183536883E+04  0.15183536883E+04  0.00000000000E+00 0. -1.
          1   -1    0    0  501    0 -0.00000000000E+00 -0.00000000000E+00 -0.15688681811E+03  0.15688681811E+03  0.00000000000E+00 0. -1.
         25    2    1    2    0    0 -0.10724931514E+02  0.26747488755E+02 -0.22412789212E+02  0.13023649473E+03  0.12501503561E+03 0.  0.
          2    1    1    2  501    0  0.62370662438E+02 -0.27650196278E+02 -0.65574950879E+02  0.94629314009E+02  0.00000000000E+00 0. -1.
          1    1    1    2  502    0 -0.51645730924E+02  0.90270752277E+00  0.14494546103E+04  0.14503746977E+04  0.00000000000E+00 0. -1.
         22    1    3    3    0    0 -0.67191402302E+02  0.53569354237E+01 -0.60449238780E+01  0.67675123976E+02  0.00000000000E+00 0. -1.
         22    1    3    3    0    0  0.56466470788E+02  0.21390553331E+02 -0.16367865334E+02  0.62561370754E+02  0.00000000000E+00 0. -1.
</event>
<event>
 7    1  0.6140348E-006  0.1174519E+03  0.7818608E-02  0.1411494E+00
          2   -1    0    0  502    0  0.00000000000E+00  0.00000000000E+00  0.21616958231E+03  0.21616958231E+03  0.00000000000E+00 0. -1.
          1   -1    0    0  501    0 -0.00000000000E+00 -0.00000000000E+00 -0.18101913000E+03  0.18101913000E+03  0.00000000000E+00 0. -1.
         25    2    1    2    0    0 -0.67958739993E+02  0.11898051821E+03  0.31058053303E+02  0.18805521872E+03  0.12500163421E+03 0.  0.
          2    1    1    2  501    0  0.84719249849E+01 -0.26192277059E+02 -0.70742323357E+02  0.75909717457E+02  0.00000000000E+00 0. -1.
          1    1    1    2  502    0  0.59486815008E+02 -0.92788241156E+02  0.74834722365E+02  0.13322377614E+03  0.00000000000E+00 0. -1.
         22    1    3    3    0    0 -0.85603209755E+02  0.11646191916E+03 -0.83756473838E+01  0.14478066032E+03  0.00000000000E+00 0.  1.
         22    1    3    3    0    0  0.17644469763E+02  0.25185990576E+01  0.39433700687E+02  0.43274558395E+02  0.00000000000E+00 0.  1.
</event>
<event>
 7    1  0.6140348E-006  0.1145558E+03  0.7818608E-02  0.1338607E+00
          2   -1    0    0  502    0  0.00000000000E+00  0.00000000000E+00  0.70634479808E+03  0.70634479808E+03  0.00000000000E+00 0. -1.
          1   -1    0    0  501    0 -0.00000000000E+00 -0.00000000000E+00 -0.67401724617E+03  0.67401724617E+03  0.00000000000E+00 0. -1.
         25    2    1    2    0    0  0.80028998256E+02  0.44021637113E+02 -0.18828639412E+03  0.24376069606E+03  0.12499986256E+03 0.  0.
          2    1    1    2  501    0 -0.77881632259E+02 -0.95365831056E+02 -0.44871561477E+03  0.46530193780E+03  0.00000000000E+00 0. -1.
          1    1    1    2  502    0 -0.21473659974E+01  0.51344193943E+02  0.66932956079E+03  0.67129941039E+03  0.00000000000E+00 0. -1.
         22    1    3    3    0    0  0.65521460727E+01 -0.40123030679E+02 -0.32430582909E+02  0.52005104719E+02  0.00000000000E+00 0. -1.
         22    1    3    3    0    0  0.73476852184E+02  0.84144667792E+02 -0.15585581121E+03  0.19175559134E+03  0.00000000000E+00 0. -1.
</event>
<event>
 7    1  0.6140348E-006  0.5822519E+02  0.7818608E-02  0.1421973E+00
          2   -1    0    0  502    0  0.00000000000E+00  0.00000000000E+00  0.12954462724E+03  0.12954462724E+03  0.00000000000E+00 0. -1.
          1   -1    0    0  501    0 -0.00000000000E+00 -0.00000000000E+00 -0.65970547143E+03  0.65970547143E+03  0.00000000000E+00 0. -1.
         25    2    1    2    0    0  0.54833234379E+02  0.73129544797E+02 -0.29574955637E+03  0.33383916248E+03  0.12500468949E+03 0.  0.
          2    1    1    2  501    0 -0.69223946872E+01 -0.55043004283E+02 -0.33658256204E+03  0.34112383813E+03  0.00000000000E+00 0. -1.
          1    1    1    2  502    0 -0.47910839692E+02 -0.18086540514E+02  0.10217127422E+03  0.11428709807E+03  0.00000000000E+00 0. -1.
         22    1    3    3    0    0 -0.31140529911E+02  0.22550948951E+02 -0.16480242369E+03  0.16922800228E+03  0.00000000000E+00 0.  1.
         22    1    3    3    0    0  0.85973764291E+02  0.50578595846E+02 -0.13094713268E+03  0.16461116020E+03  0.00000000000E+00 0.  1.
</event>
<event>
 7    1  0.6140348E-006  0.7773291E+02  0.7818608E-02  0.1383698E+00
          2   -1    0    0  502    0  0.00000000000E+00  0.00000000000E+00  0.76088811828E+03  0.76088811828E+03  0.00000000000E+00 0. -1.
          1   -1    0    0  501    0 -0.00000000000E+00 -0.00000000000E+00 -0.25211206647E+03  0.25211206647E+03  0.00000000000E+00 0. -1.
         25    2    1    2    0    0  0.43156257335E+02 -0.96134020247E+02  0.61038071654E+03  0.63189704204E+03  0.12500016086E+03 0.  0.
          2    1    1    2  501    0 -0.61303740859E+02  0.47536072098E+02 -0.22994352304E+03  0.24267643186E+03  0.00000000000E+00 0. -1.
          1    1    1    2  502    0  0.18147483524E+02  0.48597948149E+02  0.12833885831E+03  0.13842671084E+03  0.00000000000E+00 0. -1.
         22    1    3    3    0    0  0.40249230252E+02 -0.40207259108E+02  0.77809820623E+02  0.96389794098E+02  0.00000000000E+00 0.  1.
         22    1    3    3    0    0  0.29070270830E+01 -0.55926761139E+02  0.53257089592E+03  0.53550724794E+03  0.00000000000E+00 0.  1.
</event>
<event>
 7    1  0.6140348E-006  0.6041523E+02  0.7818608E-02  0.1431831E+00
          2   -1    0    0  502    0  0.00000000000E+00  0.00000000000E+00  0.27418011632E+03  0.27418011632E+03  0.00000000000E+00 0. -1.
          1   -1    0    0  501    0 -0.00000000000E+00 -0.00000000000E+00 -0.18447754233E+03  0.18447754233E+03  0.00000000000E+00 0. -1.
         25    2    1    2    0    0  0.61777326397E+02  0.32686716562E+02  0.54378192098E+02  0.15318663150E+03  0.12499718717E+03 0.  0.
          2    1    1    2  501    0 -0.21687997146E+01 -0.45734322359E+02 -0.12542989300E+03  0.13352524102E+03  0.00000000000E+00 0. -1.
          1    1    1    2  502    0 -0.59608526683E+02  0.13047605796E+02  0.16075427489E+03  0.17194578612E+03  0.00000000000E+00 0. -1.
         22    1    3    3    0    0  0.97060626331E+02  0.42658813821E+02  0.46032181074E+02  0.11558330881E+03  0.00000000000E+00 0. -1.
         22    1    3    3    0    0 -0.35283299933E+02 -0.99720972581E+01  0.83460110243E+01  0.37603322698E+02  0.00000000000E+00 0. -1.
</event>
<event>
 7    1  0.6140348E-006  0.1018964E+03  0.7818608E-02  0.1409072E+00
          2   -1    0    0  502    0  0.00000000000E+00  0.00000000000E+00  0.37792298282E+03  0.37792298282E+03  0.00000000000E+00 0. -1.
          1   -1    0    0  501    0 -0.00000000000E+00 -0.00000000000E+00 -0.25409899289E+03  0.25409899289E+03  0.00000000000E+00 0. -1.
         25    2    1    2    0    0  0.91866244627E+02  0.91349752811E+01 -0.78575426265E+01  0.15559419724E+03  0.12499983426E+03 0.  0.
          2    1    1    2  501    0 -0.10253942631E+03  0.21388771923E+02 -0.15546855039E+03  0.18746275276E+03  0.00000000000E+00 0. -1.
          1    1    1    2  502    0  0.10673181681E+02 -0.30523747204E+02  0.28715008294E+03  0.28896502571E+03  0.00000000000E+00 0. -1.
         22    1    3    3    0    0  0.85853558216E+02  0.49240803512E+02 -0.36992455861E+02  0.10565950965E+03  0.00000000000E+00 0.  1.
         22    1    3    3    0    0  0.60126864113E+01 -0.40105828231E+02  0.29134913234E+02  0.49934687594E+02  0.00000000000E+00 0.  1.
</event>
<event>
 7    1  0.6140348E-006  0.6580570E+02  0.7818608E-02  0.1406063E+00
          2   -1    0    0  502    0  0.00000000000E+00  0.00000000000E+00  0.32737787719E+03  0.32737787719E+03  0.00000000000E+00 0. -1.
          1   -1    0    0  501    0 -0.00000000000E+00 -0.00000000000E+00 -0.13288601599E+04  0.13288601599E+04  0.00000000000E+00 0. -1.
         25    2    1    2    0    0 -0.39030856114E+02  0.24178625691E+02  0.14950704590E+03  0.20021405144E+03  0.12500118380E+03 0.  0.
          2    1    1    2  501    0  0.85826277944E+01 -0.65420992220E+02 -0.12983373562E+04  0.13000128685E+04  0.00000000000E+00 0. -1.
          1    1    1    2  502    0  0.30448228320E+02  0.41242366529E+02  0.14734802765E+03  0.15601111710E+03  0.00000000000E+00 0. -1.
         22    1    3    3    0    0  0.28198994096E+02  0.36711263377E+02  0.13891489627E+02  0.48330876371E+02  0.00000000000E+00 0.  1.
         22    1    3    3    0    0 -0.67229850210E+02 -0.12532637686E+02  0.13561555627E+03  0.15188317507E+03  0.00000000000E+00 0.  1.
</event>
<event>
 7    1  0.6140348E-006  0.1369387E+03  0.7818608E-02  0.1353947E+00
          2   -1    0    0  502    0  0.00000000000E+00  0.00000000000E+00  0.12891241105E+03  0.12891241105E+03  0.00000000000E+00 0. -1.
          1   -1    0    0  501    0 -0.00000000000E+00 -0.00000000000E+00 -0.10011095132E+04  0.10011095132E+04  0.00000000000E+00 0. -1.
         25    2    1    2    0    0  0.78161513049E+02  0.13977704895E+03 -0.75041409869E+03  0.77742720471E+03  0.12499957431E+03 0.  0.
          2    1    1    2  501    0 -0.36175262899E+02 -0.10569960651E+02 -0.19476310216E+03  0.19837600580E+03  0.00000000000E+00 0. -1.
          1    1    1    2  502    0 -0.41986250150E+02 -0.12920708830E+03  0.72980098687E+02  0.15421871376E+03  0.00000000000E+00 0. -1.
         22    1    3    3    0    0  0.10889704169E+03  0.11736195587E+03 -0.52648075394E+03  0.55028572455E+03  0.00000000000E+00 0. -1.
         22    1    3    3    0    0 -0.30735528645E+02  0.22415093084E+02 -0.22393334475E+03  0.22714148016E+03  0.00000000000E+00 0. -1.
</event>
<event>
 7    1  0.6140348E-006  0.1039895E+03  0.7818608E-02  0.1359592E+00
          2   -1    0    0  502    0  0.00000000000E+00  0.00000000000E+00  0.20103376518E+04  0.20103376518E+04  0.00000000000E+00 0. -1.
          1   -1    0    0  501    0 -0.00000000000E+00 -0.00000000000E+00 -0.95897941791E+02  0.95897941791E+02  0.00000000000E+00 0. -1.
         25    2    1    2    0    0  0.11334452127E+03  0.69165346172E+02  0.23814702719E+03  0.29995040159E+03  0.12500164496E+03 0.  0.
          2    1    1    2  501    0 -0.13250465294E+02 -0.45425753252E+02 -0.54649656369E+02  0.72288718555E+02  0.00000000000E+00 0. -1.
          1    1    1    2  502    0 -0.10009405598E+03 -0.23739592920E+02  0.17309423392E+04  0.17339964734E+04  0.00000000000E+00 0. -1.
         22    1    3    3    0    0  0.55137277205E+02 -0.30674076749E+02  0.11429088265E+03  0.13055046603E+03  0.00000000000E+00 0.  1.
         22    1    3    3    0    0  0.58207244065E+02  0.99839422921E+02  0.12385614453E+03  0.16939993557E+03  0.00000000000E+00 0.  1.
</event>
<event>
 7    1  0.6140348E-006  0.7629785E+02  0.7818608E-02  0.1360768E+00
          2   -1    0    0  502    0  0.00000000000E+00  0.00000000000E+00  0.25663471499E+04  0.25663471499E+04  0.00000000000E+00 0. -1.
          1   -1    0    0  501    0 -0.00000000000E+00 -0.00000000000E+00 -0.32552990924E+03  0.32552990924E+03  0.00000000000E+00 0. -1.
         25    2    1    2    0    0 -0.41092740133E+02 -0.13202877891E+03  0.13676412206E+03  0.23118981690E+03  0.12499637835E+03 0.  0.
          2    1    1    2  501    0  0.25673060573E+02  0.70059131235E+02 -0.27287956704E+03  0.28289688230E+03  0.00000000000E+00 0. -1.
          1    1    1    2  502    0  0.15419679560E+02  0.61969647679E+02  0.23769326857E+04  0.23777903600E+04  0.00000000000E+00 0. -1.
         22    1    3    3    0    0  0.31408345546E+02 -0.55874023516E+02  0.74591482139E+01  0.64529292309E+02  0.00000000000E+00 0.  1.
         22    1    3    3    0    0 -0.72501085679E+02 -0.76154755398E+02  0.12930497385E+03  0.16666052459E+03  0.00000000000E+00 0.  1.
</event>
<event>
 7    1  0.6140348E-006  0.1130600E+03  0.7818608E-02  0.1288478E+00
          2   -1    0    0  502    0  0.00000000000E+00  0.00000000000E+00  0.28682572009E+03  0.28682572009E+03  0.00000000000E+00 0. -1.
          1   -1    0    0  501    0 -0.00000000000E+00 -0.00000000000E+00 -0.77864752542E+03  0.77864752542E+03  0.00000000000E+00 0. -1.
         25    2    1    2    0    0 -0.70592427996E+02 -0.68750949368E+02 -0.19903835559E+03  0.25485634814E+03  0.12500202902E+03 0.  0.
          2    1    1    2  501    0  0.12175185526E+03  0.48357734561E+01 -0.53824391752E+03  0.55186358251E+03  0.00000000000E+00 0. -1.
          1    1    1    2  502    0 -0.51159427259E+02  0.63915175912E+02  0.24546046778E+03  0.25875331486E+03  0.00000000000E+00 0. -1.
         22    1    3    3    0    0 -0.51077238894E+02 -0.73194725987E+02 -0.45805628914E+02  0.10032202094E+03  0.00000000000E+00 0. -1.
         22    1    3    3    0    0 -0.19515189101E+02  0.44437766196E+01 -0.15323272668E+03  0.15453432719E+03  0.00000000000E+00 0. -1.
</event>
<event>
 7    1  0.6140348E-006  0.7110841E+02  0.7818608E-02  0.1362292E+00
          2   -1    0    0  502    0  0.00000000000E+00  0.00000000000E+00  0.15261972872E+03  0.15261972872E+03  0.00000000000E+00 0. -1.
          1   -1    0    0  501    0 -0.00000000000E+00 -0.00000000000E+00 -0.82851029235E+03  0.82851029235E+03  0.00000000000E+00 0. -1.
         25    2    1    2    0    0  0.13271613103E+02  0.50957434844E+02 -0.26414510601E+03  0.29693950742E+03  0.12501055219E+03 0.  0.
          2    1    1    2  501    0  0.54147796831E+02 -0.56529437778E+02 -0.53655031251E+03  0.54223039300E+03  0.00000000000E+00 0. -1.
          1    1    1    2  502    0 -0.67419409934E+02  0.55720029343E+01  0.12480485489E+03  0.14196012065E+03  0.00000000000E+00 0. -1.
         22    1    3    3    0    0  0.67114305916E+02  0.21992941008E+02 -0.10586055502E+03  0.12725752088E+03  0.00000000000E+00 0.  1.
         22    1    3    3    0    0 -0.53842692812E+02  0.28964493835E+02 -0.15828455099E+03  0.16968198653E+03  0.00000000000E+00 0.  1.
</event>
<event>
 7    1  0.6140348E-006  0.5157125E+02  0.7818608E-02  0.1506358E+00
          2   -1    0    0  502    0  0.00000000000E+00  0.00000000000E+00  0.47229050794E+03  0.47229050794E+03  0.00000000000E+00 0. -1.
          1   -1    0    0  501    0 -0.00000000000E+00 -0.00000000000E+00 -0.58457495910E+03  0.58457495910E+03  0.00000000000E+00 0. -1.
         25    2    1    2    0    0 -0.56081270913E+02  0.42130715975E+02  0.13282025569E+03  0.19538979444E+03  0.12496337572E+03 0.  0.
          2    1    1    2  501    0  0.31346762366E+02  0.21262605442E+01 -0.55075426479E+03  0.55164970831E+03  0.00000000000E+00 0. -1.
          1    1    1    2  502    0  0.24734508547E+02 -0.44256976519E+02  0.30564955794E+03  0.30982596429E+03  0.00000000000E+00 0. -1.
         22    1    3    3    0    0  0.27617946183E+02  0.49709605239E+02  0.36561272865E+02  0.67605639394E+02  0.00000000000E+00 0.  1.
         22    1    3    3    0    0 -0.83699217097E+02 -0.75788892637E+01  0.96258982829E+02  0.12778415504E+03  0.00000000000E+00 0.  1.
</event>
<event>
 7    1  0.6140348E-006  0.1447596E+03  0.7818608E-02  0.1255263E+00
          2   -1    0    0  502    0  0.00000000000E+00  0.00000000000E+00  0.12736894767E+04  0.12736894767E+04  0.00000000000E+00 0. -1.
          1   -1    0    0  501    0 -0.00000000000E+00 -0.00000000000E+00 -0.18293525044E+03  0.18293525044E+03  0.00000000000E+00 0. -1.
         25    2    1    2    0    0 -0.25432342165E+02  0.92366920163E+02  0.43773586008E+03  0.46520514701E+03  0.12499877455E+03 0.  0.
          2    1    1    2  501    0 -0.48459341791E+02  0.73547637067E+02 -0.14682360457E+03  0.17121545954E+03  0.00000000000E+00 0. -1.
          1    1    1    2  502    0  0.73891683955E+02 -0.16591455723E+03  0.79984197076E+03  0.82020412059E+03  0.00000000000E+00 0. -1.
         22    1    3    3    0    0 -0.91846121045E+00  0.11588868634E+03  0.26613843709E+03  0.29027693482E+03  0.00000000000E+00 0.  1.
         22    1    3    3    0    0 -0.24513880954E+02 -0.23521766178E+02  0.17159742299E+03  0.17492821219E+03  0.00000000000E+00 0.  1.
</event>
<event>
 7    1  0.6140348E-006  0.5047544E+02  0.7818608E-02  0.1539628E+00
          2   -1    0    0  502    0  0.00000000000E+00  0.00000000000E+00  0.24118570070E+04  0.24118570070E+04  0.00000000000E+00 0. -1.
          1   -1    0    0  501    0 -0.00000000000E+00 -0.00000000000E+00 -0.14015559473E+04  0.14015559473E+04  0.00000000000E+00 0. -1.
         25    2    1    2    0    0 -0.13437939961E+02  0.37854148709E+02  0.91614108966E+03  0.92550088000E+03  0.12499547153E+03 0.  0.
          2    1    1    2  501    0  0.38602194126E+02 -0.32533533381E+02 -0.13963089432E+04  0.13972212513E+04  0.00000000000E+00 0. -1.
          1    1    1    2  502    0 -0.25164254165E+02 -0.53206153287E+01  0.14904689132E+04  0.14906908230E+04  0.00000000000E+00 0. -1.
         22    1    3    3    0    0 -0.21132781856E+02 -0.38770961954E+02  0.17975949478E+03  0.18510337091E+03  0.00000000000E+00 0. -1.
         22    1    3    3    0    0  0.76948418953E+01  0.76625110663E+02  0.73638159488E+03  0.74039750908E+03  0.00000000000E+00 0. -1.
</event>
<event>
 7    1  0.6140348E-006  0.6822206E+02  0.7818608E-02  0.1472597E+00
          2   -1    0    0  502    0  0.00000000000E+00  0.00000000000E+00  0.12572125383E+03  0.12572125383E+03  0.00000000000E+00 0. -1.
          1   -1    0    0  501    0 -0.00000000000E+00 -0.00000000000E+00 -0.93303523097E+03  0.93303523097E+03  0.00000000000E+00 0. -1.
         25    2    1    2    0    0  0.63901762517E+01  0.90588029016E+02 -0.23404120895E+03  0.28044026443E+03  0.12499771627E+03 0.  0.
          2    1    1    2  501    0  0.10746665256E+02 -0.65898706138E+02 -0.67190111954E+03  0.67521051882E+03  0.00000000000E+00 0. -1.
          1    1    1    2  502    0 -0.17136841507E+02 -0.24689322877E+02  0.98628351354E+02  0.10310570155E+03  0.00000000000E+00 0. -1.
         22    1    3    3    0    0 -0.24334459431E+02  0.10955237186E+03 -0.13821320436E+03  0.17803588951E+03  0.00000000000E+00 0.  1.
         22    1    3    3    0    0  0.30724635683E+02 -0.18964342847E+02 -0.95828004596E+02  0.10240437492E+03  0.00000000000E+00 0.  1.
</event>
<event>
 7    1  0.6140348E-006  0.6006685E+02  0.7818608E-02  0.1409829E+00
          2   -1    0    0  502    0  0.00000000000E+00  0.00000000000E+00  0.68726108225E+03  0.68726108225E+03  0.00000000000E+00 0. -1.
          1   -1    0    0  501    0 -0.00000000000E+00 -0.00000000000E+00 -0.88031365155E+03  0.88031365155E+03  0.00000000000E+00 0. -1.
         25    2    1    2    0    0 -0.67119843455E+02  0.87354312008E+02 -0.24336596239E+03  0.29493619656E+03  0.12499807671E+03 0.  0.
          2    1    1    2  501    0  0.26373908826E+02 -0.51113639766E+02 -0.60868067343E+03  0.61139214048E+03  0.00000000000E+00 0. -1.
          1    1    1    2  502    0  0.40745934629E+02 -0.36240672242E+02  0.65899406652E+03  0.66124639676E+03  0.00000000000E+00 0. -1.
         22    1    3    3    0    0  0.22525889086E+02 -0.17452591617E+02 -0.36385093140E+02  0.46215621126E+02  0.00000000000E+00 0. -1.
         22    1    3    3    0    0 -0.89645732540E+02  0.10480690362E+03 -0.20698086925E+03  0.24872057544E+03  0.00000000000E+00 0. -1.
</event>
<event>
 7    1  0.6140348E-006  0.1972252E+03  0.7818608E-02  0.1290308E+00
          2   -1    0    0  502    0  0.00000000000E+00  0.00000000000E+00  0.22611319285E+04  0.22611319285E+04  0.00000000000E+00 0. -1.
          1   -1    0    0  501    0 -0.00000000000E+00 -0.00000000000E+00 -0.11168645806E+04  0.11168645806E+04  0.00000000000E+00 0. -1.
         25    2    1    2    0    0  0.11589603726E+03 -0.20912720629E+03 -0.41746118749E+03  0.49705632110E+03  0.12500025371E+03 0.  0.
          2    1    1    2  501    0 -0.61622312597E+01  0.45719393558E+02 -0.65443183068E+03  0.65605583379E+03  0.00000000000E+00 0. -1.
          1    1    1    2  502    0 -0.10973380600E+03  0.16340781273E+03  0.22161603661E+04  0.22248843542E+04  0.00000000000E+00 0. -1.
         22    1    3    3    0    0  0.40786777092E+02 -0.21172914281E+02 -0.18213426182E+02  0.49432604402E+02  0.00000000000E+00 0.  1.
         22    1    3    3    0    0  0.75109260171E+02 -0.18795429201E+03 -0.39924776130E+03  0.44762371670E+03  0.00000000000E+00 0.  1.
</event>
<event>
 7    1  0.6140348E-006  0.6312025E+02  0.7818608E-02  0.1426720E+00
          2   -1    0    0  502    0  0.00000000000E+00  0.00000000000E+00  0.79428915602E+03  0.79428915602E+03  0.00000000000E+00 0. -1.
          1   -1    0    0  501    0 -0.00000000000E+00 -0.00000000000E+00 -0.55836304130E+03  0.55836304130E+03  0.00000000000E+00 0. -1.
         25    2    1    2    0    0 -0.67168118261E+02 -0.64543481277E+02 -0.38609662607E+03  0.41638035928E+03  0.12499832735E+03 0.  0.
          2    1    1    2  501    0  0.49984845485E+02  0.22351945455E+02 -0.15166383115E+03  0.16124519194E+03  0.00000000000E+00 0. -1.
          1    1    1    2  502    0  0.17183272776E+02  0.42191535822E+02  0.77368657195E+03  0.77502664610E+03  0.00000000000E+00 0. -1.
         22    1    3    3    0    0 -0.16304583842E+02  0.33089934302E+02 -0.16885082744E+03  0.17283340283E+03  0.00000000000E+00 0. -1.
         22    1    3    3    0    0 -0.50863534420E+02 -0.97633415579E+02 -0.21724579864E+03  0.24354695645E+03  0.00000000000E+00 0. -1.
</event>
<event>
 7    1  0.6140348E-006  0.5117010E+02  0.7818608E-02  0.1543292E+00
          2   -1    0    0  502    0  0.00000000000E+00  0.00000000000E+00  0.17467481531E+04  0.17467481531E+04  0.00000000000E+00 0. -1.
          1   -1    0    0  501    0 -0.00000000000E+00 -0.00000000000E+00 -0.28289116614E+03  0.28289116614E+03  0.00000000000E+00 0. -1.
         25    2    1    2    0    0  0.37642360136E+02  0.64865511083E+02 -0.25571887925E+02  0.14799847638E+03  0.12500058302E+03 0.  0.
          2    1    1    2  501    0 -0.16717982729E+02 -0.18283645807E+02 -0.19493501776E+03  0.19650303764E+03  0.00000000000E+00 0. -1.
          1    1    1    2  502    0 -0.20924377407E+02 -0.46581865276E+02  0.16843638926E+04  0.16851378052E+04  0.00000000000E+00 0. -1.
         22    1    3    3    0    0  0.48218218005E+02  0.93403795140E+02  0.45015954768E+01  0.10521183325E+03  0.00000000000E+00 0.  1.
         22    1    3    3    0    0 -0.10575857869E+02 -0.28538284057E+02 -0.30073483402E+02  0.42786643132E+02  0.00000000000E+00 0.  1.
</event>
<event>
 7    1  0.6140348E-006  0.4653394E+02  0.7818608E-02  0.1522774E+00
          2   -1    0    0  502    0  0.00000000000E+00  0.00000000000E+00  0.68811766321E+02  0.68811766321E+02  0.00000000000E+00 0. -1.
          1   -1    0    0  501    0 -0.00000000000E+00 -0.00000000000E+00 -0.19080963884E+04  0.19080963884E+04  0.00000000000E+00 0. -1.
         25    2    1    2    0    0 -0.34194938390E+02 -0.54568173963E+02 -0.11966497576E+03  0.18465123359E+03  0.12501756765E+03 0.  0.
          2    1    1    2  501    0  0.41522033373E+01  0.46243979378E+02 -0.17488831364E+04  0.17494993488E+04  0.00000000000E+00 0. -1.
          1    1    1    2  502    0  0.30042735052E+02  0.83241945846E+01  0.29263490088E+02  0.42757572394E+02  0.00000000000E+00 0. -1.
         22    1    3    3    0    0  0.12148013369E+02  0.43713278314E+01  0.21345874689E+02  0.24946524850E+02  0.00000000000E+00 0. -1.
         22    1    3    3    0    0 -0.46342951759E+02 -0.58939501794E+02 -0.14101085045E+03  0.15970470874E+03  0.00000000000E+00 0. -1.
</event>
<event>
 7    1  0.6140348E-006  0.7965457E+02  0.7818608E-02  0.1369718E+00
          2   -1    0    0  502    0  0.00000000000E+00  0.00000000000E+00  0.39509999734E+03  0.39509999734E+03  0.00000000000E+00 0. -1.
          1   -1    0    0  501    0 -0.00000000000E+00 -0.00000000000E+00 -0.23365681025E+04  0.23365681025E+04  0.00000000000E+00 0. -1.
         25    2    1    2    0    0 -0.77653861588E+02 -0.10732456019E+03  0.13861306086E+03  0.22888306496E+03  0.12500077338E+03 0.  0.
          2    1    1    2  501    0  0.58360907737E+02  0.53933614824E+02 -0.22869183613E+04  0.22882985866E+04  0.00000000000E+00 0. -1.
          1    1    1    2  502    0  0.19292953851E+02  0.53390945369E+02  0.20683719530E+03  0.21448644823E+03  0.00000000000E+00 0. -1.
         22    1    3    3    0    0 -0.65276073607E+02  0.41592681197E+01  0.76552504106E+02  0.10069037284E+03  0.00000000000E+00 0.  1.
         22    1    3    3    0    0 -0.12377787980E+02 -0.11148382831E+03  0.62060556753E+02  0.12819269213E+03  0.00000000000E+00 0.  1.
</event>
<event>
 7    1  0.6140348E-006  0.1188315E+03  0.7818608E-02  0.1406838E+00
          2   -1    0    0  502    0  0.00000000000E+00  0.00000000000E+00  0.29390668812E+04  0.29390668812E+04  0.00000000000E+00 0. -1.
          1   -1    0    0  501    0 -0.00000000000E+00 -0.00000000000E+00 -0.13203269635E+03  0.13203269635E+03  0.00000000000E+00 0. -1.
         25    2    1    2    0    0  0.57678727213E+02  0.75200819757E+02  0.14387373424E+04  0.14472643754E+04  0.12500813182E+03 0.  0.
          2    1    1    2  501    0 -0.84364822780E+02 -0.84367634651E+02 -0.99750432398E+02  0.15551678322E+03  0.00000000000E+00 0. -1.
          1    1    1    2  502    0  0.26686095567E+02  0.91668148943E+01  0.14680472748E+04  0.14683184189E+04  0.00000000000E+00 0. -1.
         22    1    3    3    0    0  0.78803113019E+02  0.76004568484E+02  0.13878370950E+04  0.13921488524E+04  0.00000000000E+00 0.  1.
         22    1    3    3    0    0 -0.21124385806E+02 -0.80374872771E+00  0.50900247441E+02  0.55115523015E+02  0.00000000000E+00 0.  1.
</event>
<event>
 7    1  0.6140348E-006  0.5590810E+02  0.7818608E-02  0.1530817E+00
          2   -1    0    0  502    0  0.00000000000E+00  0.00000000000E+00  0.15632293118E+03  0.15632293118E+03  0.00000000000E+00 0. -1.
          1   -1    0    0  501    0 -0.00000000000E+00 -0.00000000000E+00 -0.40436238057E+03  0.40436238057E+03  0.00000000000E+00 0. -1.
         25    2    1    2    0    0 -0.34546237625E+02  0.37578104501E+02 -0.19245077205E+03  0.23508822569E+03  0.12499447078E+03 0.  0.
          2    1    1    2  501    0  0.53469564180E+02 -0.21858078115E+02 -0.18503076954E+03  0.19383796209E+03  0.00000000000E+00 0. -1.
          1    1    1    2  502    0 -0.18923326555E+02 -0.15720026386E+02  0.12944209219E+03  0.13175912397E+03  0.00000000000E+00 0. -1.
         22    1    3    3    0    0 -0.47557447467E+02 -0.22010711928E+02 -0.15475474295E+03  0.16338669687E+03  0.00000000000E+00 0.  1.
         22    1    3    3    0    0  0.13011209841E+02  0.59588816430E+02 -0.37696029093E+02  0.71701528815E+02  0.00000000000E+00 0.  1.
</event>
<event>
 7    1  0.6140348E-006  0.1545387E+03  0.7818608E-02  0.1240901E+00
          2   -1    0    0  502    0  0.00000000000E+00  0.00000000000E+00  0.13477960003E+04  0.13477960003E+04  0.00000000000E+00 0. -1.
          1   -1    0    0  501    0 -0.00000000000E+00 -0.00000000000E+00 -0.27316152829E+03  0.27316152829E+03  0.00000000000E+00 0. -1.
         25    2    1    2    0    0 -0.25246723629E+02 -0.23671078850E+03  0.13473434823E+03  0.30074484869E+03  0.12499889989E+03 0.  0.
          2    1    1    2  501    0  0.32410052673E+01  0.14401182838E+03 -0.16051927293E+03  0.21567648877E+03  0.00000000000E+00 0. -1.
          1    1    1    2  502    0  0.22005718361E+02  0.92698960127E+02  0.11004193967E+04  0.11045361911E+04  0.00000000000E+00 0. -1.
         22    1    3    3    0    0 -0.15969929957E+02 -0.24411746561E+03  0.14556892908E+03  0.28467295058E+03  0.00000000000E+00 0.  1.
         22    1    3    3    0    0 -0.92767936711E+01  0.74066771038E+01 -0.10834580857E+02  0.16071898110E+02  0.00000000000E+00 0.  1.
</event>
<event>
 7    1  0.6140348E-006  0.7160656E+02  0.7818608E-02  0.1476221E+00
          2   -1    0    0  502    0  0.00000000000E+00  0.00000000000E+00  0.94012442789E+03  0.94012442789E+03  0.00000000000E+00 0. -1.
          1   -1    0    0  501    0 -0.00000000000E+00 -0.00000000000E+00 -0.37030370291E+03  0.37030370291E+03  0.00000000000E+00 0. -1.
         25    2    1    2    0    0 -0.81022457637E+02  0.55957350496E+02  0.18874116964E+03  0.24686761482E+03  0.12499810563E+03 0.  0.
          2    1    1    2  501    0  0.61164777031E+02 -0.36353260160E+02 -0.33725761262E+03  0.34468157297E+03  0.00000000000E+00 0. -1.
          1    1    1    2  502    0  0.19857680606E+02 -0.19604090336E+02  0.71833716796E+03  0.71887894301E+03  0.00000000000E+00 0. -1.
         22    1    3    3    0    0 -0.22372981842E+02 -0.16630654866E+02  0.13771385999E+03  0.14050706826E+03  0.00000000000E+00 0.  1.
         22    1    3    3    0    0 -0.58649475795E+02  0.72588005362E+02  0.51027309659E+02  0.10636054656E+03  0.00000000000E+00 0.  1.
</event>
<event>
 7    1  0.6140348E-006  0.1059990E+03  0.7818608E-02  0.1364865E+00
          2   -1    0    0  502    0  0.00000000000E+00  0.00000000000E+00  0.12269908941E+04  0.12269908941E+04  0.00000000000E+00 0. -1.
          1   -1    0    0  501    0 -0.00000000000E+00 -0.00000000000E+00 -0.42745403599E+02  0.42745403599E+02  0.00000000000E+00 0. -1.
         25    2    1    2    0    0  0.12111009295E+03  0.57097814047E+02  0.33310206474E+03  0.38014628887E+03  0.12500560157E+03 0.  0.
          2    1    1    2  501    0 -0.94416019353E+02 -0.21597781116E+02  0.10779537664E+03  0.14491615536E+03  0.00000000000E+00 0. -1.
          1    1    1    2  502    0 -0.26694073601E+02 -0.35500032931E+02  0.74334804908E+03  0.74467385343E+03  0.00000000000E+00 0. -1.
         22    1    3    3    0    0  0.11663091398E+02  0.62911867622E+02  0.68455396965E+02  0.93702039264E+02  0.00000000000E+00 0. -1.
         22    1    3    3    0    0  0.10944700156E+03 -0.58140535754E+01  0.26464666778E+03  0.28644424961E+03  0.00000000000E+00 0. -1.
</event>
<event>
 7    1  0.6140348E-006  0.1369672E+03  0.7818608E-02  0.1251605E+00
          2   -1    0    0  502    0  0.00000000000E+00  0.00000000000E+00  0.38515966633E+04  0.38515966633E+04  0.00000000000E+00 0. -1.
          1   -1    0    0  501    0 -0.00000000000E+00 -0.00000000000E+00 -0.18770781387E+04  0.18770781387E+04  0.00000000000E+00 0. -1.
         25    2    1    2    0    0 -0.10324680351E+03 -0.18665798544E+03 -0.67593931607E+03  0.71973607019E+03  0.12499978301E+03 0.  0.
          2    1    1    2  501    0  0.25724840222E+00  0.96532551796E+02 -0.11760395664E+04  0.11799947718E+04  0.00000000000E+00 0. -1.
          1    1    1    2  502    0  0.10298955510E+03  0.90125433646E+02  0.38264974071E+04  0.38289439599E+04  0.00000000000E+00 0. -1.
         22    1    3    3    0    0 -0.79680904297E+02 -0.19564670713E+03 -0.65037751794E+03  0.68382570613E+03  0.00000000000E+00 0. -1.
         22    1    3    3    0    0 -0.23565899209E+02  0.89887216879E+01 -0.25561798134E+02  0.35910364061E+02  0.00000000000E+00 0. -1.
</event>
<event>
 7    1  0.6140348E-006  0.4941625E+02  0.7818608E-02  0.1527771E+00
          2   -1    0    0  502    0  0.00000000000E+00  0.00000000000E+00  0.12433752770E+03  0.12433752770E+03  0.00000000000E+00 0. -1.
          1   -1    0    0  501    0 -0.00000000000E+00 -0.00000000000E+00 -0.40545877705E+03  0.40545877705E+03  0.00000000000E+00 0. -1.
         25    2    1    2    0    0  0.27738508944E+02  0.27779499352E+01 -0.10588424678E+03  0.16617330237E+03  0.12499980328E+03 0.  0.
          2    1    1    2  501    0  0.15287731718E+02  0.23932280301E+02 -0.26179916758E+03  0.26333490639E+03  0.00000000000E+00 0. -1.
          1    1    1    2  502    0 -0.43026240662E+02 -0.26710230236E+02  0.86562165015E+02  0.10028809599E+03  0.00000000000E+00 0. -1.
         22    1    3    3    0    0 -0.15176138553E+02  0.56073414124E+02 -0.35859110767E+02  0.68267259927E+02  0.00000000000E+00 0. -1.
         22    1    3    3    0    0  0.42914647497E+02 -0.53295464189E+02 -0.70025136014E+02  0.97906042442E+02  0.00000000000E+00 0. -1.
</event>
<event>
 7    1  0.6140348E-006  0.6186132E+02  0.7818608E-02  0.1403152E+00
          2   -1    0    0  502    0  0.00000000000E+00  0.00000000000E+00  0.14145786650E+04  0.14145786650E+04  0.00000000000E+00 0. -1.
          1   -1    0    0  501    0 -0.00000000000E+00 -0.00000000000E+00 -0.19954603079E+03  0.19954603079E+03  0.00000000000E+00 0. -1.
         25    2    1    2    0    0 -0.48897178624E+02 -0.57879863507E+02  0.25831882204E+02  0.14844576674E+03  0.12501138688E+03 0.  0.
          2    1    1    2  501    0 -0.12969997552E+02  0.54267402730E+02 -0.13185289183E+03  0.14317247264E+03  0.00000000000E+00 0. -1.
          1    1    1    2  502    0  0.61867176177E+02  0.36124607768E+01  0.13210536438E+04  0.13225064564E+04  0.00000000000E+00 0. -1.
         22    1    3    3    0    0 -0.28694290663E+02 -0.97186997316E+02  0.11500022420E+02  0.10198492673E+03  0.00000000000E+00 0.  1.
         22    1    3    3    0    0 -0.20202887961E+02  0.39307133809E+02  0.14331859784E+02  0.46460840017E+02  0.00000000000E+00 0.  1.
</event>
<event>
 7    1  0.6140348E-006  0.1181129E+03  0.7818608E-02  0.1435917E+00
          2   -1    0    0  502    0  0.00000000000E+00  0.00000000000E+00  0.30711536250E+03  0.30711536250E+03  0.00000000000E+00 0. -1.
          1   -1    0    0  501    0 -0.00000000000E+00 -0.00000000000E+00 -0.24032776817E+03  0.24032776817E+03  0.00000000000E+00 0. -1.
         25    2    1    2    0    0 -0.22310884390E+02  0.98968172991E+02  0.40494691773E+02  0.16601007539E+03  0.12500820070E+03 0.  0.
          2    1    1    2  501    0 -0.12039979345E+02  0.19254693483E+02 -0.15809770709E+03  0.15972034721E+03  0.00000000000E+00 0. -1.
          1    1    1    2  502    0  0.34350863736E+02 -0.11822286647E+03  0.18439060965E+03  0.22171270808E+03  0.00000000000E+00 0. -1.
         22    1    3    3    0    0 -0.49076090404E+02 -0.16079013610E+01 -0.10344526255E+02  0.50180247305E+02  0.00000000000E+00 0.  1.
         22    1    3    3    0    0  0.26765206014E+02  0.10057607435E+03  0.50839218028E+02  0.11582982809E+03  0.00000000000E+00 0.  1.
</event>
<event>
 7    1  0.6140348E-006  0.1575319E+03  0.7818608E-02  0.1241968E+00
          2   -1    0    0  502    0  0.00000000000E+00  0.00000000000E+00  0.53120275528E+03  0.53120275528E+03  0.00000000000E+00 0. -1.
          1   -1    0    0  501    0 -0.00000000000E+00 -0.00000000000E+00 -0.87652550134E+03  0.87652550134E+03  0.00000000000E+00 0. -1.
         25    2    1    2    0    0  0.23893705156E+03 -0.52059769895E+02  0.19746731589E+03  0.33825967422E+03  0.12500052844E+03 0.  0.
          2    1    1    2  501    0 -0.14648262654E+03  0.51071249347E+02 -0.79023285967E+03  0.80531571753E+03  0.00000000000E+00 0. -1.
          1    1    1    2  502    0 -0.92454425021E+02  0.98852054797E+00  0.24744279772E+03  0.26415286488E+03  0.00000000000E+00 0. -1.
         22    1    3    3    0    0  0.95031328647E+02  0.33971097773E+02  0.10953458370E+03  0.14893896043E+03  0.00000000000E+00 0. -1.
         22    1    3    3    0    0  0.14390572291E+03 -0.86030867668E+02  0.87932732185E+02  0.18932071379E+03  0.00000000000E+00 0. -1.
</event>
<event>
 7    1  0.6140348E-006  0.1612765E+03  0.7818608E-02  0.1313670E+00
          2   -1    0    0  502    0  0.00000000000E+00  0.00000000000E+00  0.11903398668E+04  0.11903398668E+04  0.00000000000E+00 0. -1.
          1   -1    0    0  501    0 -0.00000000000E+00 -0.00000000000E+00 -0.31137548431E+03  0.31137548431E+03  0.00000000000E+00 0. -1.
         25    2    1    2    0    0  0.12094105867E+03 -0.47147890103E+02  0.48805472030E+02  0.18669988436E+03  0.12500083802E+03 0.  0.
          2    1    1    2  501    0 -0.16537287254E+03  0.37273378331E+02 -0.21223577795E+03  0.27162753386E+03  0.00000000000E+00 0. -1.
          1    1    1    2  502    0  0.44431813871E+02  0.98745117716E+01  0.10423946884E+04  0.10433879329E+04  0.00000000000E+00 0. -1.
         22    1    3    3    0    0  0.38469470748E+02  0.11129159977E+02 -0.36744302922E+02  0.54349813051E+02  0.00000000000E+00 0. -1.
         22    1    3    3    0    0  0.82471587925E+02 -0.58277050080E+02  0.85549774953E+02  0.13235007131E+03  0.00000000000E+00 0. -1.
</event>
<event>
 7    1  0.6140348E-006  0.3395625E+02  0.7818608E-02  0.1561443E+00
          2   -1    0    0  502    0  0.00000000000E+00  0.00000000000E+00  0.17853000221E+04  0.17853000221E+04  0.00000000000E+00 0. -1.
          1   -1    0    0  501    0 -0.00000000000E+00 -0.00000000000E+00 -0.14401473556E+03  0.14401473556E+03  0.00000000000E+00 0. -1.
         25    2    1    2    0    0 -0.20888463507E+02  0.16823780995E+00  0.20330347937E+03  0.23957383780E+03  0.12500785104E+03 0.  0.
          2    1    1    2  501    0  0.12314117150E+02  0.31944354928E+02 -0.12337163395E+03  0.12803374304E+03  0.00000000000E+00 0. -1.
          1    1    1    2  502    0  0.85743463570E+01 -0.32112592738E+02  0.15613534411E+04  0.15617071768E+04  0.00000000000E+00 0. -1.
         22    1    3    3    0    0  0.17310257146E+01 -0.30912505342E+02  0.19842418835E+03  0.20082514275E+03  0.00000000000E+00 0.  1.
         22    1    3    3    0    0 -0.22619489222E+02  0.31080743152E+02  0.48792910197E+01  0.38748695054E+02  0.00000000000E+00 0.  1.
</event>
<event>
 7    1  0.6140348E-006  0.1431771E+03  0.7818608E-02  0.1219886E+00
          2   -1    0    0  502    0  0.00000000000E+00  0.00000000000E+00  0.11036860028E+04  0.11036860028E+04  0.00000000000E+00 0. -1.
          1   -1    0    0  501    0 -0.00000000000E+00 -0.00000000000E+00 -0.85696059465E+03  0.85696059465E+03  0.00000000000E+00 0. -1.
         25    2    1    2    0    0  0.33870161740E+02 -0.22973314572E+03  0.35980908240E+03  0.44610688236E+03  0.12499707441E+03 0.  0.
          2    1    1    2  501    0 -0.75081895743E+02  0.10334111136E+03 -0.80240870301E+03  0.81251240177E+03  0.00000000000E+00 0. -1.
          1    1    1    2  502    0  0.41211734003E+02  0.12639203436E+03  0.68932502874E+03  0.70202731330E+03  0.00000000000E+00 0. -1.
         22    1    3    3    0    0  0.43332068318E+02 -0.15914098111E+03  0.32995063276E+03  0.36887794740E+03  0.00000000000E+00 0.  1.
         22    1    3    3    0    0 -0.94619065775E+01 -0.70592164612E+02  0.29858449632E+02  0.77228934961E+02  0.00000000000E+00 0.  1.
</event>
<event>
 7    1  0.6140348E-006  0.3661618E+02  0.7818608E-02  0.1538178E+00
          2   -1    0    0  502    0  0.00000000000E+00  0.00000000000E+00  0.41668526290E+02  0.41668526290E+02  0.00000000000E+00 0. -1.
          1   -1    0    0  501    0 -0.00000000000E+00 -0.00000000000E+00 -0.14566322962E+04  0.14566322962E+04  0.00000000000E+00 0. -1.
         25    2    1    2    0    0 -0.15067969429E+02  0.32759587798E+02 -0.15423323480E+03  0.20177655336E+03  0.12500260987E+03 0.  0.
          2    1    1    2  501    0 -0.20651868214E+02 -0.30479992756E+02 -0.12601899704E+04  0.12607276831E+04  0.00000000000E+00 0. -1.
          1    1    1    2  502    0  0.35719837642E+02 -0.22795950428E+01 -0.54056469255E+00  0.35796585940E+02  0.00000000000E+00 0. -1.
         22    1    3    3    0    0 -0.39987542980E+02  0.66797069187E+02 -0.59206551863E+02  0.97807299467E+02  0.00000000000E+00 0. -1.
         22    1    3    3    0    0  0.24919573551E+02 -0.34037481389E+02 -0.95026682937E+02  0.10396925389E+03  0.00000000000E+00 0. -1.
</event>
<event>
 7    1  0.6140348E-006  0.7088036E+02  0.7818608E-02  0.1362978E+00
          2   -1    0    0  502    0  0.00000000000E+00  0.00000000000E+00  0.35302149863E+03  0.35302149863E+03  0.00000000000E+00 0. -1.
          1   -1    0    0  501    0 -0.00000000000E+00 -0.00000000000E+00 -0.46575990635E+03  0.46575990635E+03  0.00000000000E+00 0. -1.
         25    2    1    2    0    0  0.13623453498E+02  0.46081077138E+01 -0.85251421276E+02  0.15199717159E+03  0.12501400801E+03 0.  0.
          2    1    1    2  501    0 -0.10787900300E+01  0.67469817131E+02 -0.33958568802E+03  0.34622504173E+03  0.00000000000E+00 0. -1.
          1    1    1    2  502    0 -0.12544663468E+02 -0.72077924845E+02  0.31209870158E+03  0.32055919166E+03  0.00000000000E+00 0. -1.
         22    1    3    3    0    0 -0.44862559876E+02 -0.32428754613E+02 -0.48619188510E+02  0.73675632985E+02  0.00000000000E+00 0. -1.
         22    1    3    3    0    0  0.58486013374E+02  0.37036862327E+02 -0.36632232766E+02  0.78321538601E+02  0.00000000000E+00 0. -1.
</event>
<event>
 7    1  0.6140348E-006  0.4595800E+02  0.7818608E-02  0.1521131E+00
          2   -1    0    0  502    0  0.00000000000E+00  0.00000000000E+00  0.41571536922E+03  0.41571536922E+03  0.00000000000E+00 0. -1.
          1   -1    0    0  501    0 -0.00000000000E+00 -0.00000000000E+00 -0.34737641547E+03  0.34737641547E+03  0.00000000000E+00 0. -1.
         25    2    1    2    0    0  0.44869387075E+02 -0.53425716528E+02 -0.62802116912E+02  0.15632108581E+03  0.12499842758E+03 0.  0.
          2    1    1    2  501    0 -0.39327840262E+02  0.21997497058E+02 -0.23497984288E+03  0.23926156285E+03  0.00000000000E+00 0. -1.
          1    1    1    2  502    0 -0.55415468134E+01  0.31428219470E+02  0.36612091355E+03  0.36750913602E+03  0.00000000000E+00 0. -1.
         22    1    3    3    0    0  0.27662174562E+02 -0.83023953443E+02 -0.79499276553E+02  0.11822989351E+03  0.00000000000E+00 0.  1.
         22    1    3    3    0    0  0.17207212513E+02  0.29598236915E+02  0.16697159641E+02  0.38091192303E+02  0.00000000000E+00 0.  1.
</event>
<event>
 7    1  0.6140348E-006  0.8506539E+02  0.7818608E-02  0.1358600E+00
          2   -1    0    0  502    0  0.00000000000E+00  0.00000000000E+00  0.80615269271E+03  0.80615269271E+03  0.00000000000E+00 0. -1.
          1   -1    0    0  501    0 -0.00000000000E+00 -0.00000000000E+00 -0.22701471085E+04  0.22701471085E+04  0.00000000000E+00 0. -1.
         25    2    1    2    0    0 -0.10524255416E+02  0.36716461483E+02  0.13009478908E+02  0.13135126835E+03  0.12500020263E+03 0.  0.
          2    1    1    2  501    0 -0.53899391140E+02  0.22300425697E+02 -0.22079896428E+04  0.22087599952E+04  0.00000000000E+00 0. -1.
          1    1    1    2  502    0  0.64423646556E+02 -0.59016887181E+02  0.73098574809E+03  0.73618853775E+03  0.00000000000E+00 0. -1.
         22    1    3    3    0    0 -0.29023577058E+01 -0.46679092873E+02  0.12448394060E+01  0.46785799307E+02  0.00000000000E+00 0.  1.
         22    1    3    3    0    0 -0.76218977100E+01  0.83395554356E+02  0.11764639502E+02  0.84565469038E+02  0.00000000000E+00 0.  1.
</event>
<event>
 7    1  0.6140348E-006  0.2336623E+03  0.7818608E-02  0.1184226E+00
          2   -1    0    0  502    0  0.00000000000E+00  0.00000000000E+00  0.43432776884E+04  0.43432776884E+04  0.00000000000E+00 0. -1.
          1   -1    0    0  501    0 -0.00000000000E+00 -0.00000000000E+00 -0.19918319788E+03  0.19918319788E+03  0.00000000000E+00 0. -1.
         25    2    1    2    0    0  0.11639482065E+03  0.24002354701E+03  0.38425383031E+03  0.48418532309E+03  0.12500145436E+03 0.  0.
          2    1    1    2  501    0 -0.18052752840E+03 -0.14439666957E+03 -0.58291049866E+02  0.23840812316E+03  0.00000000000E+00 0. -1.
          1    1    1    2  502    0  0.64132707748E+02 -0.95626877439E+02  0.38181317101E+04  0.38198674401E+04  0.00000000000E+00 0. -1.
         22    1    3    3    0    0 -0.18043152632E+02  0.66347172710E+02  0.53348763077E+02  0.87026393728E+02  0.00000000000E+00 0.  1.
         22    1    3    3    0    0  0.13443797328E+03  0.17367637430E+03  0.33090506723E+03  0.39715892936E+03  0.00000000000E+00 0.  1.
</event>
<event>
 7    1  0.6140348E-006  0.7971911E+02  0.7818608E-02  0.1430142E+00
          2   -1    0    0  502    0  0.00000000000E+00  0.00000000000E+00  0.16885226612E+04  0.16885226612E+04  0.00000000000E+00 0. -1.
          1   -1    0    0  501    0 -0.00000000000E+00 -0.00000000000E+00 -0.11316322674E+03  0.11316322674E+03  0.00000000000E+00 0. -1.
         25    2    1    2    0    0 -0.76776435690E+02 -0.36276734545E+02  0.68045856259E+03  0.69703651242E+03  0.12500168682E+03 0.  0.
          2    1    1    2  501    0 -0.31500036263E+01  0.35003689398E+02 -0.10028150935E+03  0.10626176129E+03  0.00000000000E+00 0. -1.
          1    1    1    2  502    0  0.79926439316E+02  0.12730451471E+01  0.99518238122E+03  0.99838761422E+03  0.00000000000E+00 0. -1.
         22    1    3    3    0    0  0.22789598311E+02 -0.45659696281E+02  0.24059180980E+03  0.24594428759E+03  0.00000000000E+00 0. -1.
         22    1    3    3    0    0 -0.99566034001E+02  0.93829617359E+01  0.43986675279E+03  0.45109222483E+03  0.00000000000E+00 0. -1.
</event>
<event>
 7    1  0.6140348E-006  0.8033236E+02  0.7818608E-02  0.1328788E+00
          2   -1    0    0  502    0  0.00000000000E+00  0.00000000000E+00  0.37388779160E+03  0.37388779160E+03  0.00000000000E+00 0. -1.
          1   -1    0    0  501    0 -0.00000000000E+00 -0.00000000000E+00 -0.47055651257E+03  0.47055651257E+03  0.00000000000E+00 0. -1.
         25    2    1    2    0    0 -0.10973175516E+03 -0.55402783120E+02 -0.24576612742E+03  0.30188680309E+03  0.12499650406E+03 0.  0.
          2    1    1    2  501    0  0.77792825785E+02 -0.18025772263E+02 -0.18367710353E+03  0.20028462390E+03  0.00000000000E+00 0. -1.
          1    1    1    2  502    0  0.31938929371E+02  0.73428555382E+02  0.33277450999E+03  0.34227287718E+03  0.00000000000E+00 0. -1.
         22    1    3    3    0    0 -0.93733240906E+02 -0.70101263233E+02 -0.25318342428E+03  0.27893001611E+03  0.00000000000E+00 0. -1.
         22    1    3    3    0    0 -0.15998514250E+02  0.14698480114E+02  0.74172968588E+01  0.22956786983E+02  0.00000000000E+00 0. -1.
</event>
<event>
 7    1  0.6140348E-006  0.1088087E+03  0.7818608E-02  0.1374041E+00
          2   -1    0    0  502    0  0.00000000000E+00  0.00000000000E+00  0.86829224450E+03  0.86829224450E+03  0.00000000000E+00 0. -1.
          1   -1    0    0  501    0 -0.00000000000E+00 -0.00000000000E+00 -0.24766541322E+03  0.24766541322E+03  0.00000000000E+00 0. -1.
         25    2    1    2    0    0 -0.64940147741E+02  0.11232403656E+03 -0.51557629443E+01  0.18023806788E+03  0.12500106898E+03 0.  0.
          2    1    1    2  501    0  0.26191207802E+02 -0.10199451689E+03 -0.13649148929E+03  0.17239137882E+03  0.00000000000E+00 0. -1.
          1    1    1    2  502    0  0.38748939939E+02 -0.10329519661E+02  0.76227408352E+03  0.76332821101E+03  0.00000000000E+00 0. -1.
         22    1    3    3    0    0 -0.78212081130E+02  0.75678425408E+02  0.44100145054E+02  0.11742732434E+03  0.00000000000E+00 0.  1.
         22    1    3    3    0    0  0.13271933389E+02  0.36645611148E+02 -0.49255907998E+02  0.62810743548E+02  0.00000000000E+00 0.  1.
</event>
<event>
 7    1  0.6140348E-006  0.1434103E+03  0.7818608E-02  0.1235668E+00
          2   -1    0    0  502    0  0.00000000000E+00  0.00000000000E+00  0.23128669148E+04  0.23128669148E+04  0.00000000000E+00 0. -1.
          1   -1    0    0  501    0 -0.00000000000E+00 -0.00000000000E+00 -0.28538387973E+03  0.28538387973E+03  0.00000000000E+00 0. -1.
         25    2    1    2    0    0 -0.18063938051E+03  0.11057598940E+03  0.55860356924E+03  0.61034797259E+03  0.12501625837E+03 0.  0.
          2    1    1    2  501    0  0.72926174456E+02 -0.12172046123E+03 -0.23827095339E+03  0.27732137464E+03  0.00000000000E+00 0. -1.
          1    1    1    2  502    0  0.10771320606E+03  0.11144471822E+02  0.17071504192E+04  0.17105814473E+04  0.00000000000E+00 0. -1.
         22    1    3    3    0    0  0.13779705181E+02  0.27705402029E+02  0.11309145308E+03  0.11724822530E+03  0.00000000000E+00 0. -1.
         22    1    3    3    0    0 -0.19441908569E+03  0.82870587376E+02  0.44551211616E+03  0.49309974729E+03  0.00000000000E+00 0. -1.
</event>
<event>
 7    1  0.6140348E-006  0.1181292E+03  0.7818608E-02  0.1328765E+00
          2   -1    0    0  502    0  0.00000000000E+00  0.00000000000E+00  0.15295447615E+04  0.15295447615E+04  0.00000000000E+00 0. -1.
          1   -1    0    0  501    0 -0.00000000000E+00 -0.00000000000E+00 -0.15133042551E+03  0.15133042551E+03  0.00000000000E+00 0. -1.
         25    2    1    2    0    0 -0.11473594534E+02  0.14993861542E+03  0.29845981273E+03  0.35681462582E+03  0.12500074246E+03 0.  0.
          2    1    1    2  501    0 -0.27943502541E+02 -0.11257026735E+03 -0.93849732240E+02  0.14920012288E+03  0.00000000000E+00 0. -1.
          1    1    1    2  502    0  0.39417097074E+02 -0.37368348071E+02  0.11736042555E+04  0.11748604383E+04  0.00000000000E+00 0. -1.
         22    1    3    3    0    0  0.23016811812E+02 -0.13686052059E+02  0.58489543802E+02  0.64328130558E+02  0.00000000000E+00 0.  1.
         22    1    3    3    0    0 -0.34490406346E+02  0.16362466748E+03  0.23997026893E+03  0.29248649526E+03  0.00000000000E+00 0.  1.
</event>
<event>
 7    1  0.6140348E-006  0.5451243E+02  0.7818608E-02  0.1423371E+00
          2   -1    0    0  502    0  0.00000000000E+00  0.00000000000E+00  0.16860452179E+04  0.16860452179E+04  0.00000000000E+00 0. -1.
          1   -1    0    0  501    0 -0.00000000000E+00 -0.00000000000E+00 -0.27306284589E+03  0.27306284589E+03  0.00000000000E+00 0. -1.
         25    2    1    2    0    0 -0.28526716951E+02  0.10975217873E+02  0.12502734688E+03  0.17941792576E+03  0.12499890251E+03 0.  0.
          2    1    1    2  501    0  0.34007273813E+02  0.43261015984E+02 -0.24229724066E+03  0.24846722723E+03  0.00000000000E+00 0. -1.
          1    1    1    2  502    0 -0.54805568621E+01 -0.54236233856E+02  0.15302522658E+04  0.15312229108E+04  0.00000000000E+00 0. -1.
         22    1    3    3    0    0 -0.23255103484E+02 -0.17029019022E+02  0.14290188928E+03  0.14577975609E+03  0.00000000000E+00 0.  1.
         22    1    3    3    0    0 -0.52716134678E+01  0.28004236895E+02 -0.17874542398E+02  0.33638169667E+02  0.00000000000E+00 0.  1.
</event>
<event>
 7    1  0.6140348E-006  0.1084586E+03  0.7818608E-02  0.1405086E+00
          2   -1    0    0  502    0  0.00000000000E+00  0.00000000000E+00  0.36933348716E+04  0.36933348716E+04  0.00000000000E+00 0. -1.
          1   -1    0    0  501    0 -0.00000000000E+00 -0.00000000000E+00 -0.48964395182E+03  0.48964395182E+03  0.00000000000E+00 0. -1.
         25    2    1    2    0    0 -0.75440767895E+02  0.71897468328E+02  0.96268285906E+02  0.18908621377E+03  0.12500183180E+03 0.  0.
          2    1    1    2  501    0  0.21783981003E+02  0.22535858586E+02 -0.44184910588E+03  0.44295941024E+03  0.00000000000E+00 0. -1.
          1    1    1    2  502    0  0.53656786892E+02 -0.94433326913E+02  0.35492717397E+04  0.35509331994E+04  0.00000000000E+00 0. -1.
         22    1    3    3    0    0 -0.36450696803E+02  0.10479313183E+03  0.57179051907E+02  0.12481865947E+03  0.00000000000E+00 0. -1.
         22    1    3    3    0    0 -0.38990071092E+02 -0.32895663499E+02  0.39089233999E+02  0.64267554298E+02  0.00000000000E+00 0. -1.
</event>
<event>
 7    1  0.6140348E-006  0.1765381E+03  0.7818608E-02  0.1311024E+00
          2   -1    0    0  502    0  0.00000000000E+00  0.00000000000E+00  0.40622512649E+03  0.40622512649E+03  0.00000000000E+00 0. -1.
          1   -1    0    0  501    0 -0.00000000000E+00 -0.00000000000E+00 -0.23697452282E+04  0.23697452282E+04  0.00000000000E+00 0. -1.
         25    2    1    2    0    0  0.77322891670E+02  0.19109152954E+03 -0.10496544601E+04  0.10769837499E+04  0.12499883898E+03 0.  0.
          2    1    1    2  501    0 -0.71921767909E+02 -0.14884765203E+03 -0.13000211637E+04  0.13104897521E+04  0.00000000000E+00 0. -1.
          1    1    1    2  502    0 -0.54011237610E+01 -0.42243877512E+02  0.38615552209E+03  0.38849685271E+03  0.00000000000E+00 0. -1.
         22    1    3    3    0    0  0.52061546150E+02  0.19634214200E+03 -0.10057658932E+04  0.10260729376E+04  0.00000000000E+00 0.  1.
         22    1    3    3    0    0  0.25261345520E+02 -0.52506124571E+01 -0.43888566912E+02  0.50910812351E+02  0.00000000000E+00 0.  1.
</event>
<event>
 7    1  0.6140348E-006  0.6285977E+02  0.7818608E-02  0.1406754E+00
          2   -1    0    0  502    0  0.00000000000E+00  0.00000000000E+00  0.99617793784E+03  0.99617793784E+03  0.00000000000E+00 0. -1.
          1   -1    0    0  501    0 -0.00000000000E+00 -0.00000000000E+00 -0.11018294224E+04  0.11018294224E+04  0.00000000000E+00 0. -1.
         25    2    1    2    0    0  0.99830577398E+02  0.47561057648E+02 -0.36494857374E+02  0.17083359225E+03  0.12499617290E+03 0.  0.
          2    1    1    2  501    0 -0.53004879092E+02 -0.62878697054E+01 -0.99640160464E+03  0.99783025221E+03  0.00000000000E+00 0. -1.
          1    1    1    2  502    0 -0.46825698307E+02 -0.41273187942E+02  0.92724497746E+03  0.92934351576E+03  0.00000000000E+00 0. -1.
         22    1    3    3    0    0  0.90513824164E+02  0.86339628565E+02 -0.16351704913E+02  0.12615332766E+03  0.00000000000E+00 0.  1.
         22    1    3    3    0    0  0.93167532344E+01 -0.38778570918E+02 -0.20143152461E+02  0.44680264596E+02  0.00000000000E+00 0.  1.
</event>
<event>
 7    1  0.6140348E-006  0.7695313E+02  0.7818608E-02  0.1386338E+00
          2   -1    0    0  502    0  0.00000000000E+00  0.00000000000E+00  0.12802712207E+04  0.12802712207E+04  0.00000000000E+00 0. -1.
          1   -1    0    0  501    0 -0.00000000000E+00 -0.00000000000E+00 -0.31421715262E+03  0.31421715262E+03  0.00000000000E+00 0. -1.
         25    2    1    2    0    0 -0.12193282365E+02 -0.62356357404E+02  0.15081716424E+03  0.20593661367E+03  0.12500832124E+03 0.  0.
          2    1    1    2  501    0 -0.49386261366E+02  0.13856795022E+02 -0.28295468623E+03  0.28756628460E+03  0.00000000000E+00 0. -1.
          1    1    1    2  502    0  0.61579543732E+02  0.48499562381E+02  0.10981915900E+04  0.11009854750E+04  0.00000000000E+00 0. -1.
         22    1    3    3    0    0  0.14459738865E+02 -0.58131244960E+02  0.16493840740E+03  0.17547935470E+03  0.00000000000E+00 0.  1.
         22    1    3    3    0    0 -0.26653021230E+02 -0.42251124433E+01 -0.14121243166E+02  0.30457258977E+02  0.00000000000E+00 0.  1.
</event>
<event>
 7    1  0.6140348E-006  0.5379016E+02  0.7818608E-02  0.1502963E+00
          2   -1    0    0  502    0  0.00000000000E+00  0.00000000000E+00  0.17000773180E+04  0.17000773180E+04  0.00000000000E+00 0. -1.
          1   -1    0    0  501    0 -0.00000000000E+00 -0.00000000000E+00 -0.44071913261E+03  0.44071913261E+03  0.00000000000E+00 0. -1.
         25    2    1    2    0    0  0.49681374983E+02 -0.62660455289E+02  0.78995673663E+03  0.80377330371E+03  0.12500122535E+03 0.  0.
          2    1    1    2  501    0 -0.25211439367E+02  0.17742924236E+02 -0.43253758964E+03  0.43363486309E+03  0.00000000000E+00 0. -1.
          1    1    1    2  502    0 -0.24469935616E+02  0.44917531053E+02  0.90193903842E+03  0.90338828383E+03  0.00000000000E+00 0. -1.
         22    1    3    3    0    0  0.10670489127E+02 -0.83831908747E+02  0.67945884814E+03  0.68469407371E+03  0.00000000000E+00 0.  1.
         22    1    3    3    0    0  0.39010885857E+02  0.21171453458E+02  0.11049788849E+03  0.11907923000E+03  0.00000000000E+00 0.  1.
</event>
<event>
 7    1  0.6140348E-006  0.1031603E+03  0.7818608E-02  0.1316235E+00
          2   -1    0    0  502    0  0.00000000000E+00  0.00000000000E+00  0.11824987938E+04  0.11824987938E+04  0.00000000000E+00 0. -1.
          1   -1    0    0  501    0 -0.00000000000E+00 -0.00000000000E+00 -0.77870959819E+02  0.77870959819E+02  0.00000000000E+00 0. -1.
         25    2    1    2    0    0  0.43028700154E+01  0.16464542311E+02  0.75784883455E+02  0.14716570406E+03  0.12499920018E+03 0.  0.
          2    1    1    2  501    0 -0.10551766319E+03 -0.36404846521E+02  0.39359178752E+02  0.11835723488E+03  0.00000000000E+00 0. -1.
          1    1    1    2  502    0  0.10121479318E+03  0.19940304210E+02  0.98948377172E+03  0.99484681464E+03  0.00000000000E+00 0. -1.
         22    1    3    3    0    0  0.28927135799E+02  0.57457483306E+02  0.75705785685E+02  0.99345395261E+02  0.00000000000E+00 0.  1.
         22    1    3    3    0    0 -0.24624265784E+02 -0.40992940995E+02  0.79097770053E-01  0.47820308795E+02  0.00000000000E+00 0.  1.
</event>
<event>
 7    1  0.6140348E-006  0.7397865E+02  0.7818608E-02  0.1484533E+00
          2   -1    0    0  502    0  0.00000000000E+00  0.00000000000E+00  0.23743703524E+04  0.23743703524E+04  0.00000000000E+00 0. -1.
          1   -1    0    0  501    0 -0.00000000000E+00 -0.00000000000E+00 -0.57233169776E+02  0.57233169776E+02  0.00000000000E+00 0. -1.
         25    2    1    2    0    0  0.46426267450E+02 -0.53275595131E+02  0.59139454907E+03  0.60857722470E+03  0.12500015360E+03 0.  0.
          2    1    1    2  501    0 -0.26688253305E+02  0.69373386460E+02 -0.20098630908E+02  0.76999250502E+02  0.00000000000E+00 0. -1.
          1    1    1    2  502    0 -0.19738014144E+02 -0.16097791329E+02  0.17458412645E+04  0.17460270470E+04  0.00000000000E+00 0. -1.
         22    1    3    3    0    0  0.24453733288E+02 -0.44747782689E+01  0.13653182107E+02  0.28362265318E+02  0.00000000000E+00 0.  1.
         22    1    3    3    0    0  0.21972534162E+02 -0.48800816862E+02  0.57774136697E+03  0.58021495938E+03  0.00000000000E+00 0.  1.
</event>
<event>
 7    1  0.6140348E-006  0.2151071E+03  0.7818608E-02  0.1186801E+00
          2   -1    0    0  502    0  0.00000000000E+00  0.00000000000E+00  0.18242166275E+04  0.18242166275E+04  0.00000000000E+00 0. -1.
          1   -1    0    0  501    0 -0.00000000000E+00 -0.00000000000E+00 -0.62353926058E+03  0.62353926058E+03  0.00000000000E+00 0. -1.
         25    2    1    2    0    0 -0.10843560501E+03 -0.13409595103E+03  0.79107885870E+03  0.81925242398E+03  0.12501507504E+03 0.  0.
          2    1    1    2  501    0 -0.11886419457E+03 -0.25355580346E+02 -0.58416881758E+03  0.59667814577E+03  0.00000000000E+00 0. -1.
          1    1    1    2  502    0  0.22729979958E+03  0.15945153137E+03  0.99376732583E+03  0.10318253184E+04  0.00000000000E+00 0. -1.
         22    1    3    3    0    0 -0.51351358362E+02 -0.10634714817E+03  0.27500213172E+03  0.29928723725E+03  0.00000000000E+00 0. -1.
         22    1    3    3    0    0 -0.57084246649E+02 -0.27748802861E+02  0.51607672698E+03  0.51996518673E+03  0.00000000000E+00 0. -1.
</event>
<event>
 7    1  0.6140348E-006  0.9568466E+02  0.7818608E-02  0.1472668E+00
          2   -1    0    0  502    0  0.00000000000E+00  0.00000000000E+00  0.57185748098E+03  0.57185748098E+03  0.00000000000E+00 0. -1.
          1   -1    0    0  501    0 -0.00000000000E+00 -0.00000000000E+00 -0.87332524277E+03  0.87332524277E+03  0.00000000000E+00 0. -1.
         25    2    1    2    0    0  0.25126119197E+02  0.80084526582E+02 -0.18108727222E+02  0.15164835921E+03  0.12499778232E+03 0.  0.
          2    1    1    2  501    0 -0.14530111695E+02  0.15734517323E+02 -0.78369909307E+03  0.78399168852E+03  0.00000000000E+00 0. -1.
          1    1    1    2  502    0 -0.10596007502E+02 -0.95819043905E+02  0.50034005850E+03  0.50954267603E+03  0.00000000000E+00 0. -1.
         22    1    3    3    0    0  0.10743911870E+02  0.10278712905E+03 -0.45816914850E+02  0.11304784486E+03  0.00000000000E+00 0.  1.
         22    1    3    3    0    0  0.14382207327E+02 -0.22702602468E+02  0.27708187627E+02  0.38600514349E+02  0.00000000000E+00 0.  1.
</event>
<event>
 7    1  0.6140348E-006  0.9492121E+02  0.7818608E-02  0.1370803E+00
          2   -1    0    0  502    0  0.00000000000E+00  0.00000000000E+00  0.10190908457E+03  0.10190908457E+03  0.00000000000E+00 0. -1.
          1   -1    0    0  501    0 -0.00000000000E+00 -0.00000000000E+00 -0.16839000670E+04  0.16839000670E+04  0.00000000000E+00 0. -1.
         25    2    1    2    0    0  0.13466770446E+01 -0.74367469237E+02 -0.43501731951E+03  0.45869123813E+03  0.12500099858E+03 0.  0.
          2    1    1    2  501    0  0.46196750714E+02 -0.97462501275E+01 -0.12105413776E+04  0.12114617435E+04  0.00000000000E+00 0. -1.
          1    1    1    2  502    0 -0.47543427759E+02  0.84113719364E+02  0.63567714624E+02  0.11565616996E+03  0.00000000000E+00 0. -1.
         22    1    3    3    0    0 -0.17761619268E+02  0.24235557230E+02 -0.21177248972E+03  0.21389348928E+03  0.00000000000E+00 0. -1.
         22    1    3    3    0    0  0.19108296313E+02 -0.98603026467E+02 -0.22324482979E+03  0.24479774886E+03  0.00000000000E+00 0. -1.
</event>
<event>
 7    1  0.6140348E-006  0.9464472E+02  0.7818608E-02  0.1317391E+00
          2   -1    0    0  502    0  0.00000000000E+00  0.00000000000E+00  0.54754130594E+03  0.54754130594E+03  0.00000000000E+00 0. -1.
          1   -1    0    0  501    0 -0.00000000000E+00 -0.00000000000E+00 -0.40861190892E+03  0.40861190892E+03  0.00000000000E+00 0. -1.
         25    2    1    2    0    0  0.18794097657E+02  0.85328754687E+02  0.18242004095E+03  0.23777333245E+03  0.12499948720E+03 0.  0.
          2    1    1    2  501    0  0.55824076015E+02 -0.77702496368E+02 -0.37061545156E+03  0.38276600990E+03  0.00000000000E+00 0. -1.
          1    1    1    2  502    0 -0.74618173673E+02 -0.76262583195E+01  0.32712480763E+03  0.33561387251E+03  0.00000000000E+00 0. -1.
         22    1    3    3    0    0 -0.36025146540E+02  0.90211612764E+02  0.10877398932E+03  0.14583458785E+03  0.00000000000E+00 0. -1.
         22    1    3    3    0    0  0.54819244197E+02 -0.48828580763E+01  0.73646051627E+02  0.91938744595E+02  0.00000000000E+00 0. -1.
</event>
<event>
 7    1  0.6140348E-006  0.7210315E+02  0.7818608E-02  0.1504893E+00
          2   -1    0    0  502    0  0.00000000000E+00  0.00000000000E+00  0.48624107448E+03  0.48624107448E+03  0.00000000000E+00 0. -1.
          1   -1    0    0  501    0 -0.00000000000E+00 -0.00000000000E+00 -0.68642385703E+03  0.68642385703E+03  0.00000000000E+00 0. -1.
         25    2    1    2    0    0 -0.28779823182E+02 -0.85501259993E+02 -0.60510403930E+02  0.16560584889E+03  0.12500017807E+03 0.  0.
          2    1    1    2  501    0  0.33135404374E+02  0.63225432753E+02 -0.57084435846E+03  0.57529009374E+03  0.00000000000E+00 0. -1.
          1    1    1    2  502    0 -0.43555811924E+01  0.22275827240E+02  0.43117197984E+03  0.43176898888E+03  0.00000000000E+00 0. -1.
         22    1    3    3    0    0  0.47065625728E+02 -0.47625437741E+02 -0.41330387251E+02  0.78686443277E+02  0.00000000000E+00 0.  1.
         22    1    3    3    0    0 -0.75845448910E+02 -0.37875822253E+02 -0.19180016679E+02  0.86919405610E+02  0.00000000000E+00 0.  1.
</event>
<event>
 7    1  0.6140348E-006  0.3019017E+02  0.7818608E-02  0.1650527E+00
          2   -1    0    0  502    0  0.00000000000E+00  0.00000000000E+00  0.27845675226E+04  0.27845675226E+04  0.00000000000E+00 0. -1.
          1   -1    0    0  501    0 -0.00000000000E+00 -0.00000000000E+00 -0.34287601902E+03  0.34287601902E+03  0.00000000000E+00 0. -1.
         25    2    1    2    0    0 -0.10846291922E+02 -0.39144785538E+02  0.20124518491E+04  0.20167393437E+04  0.12500071758E+03 0.  0.
          2    1    1    2  501    0 -0.85922132595E+01  0.28940197829E+02 -0.33990665406E+03  0.34124462582E+03  0.00000000000E+00 0. -1.
          1    1    1    2  502    0  0.19438505182E+02  0.10204587709E+02  0.76914630850E+03  0.76945957202E+03  0.00000000000E+00 0. -1.
         22    1    3    3    0    0 -0.60113421365E+02 -0.51505089043E+02  0.10735863031E+04  0.10765007886E+04  0.00000000000E+00 0.  1.
         22    1    3    3    0    0  0.49267129443E+02  0.12360303505E+02  0.93886554598E+03  0.94023855515E+03  0.00000000000E+00 0.  1.
</event>
<event>
 7    1  0.6140348E-006  0.1471877E+03  0.7818608E-02  0.1263921E+00
          2   -1    0    0  502    0  0.00000000000E+00  0.00000000000E+00  0.15827129614E+04  0.15827129614E+04  0.00000000000E+00 0. -1.
          1   -1    0    0  501    0 -0.00000000000E+00 -0.00000000000E+00 -0.63103857600E+03  0.63103857600E+03  0.00000000000E+00 0. -1.
         25    2    1    2    0    0  0.15614521479E+03  0.13046855671E+03  0.51475914882E+03  0.56745432190E+03  0.12499621498E+03 0.  0.
          2    1    1    2  501    0 -0.77857600486E+02 -0.16342811880E+02 -0.59744550572E+03  0.60271886129E+03  0.00000000000E+00 0. -1.
          1    1    1    2  502    0 -0.78287614305E+02 -0.11412574483E+03  0.10343607423E+04  0.10435783542E+04  0.00000000000E+00 0. -1.
         22    1    3    3    0    0  0.11230496368E+03  0.14084574584E+02  0.27437680575E+03  0.29680534302E+03  0.00000000000E+00 0. -1.
         22    1    3    3    0    0  0.43840251110E+02  0.11638398212E+03  0.24038234307E+03  0.27064897888E+03  0.00000000000E+00 0. -1.
</event>
<event>
 7    1  0.6140348E-006  0.7295672E+02  0.7818608E-02  0.1390007E+00
          2   -1    0    0  502    0  0.00000000000E+00  0.00000000000E+00  0.58365632026E+03  0.58365632026E+03  0.00000000000E+00 0. -1.
          1   -1    0    0  501    0 -0.00000000000E+00 -0.00000000000E+00 -0.16485926192E+03  0.16485926192E+03  0.00000000000E+00 0. -1.
         25    2    1    2    0    0  0.38883695824E+02 -0.60204318266E+02 -0.38593632637E+02  0.14916908782E+03  0.12500178616E+03 0.  0.
          2    1    1    2  501    0 -0.51072015616E+02 -0.12278873543E+02 -0.58283349610E+02  0.78460629339E+02  0.00000000000E+00 0. -1.
          1    1    1    2  502    0  0.12188319792E+02  0.72483191808E+02  0.51567404059E+03  0.52088586502E+03  0.00000000000E+00 0. -1.
         22    1    3    3    0    0 -0.15179270599E+02 -0.47306103244E+02 -0.69609423124E+02  0.85520462158E+02  0.00000000000E+00 0.  1.
         22    1    3    3    0    0  0.54062966423E+02 -0.12898215022E+02  0.31015790488E+02  0.63648625663E+02  0.00000000000E+00 0.  1.
</event>
<event>
 7    1  0.6140348E-006  0.5624892E+02  0.7818608E-02  0.1518229E+00
          2   -1    0    0  502    0  0.00000000000E+00  0.00000000000E+00  0.12077729056E+04  0.12077729056E+04  0.00000000000E+00 0. -1.
          1   -1    0    0  501    0 -0.00000000000E+00 -0.00000000000E+00 -0.15803496898E+03  0.15803496898E+03  0.00000000000E+00 0. -1.
         25    2    1    2    0    0 -0.72093731607E+02 -0.36469030272E+02  0.33028354462E+03  0.36226603236E+03  0.12498784760E+03 0.  0.
          2    1    1    2  501    0  0.25567595576E+02  0.72866207246E+01 -0.13991544454E+03  0.14241884849E+03  0.00000000000E+00 0. -1.
          1    1    1    2  502    0  0.46526136031E+02  0.29182409547E+02  0.85936983650E+03  0.86112299368E+03  0.00000000000E+00 0. -1.
         22    1    3    3    0    0 -0.61623352277E+02 -0.60279419019E+02  0.10668430605E+03  0.13715898462E+03  0.00000000000E+00 0. -1.
         22    1    3    3    0    0 -0.10470379330E+02  0.23810388747E+02  0.22359923857E+03  0.22510704775E+03  0.00000000000E+00 0. -1.
</event>
<event>
 7    1  0.6140348E-006  0.1380358E+03  0.7818608E-02  0.1426470E+00
          2   -1    0    0  502    0  0.00000000000E+00  0.00000000000E+00  0.55946997624E+03  0.55946997624E+03  0.00000000000E+00 0. -1.
          1   -1    0    0  501    0 -0.00000000000E+00 -0.00000000000E+00 -0.46511450476E+03  0.46511450476E+03  0.00000000000E+00 0. -1.
         25    2    1    2    0    0  0.14467305983E+03 -0.20986811695E+02  0.44222520019E+03  0.48224065965E+03  0.12498874199E+03 0.  0.
          2    1    1    2  501    0 -0.13254485382E+03  0.37972937058E+02 -0.43314064537E+03  0.45455571814E+03  0.00000000000E+00 0. -1.
          1    1    1    2  502    0 -0.12128206011E+02 -0.16986125362E+02  0.85270916663E+02  0.87788103206E+02  0.00000000000E+00 0. -1.
         22    1    3    3    0    0  0.52798017126E+02  0.51334448740E+02  0.14000424253E+03  0.15818989907E+03  0.00000000000E+00 0.  1.
         22    1    3    3    0    0  0.91875042708E+02 -0.72321260436E+02  0.30222095766E+03  0.32405076058E+03  0.00000000000E+00 0.  1.
</event>
<event>
 7    1  0.6140348E-006  0.1049507E+03  0.7818608E-02  0.1334010E+00
          2   -1    0    0  502    0  0.00000000000E+00  0.00000000000E+00  0.34824422678E+03  0.34824422678E+03  0.00000000000E+00 0. -1.
          1   -1    0    0  501    0 -0.00000000000E+00 -0.00000000000E+00 -0.13174853121E+04  0.13174853121E+04  0.00000000000E+00 0. -1.
         25    2    1    2    0    0  0.66736758203E+02  0.10603906900E+02 -0.21868506243E+03  0.26079539307E+03  0.12499937112E+03 0.  0.
          2    1    1    2  501    0  0.33068737903E+02 -0.48116600285E+02 -0.10682403471E+04  0.10698346544E+04  0.00000000000E+00 0. -1.
          1    1    1    2  502    0 -0.99805496106E+02  0.37512693385E+02  0.31768432425E+03  0.33509949134E+03  0.00000000000E+00 0. -1.
         22    1    3    3    0    0  0.63596724630E+02  0.54172136060E+02 -0.81057693610E+02  0.11640237713E+03  0.00000000000E+00 0.  1.
         22    1    3    3    0    0  0.31400335733E+01 -0.43568229160E+02 -0.13762736882E+03  0.14439301594E+03  0.00000000000E+00 0.  1.
</event>
<event>
 7    1  0.6140348E-006  0.1862439E+03  0.7818608E-02  0.1304109E+00
          2   -1    0    0  502    0  0.00000000000E+00  0.00000000000E+00  0.93657770606E+03  0.93657770606E+03  0.00000000000E+00 0. -1.
          1   -1    0    0  501    0 -0.00000000000E+00 -0.00000000000E+00 -0.10792011991E+04  0.10792011991E+04  0.00000000000E+00 0. -1.
         25    2    1    2    0    0  0.20958852990E+02 -0.16296964561E+03 -0.34964402384E+03  0.40604740375E+03  0.12500068710E+03 0.  0.
          2    1    1    2  501    0 -0.36128286026E+02 -0.23305169328E+02 -0.69106751218E+03  0.69240356033E+03  0.00000000000E+00 0. -1.
          1    1    1    2  502    0  0.15169433035E+02  0.18627481494E+03  0.89808804302E+03  0.91732794103E+03  0.00000000000E+00 0. -1.
         22    1    3    3    0    0  0.52680722765E+02 -0.40013412964E+02 -0.58081476959E+02  0.88032890069E+02  0.00000000000E+00 0. -1.
         22    1    3    3    0    0 -0.31721869774E+02 -0.12295623265E+03 -0.29156254688E+03  0.31801451368E+03  0.00000000000E+00 0. -1.
</event>
<event>
 7    1  0.6140348E-006  0.5568158E+02  0.7818608E-02  0.1466117E+00
          2   -1    0    0  502    0  0.00000000000E+00  0.00000000000E+00  0.56662397784E+03  0.56662397784E+03  0.00000000000E+00 0. -1.
          1   -1    0    0  501    0 -0.00000000000E+00 -0.00000000000E+00 -0.46420361997E+02  0.46420361997E+02  0.00000000000E+00 0. -1.
         25    2    1    2    0    0 -0.39395929110E+02 -0.78495313558E+02  0.34012853770E+03  0.37286129963E+03  0.12499829247E+03 0.  0.
          2    1    1    2  501    0  0.35487942162E+02  0.40120289856E+02 -0.24570480534E+01  0.53619667867E+02  0.00000000000E+00 0. -1.
          1    1    1    2  502    0  0.39079869477E+01  0.38375023702E+02  0.18253212619E+03  0.18656337233E+03  0.00000000000E+00 0. -1.
         22    1    3    3    0    0 -0.78034655434E+02 -0.77104102042E+02  0.28620477380E+03  0.30650876422E+03  0.00000000000E+00 0. -1.
         22    1    3    3    0    0  0.38638726324E+02 -0.13912115156E+01  0.53923763905E+02  0.66352535409E+02  0.00000000000E+00 0. -1.
</event>
<event>
 7    1  0.6140348E-006  0.1059447E+03  0.7818608E-02  0.1307041E+00
          2   -1    0    0  502    0  0.00000000000E+00  0.00000000000E+00  0.97472761870E+03  0.97472761870E+03  0.00000000000E+00 0. -1.
          1   -1    0    0  501    0 -0.00000000000E+00 -0.00000000000E+00 -0.66608033618E+03  0.66608033618E+03  0.00000000000E+00 0. -1.
         25    2    1    2    0    0  0.13776700056E+03 -0.58872062673E+02 -0.11340524112E+03  0.22568090223E+03  0.12500181883E+03 0.  0.
          2    1    1    2  501    0 -0.70191663402E+02 -0.22073577241E+02 -0.49075949999E+03  0.49624489847E+03  0.00000000000E+00 0. -1.
          1    1    1    2  502    0 -0.67575337155E+02  0.80945639914E+02  0.91281202363E+03  0.91888215419E+03  0.00000000000E+00 0. -1.
         22    1    3    3    0    0  0.62409054855E+02 -0.54337613569E+02  0.75564223400E+01  0.83093717541E+02  0.00000000000E+00 0. -1.
         22    1    3    3    0    0  0.75357945702E+02 -0.45344491040E+01 -0.12096166346E+03  0.14258718469E+03  0.00000000000E+00 0. -1.
</event>
<event>
 7    1  0.6140348E-006  0.2603943E+03  0.7818608E-02  0.1191881E+00
          2   -1    0    0  502    0  0.00000000000E+00  0.00000000000E+00  0.10051743329E+04  0.10051743329E+04  0.00000000000E+00 0. -1.
          1   -1    0    0  501    0 -0.00000000000E+00 -0.00000000000E+00 -0.18786987352E+04  0.18786987352E+04  0.00000000000E+00 0. -1.
         25    2    1    2    0    0  0.26094255309E+03  0.55279744694E+02  0.39942596768E+02  0.29726803527E+03  0.12500403021E+03 0.  0.
          2    1    1    2  501    0 -0.21973606489E+03 -0.14078469625E+03 -0.17375678715E+04  0.17570561679E+04  0.00000000000E+00 0. -1.
          1    1    1    2  502    0 -0.41206488206E+02  0.85504951558E+02  0.82410087249E+03  0.82954886502E+03  0.00000000000E+00 0. -1.
         22    1    3    3    0    0  0.17957162130E+03 -0.22382798737E+02  0.11963068836E+02  0.18135620164E+03  0.00000000000E+00 0.  1.
         22    1    3    3    0    0  0.81370931788E+02  0.77662543432E+02  0.27979527931E+02  0.11591183363E+03  0.00000000000E+00 0.  1.
</event>
<event>
 7    1  0.6140348E-006  0.4788472E+02  0.7818608E-02  0.1504131E+00
          2   -1    0    0  502    0  0.00000000000E+00  0.00000000000E+00  0.30746876717E+03  0.30746876717E+03  0.00000000000E+00 0. -1.
          1   -1    0    0  501    0 -0.00000000000E+00 -0.00000000000E+00 -0.65024303243E+03  0.65024303243E+03  0.00000000000E+00 0. -1.
         25    2    1    2    0    0 -0.13941828476E+02  0.29018303319E+02 -0.16974439351E+03  0.21325844466E+03  0.12501827300E+03 0.  0.
          2    1    1    2  501    0  0.30248338612E+02  0.16289399043E+02 -0.45606204847E+03  0.45735423751E+03  0.00000000000E+00 0. -1.
          1    1    1    2  502    0 -0.16306510136E+02 -0.45307702362E+02  0.28303217672E+03  0.28709911743E+03  0.00000000000E+00 0. -1.
         22    1    3    3    0    0 -0.50368435192E+02  0.60948626688E+02 -0.88557681669E+02  0.11871890052E+03  0.00000000000E+00 0.  1.
         22    1    3    3    0    0  0.36426606716E+02 -0.31930323369E+02 -0.81186711838E+02  0.94539544141E+02  0.00000000000E+00 0.  1.
</event>
<event>
 7    1  0.6140348E-006  0.4113559E+02  0.7818608E-02  0.1541880E+00
          2   -1    0    0  502    0  0.00000000000E+00  0.00000000000E+00  0.68126170885E+03  0.68126170885E+03  0.00000000000E+00 0. -1.
          1   -1    0    0  501    0 -0.00000000000E+00 -0.00000000000E+00 -0.44744048060E+02  0.44744048060E+02  0.00000000000E+00 0. -1.
         25    2    1    2    0    0 -0.25025957068E+00  0.28995958009E+02  0.29237768603E+03  0.31929659386E+03  0.12499910140E+03 0.  0.
          2    1    1    2  501    0 -0.30850097818E+02 -0.28715604303E+02 -0.16109090548E+02  0.45120031739E+02  0.00000000000E+00 0. -1.
          1    1    1    2  502    0  0.31100357389E+02 -0.28035370573E+00  0.36024906531E+03  0.36158913131E+03  0.00000000000E+00 0. -1.
         22    1    3    3    0    0  0.15019954324E+02 -0.34645109762E+02  0.28189640363E+02  0.47122589934E+02  0.00000000000E+00 0. -1.
         22    1    3    3    0    0 -0.15270213894E+02  0.63641067771E+02  0.26418804567E+03  0.27217400393E+03  0.00000000000E+00 0. -1.
</event>
<event>
 7    1  0.6140348E-006  0.3650432E+02  0.7818608E-02  0.1606393E+00
          2   -1    0    0  502    0  0.00000000000E+00  0.00000000000E+00  0.16090045346E+04  0.16090045346E+04  0.00000000000E+00 0. -1.
          1   -1    0    0  501    0 -0.00000000000E+00 -0.00000000000E+00 -0.15261140687E+04  0.15261140687E+04  0.00000000000E+00 0. -1.
         25    2    1    2    0    0 -0.86891647330E+01 -0.12328075502E+02  0.47567051404E+02  0.13458692284E+03  0.12499412943E+03 0.  0.
          2    1    1    2  501    0  0.31119929216E+02  0.19188766691E+02 -0.14822880970E+04  0.14827389053E+04  0.00000000000E+00 0. -1.
          1    1    1    2  502    0 -0.22430764483E+02 -0.68606911888E+01  0.15176115116E+04  0.15177927752E+04  0.00000000000E+00 0. -1.
         22    1    3    3    0    0 -0.13097181810E+02  0.15462300200E+02 -0.38788612999E+02  0.43762716977E+02  0.00000000000E+00 0. -1.
         22    1    3    3    0    0  0.44080170766E+01 -0.27790375701E+02  0.86355664404E+02  0.90824205864E+02  0.00000000000E+00 0. -1.
</event>
<event>
 7    1  0.6140348E-006  0.4400359E+02  0.7818608E-02  0.1494368E+00
          2   -1    0    0  502    0  0.00000000000E+00  0.00000000000E+00  0.58047449917E+03  0.58047449917E+03  0.00000000000E+00 0. -1.
          1   -1    0    0  501    0 -0.00000000000E+00 -0.00000000000E+00 -0.44305938184E+03  0.44305938184E+03  0.00000000000E+00 0. -1.
         25    2    1    2    0    0 -0.23808682056E+01  0.16494146445E+02 -0.41246140022E+02  0.13267780332E+03  0.12499772009E+03 0.  0.
          2    1    1    2  501    0 -0.36215172865E+02 -0.26932426630E+02 -0.35391502228E+03  0.35678107762E+03  0.00000000000E+00 0. -1.
          1    1    1    2  502    0  0.38596041070E+02  0.10438280184E+02  0.53257627963E+03  0.53407500007E+03  0.00000000000E+00 0. -1.
         22    1    3    3    0    0  0.36085276557E+02 -0.37838580926E+02  0.35996691440E+01  0.52410523835E+02  0.00000000000E+00 0.  1.
         22    1    3    3    0    0 -0.38466144763E+02  0.54332727371E+02 -0.44845809166E+02  0.80267279487E+02  0.00000000000E+00 0.  1.
</event>
<event>
 7    1  0.6140348E-006  0.1400313E+03  0.7818608E-02  0.1370581E+00
          2   -1    0    0  502    0  0.00000000000E+00  0.00000000000E+00  0.20771930401E+04  0.20771930401E+04  0.00000000000E+00 0. -1.
          1   -1    0    0  501    0 -0.00000000000E+00 -0.00000000000E+00 -0.11438102232E+03  0.11438102232E+03  0.00000000000E+00 0. -1.
         25    2    1    2    0    0  0.11647449784E+03  0.11966863891E+03  0.37108089067E+03  0.42569183635E+03  0.12500248128E+03 0.  0.
          2    1    1    2  501    0 -0.13156298571E+02 -0.29239315940E+02 -0.81213023357E+02  0.87313120157E+02  0.00000000000E+00 0. -1.
          1    1    1    2  502    0 -0.10331819927E+03 -0.90429322972E+02  0.16729441505E+04  0.16785691059E+04  0.00000000000E+00 0. -1.
         22    1    3    3    0    0  0.76113914842E+02  0.10866307282E+03  0.35810684814E+03  0.38189200844E+03  0.00000000000E+00 0.  1.
         22    1    3    3    0    0  0.40360582998E+02  0.11005566088E+02  0.12974042530E+02  0.43799827904E+02  0.00000000000E+00 0.  1.
</event>
<event>
 7    1  0.6140348E-006  0.9050636E+02  0.7818608E-02  0.1358834E+00
          2   -1    0    0  502    0  0.00000000000E+00  0.00000000000E+00  0.94308554671E+02  0.94308554671E+02  0.00000000000E+00 0. -1.
          1   -1    0    0  501    0 -0.00000000000E+00 -0.00000000000E+00 -0.53541787074E+03  0.53541787074E+03  0.00000000000E+00 0. -1.
         25    2    1    2    0    0  0.12817954449E+03  0.11185323318E+02 -0.88726998234E+02  0.20012947397E+03  0.12499687617E+03 0.  0.
          2    1    1    2  501    0 -0.84729753165E+02  0.22070922006E+02 -0.36338575983E+03  0.37378532223E+03  0.00000000000E+00 0. -1.
          1    1    1    2  502    0 -0.43449791326E+02 -0.33256245325E+02  0.11003441992E+02  0.55811629209E+02  0.00000000000E+00 0. -1.
         22    1    3    3    0    0  0.86899798123E+02  0.45757034052E+02 -0.22217536604E+01  0.98235519382E+02  0.00000000000E+00 0. -1.
         22    1    3    3    0    0  0.41279746368E+02 -0.34571710734E+02 -0.86505244574E+02  0.10189395459E+03  0.00000000000E+00 0. -1.
</event>
<event>
 7    1  0.6140348E-006  0.9478382E+02  0.7818608E-02  0.1398470E+00
          2   -1    0    0  502    0  0.00000000000E+00  0.00000000000E+00  0.66564336688E+03  0.66564336688E+03  0.00000000000E+00 0. -1.
          1   -1    0    0  501    0 -0.00000000000E+00 -0.00000000000E+00 -0.64508745964E+02  0.64508745964E+02  0.00000000000E+00 0. -1.
         25    2    1    2    0    0 -0.86803181954E+02 -0.16950472377E+02  0.37950864005E+03  0.40922257223E+03  0.12495677188E+03 0.  0.
          2    1    1    2  501    0  0.12002433787E+01 -0.37770081974E+02 -0.30847213189E+02  0.48780838841E+02  0.00000000000E+00 0. -1.
          1    1    1    2  502    0  0.85602938575E+02  0.54720554351E+02  0.25247319406E+03  0.27214870178E+03  0.00000000000E+00 0. -1.
         22    1    3    3    0    0 -0.92870934099E+02 -0.58443847665E+02  0.29797256077E+03  0.31753478660E+03  0.00000000000E+00 0. -1.
         22    1    3    3    0    0  0.60677521445E+01  0.41493375288E+02  0.81536079284E+02  0.91687785631E+02  0.00000000000E+00 0. -1.
</event>
<event>
 7    1  0.6140348E-006  0.2752960E+03  0.7818608E-02  0.1313221E+00
          2   -1    0    0  502    0  0.00000000000E+00  0.00000000000E+00  0.57801598789E+03  0.57801598789E+03  0.00000000000E+00 0. -1.
          1   -1    0    0  501    0 -0.00000000000E+00 -0.00000000000E+00 -0.11629079487E+04  0.11629079487E+04  0.00000000000E+00 0. -1.
         25    2    1    2    0    0 -0.24355257586E+03 -0.15322368236E+03  0.31917883870E+03  0.44754453242E+03  0.12500249351E+03 0.  0.
          2    1    1    2  501    0  0.24395449745E+03  0.12645379454E+03 -0.10805195074E+04  0.11149111018E+04  0.00000000000E+00 0. -1.
          1    1    1    2  502    0 -0.40192159049E+00  0.26769887815E+02  0.17644870791E+03  0.17846830239E+03  0.00000000000E+00 0. -1.
         22    1    3    3    0    0  0.11736497532E+02 -0.18995306188E+02  0.92453300575E+01  0.24166984905E+02  0.00000000000E+00 0.  1.
         22    1    3    3    0    0 -0.25528907339E+03 -0.13422837617E+03  0.30993350864E+03  0.42337754752E+03  0.00000000000E+00 0.  1.
</event>
<event>
 7    1  0.6140348E-006  0.5270364E+02  0.7818608E-02  0.1468031E+00
          2   -1    0    0  502    0  0.00000000000E+00  0.00000000000E+00  0.16799212210E+03  0.16799212210E+03  0.00000000000E+00 0. -1.
          1   -1    0    0  501    0 -0.00000000000E+00 -0.00000000000E+00 -0.15662449498E+04  0.15662449498E+04  0.00000000000E+00 0. -1.
         25    2    1    2    0    0 -0.58500948467E+02 -0.89033735624E+01 -0.11014487446E+04  0.11100972947E+04  0.12500014338E+03 0.  0.
          2    1    1    2  501    0  0.24783989475E+02 -0.31646114398E+02 -0.45531532376E+03  0.45708616993E+03  0.00000000000E+00 0. -1.
          1    1    1    2  502    0  0.33716958993E+02  0.40549487961E+02  0.15851124061E+03  0.16705360725E+03  0.00000000000E+00 0. -1.
         22    1    3    3    0    0  0.18678263363E+02  0.31509556875E+02 -0.60153180644E+03  0.60264603529E+03  0.00000000000E+00 0. -1.
         22    1    3    3    0    0 -0.77179211830E+02 -0.40412930438E+02 -0.49991693814E+03  0.50745125946E+03  0.00000000000E+00 0. -1.
</event>
<event>
 7    1  0.6140348E-006  0.1144065E+03  0.7818608E-02  0.1280543E+00
          2   -1    0    0  502    0  0.00000000000E+00  0.00000000000E+00  0.25159592436E+04  0.25159592436E+04  0.00000000000E+00 0. -1.
          1   -1    0    0  501    0 -0.00000000000E+00 -0.00000000000E+00 -0.12058181700E+03  0.12058181700E+03  0.00000000000E+00 0. -1.
         25    2    1    2    0    0  0.44985938431E+02  0.36140516704E+02  0.50537361117E+03  0.52378899798E+03  0.12499022335E+03 0.  0.
          2    1    1    2  501    0  0.83835568140E+02 -0.23998738166E+02 -0.91865480374E+02  0.12666336646E+03  0.00000000000E+00 0. -1.
          1    1    1    2  502    0 -0.12882150657E+03 -0.12141778537E+02  0.19818692958E+04  0.19860886962E+04  0.00000000000E+00 0. -1.
         22    1    3    3    0    0  0.75926558315E+02 -0.99546271228E+01  0.21687064771E+03  0.22999307533E+03  0.00000000000E+00 0.  1.
         22    1    3    3    0    0 -0.30940619884E+02  0.46095143826E+02  0.28850296346E+03  0.29379592265E+03  0.00000000000E+00 0.  1.
</event>
<event>
 7    1  0.6140348E-006  0.3963114E+02  0.7818608E-02  0.1567124E+00
          2   -1    0    0  502    0  0.00000000000E+00  0.00000000000E+00  0.30116088209E+04  0.30116088209E+04  0.00000000000E+00 0. -1.
          1   -1    0    0  501    0 -0.00000000000E+00 -0.00000000000E+00 -0.14533148199E+03  0.14533148199E+03  0.00000000000E+00 0. -1.
         25    2    1    2    0    0 -0.15432032513E+02  0.17501763342E+02  0.64947944712E+02  0.14278874482E+03  0.12500372306E+03 0.  0.
          2    1    1    2  501    0 -0.24052515606E+02 -0.13283202262E+02 -0.10449945984E+03  0.10805139553E+03  0.00000000000E+00 0. -1.
          1    1    1    2  502    0  0.39484548119E+02 -0.42185610801E+01  0.29058288540E+04  0.29061001626E+04  0.00000000000E+00 0. -1.
         22    1    3    3    0    0 -0.51581693662E+01 -0.25135499097E+02  0.89099686881E+02  0.92720840313E+02  0.00000000000E+00 0.  1.
         22    1    3    3    0    0 -0.10273863146E+02  0.42637262440E+02 -0.24151742169E+02  0.50067904511E+02  0.00000000000E+00 0.  1.
</event>
<event>
 7    1  0.6140348E-006  0.1181055E+03  0.7818608E-02  0.1364628E+00
          2   -1    0    0  502    0  0.00000000000E+00  0.00000000000E+00  0.88831815878E+03  0.88831815878E+03  0.00000000000E+00 0. -1.
          1   -1    0    0  501    0 -0.00000000000E+00 -0.00000000000E+00 -0.72880399817E+02  0.72880399817E+02  0.00000000000E+00 0. -1.
         25    2    1    2    0    0  0.58045199186E+02  0.13649526281E+03  0.20813306742E+03  0.28450713665E+03  0.12499894053E+03 0.  0.
          2    1    1    2  501    0  0.28156365113E+01 -0.39843216176E+02 -0.15985399458E+02  0.43022583372E+02  0.00000000000E+00 0. -1.
          1    1    1    2  502    0 -0.60860835697E+02 -0.96652046637E+02  0.62329009100E+03  0.63366883857E+03  0.00000000000E+00 0. -1.
         22    1    3    3    0    0  0.78718040498E+02  0.14179861585E+03  0.20722503392E+03  0.26314557196E+03  0.00000000000E+00 0. -1.
         22    1    3    3    0    0 -0.20672841312E+02 -0.53033530388E+01  0.90803349933E+00  0.21361564695E+02  0.00000000000E+00 0. -1.
</event>
<event>
 7    1  0.6140348E-006  0.7144672E+02  0.7818608E-02  0.1411493E+00
          2   -1    0    0  502    0  0.00000000000E+00  0.00000000000E+00  0.10793627877E+04  0.10793627877E+04  0.00000000000E+00 0. -1.
          1   -1    0    0  501    0 -0.00000000000E+00 -0.00000000000E+00 -0.44613701255E+02  0.44613701255E+02  0.00000000000E+00 0. -1.
         25    2    1    2    0    0 -0.48458002516E+02  0.82788840753E+02  0.22178451793E+03  0.27205716853E+03  0.12499824157E+03 0.  0.
          2    1    1    2  501    0  0.43506525339E+02 -0.12455634611E+02  0.10621398083E+02  0.46484133614E+02  0.00000000000E+00 0. -1.
          1    1    1    2  502    0  0.49514771776E+01 -0.70333206142E+02  0.80234317040E+03  0.80543518678E+03  0.00000000000E+00 0. -1.
         22    1    3    3    0    0  0.53327563452E+01  0.96050716331E+02  0.10270833109E+03  0.14072377082E+03  0.00000000000E+00 0. -1.
         22    1    3    3    0    0 -0.53790758861E+02 -0.13261875577E+02  0.11907618683E+03  0.13133339771E+03  0.00000000000E+00 0. -1.
</event>
<event>
 7    1  0.6140348E-006  0.9771173E+02  0.7818608E-02  0.1361070E+00
          2   -1    0    0  502    0  0.00000000000E+00  0.00000000000E+00  0.23442847100E+04  0.23442847100E+04  0.00000000000E+00 0. -1.
          1   -1    0    0  501    0 -0.00000000000E+00 -0.00000000000E+00 -0.10190760811E+03  0.10190760811E+03  0.00000000000E+00 0. -1.
         25    2    1    2    0    0 -0.18705493564E+02  0.56256124531E+02  0.71427759034E+03  0.72755166140E+03  0.12499718757E+03 0.  0.
          2    1    1    2  501    0 -0.43797403635E+01  0.49544452814E+02 -0.86839706548E+02  0.10007481983E+03  0.00000000000E+00 0. -1.
          1    1    1    2  502    0  0.23085233928E+02 -0.10580057735E+03  0.16149392181E+04  0.16185658369E+04  0.00000000000E+00 0. -1.
         22    1    3    3    0    0  0.29623959003E+02  0.62123122216E+02  0.21136548298E+03  0.22228861566E+03  0.00000000000E+00 0.  1.
         22    1    3    3    0    0 -0.48329452568E+02 -0.58669976842E+01  0.50291210737E+03  0.50526304574E+03  0.00000000000E+00 0.  1.
</event>
<event>
 7    1  0.6140348E-006  0.9230674E+02  0.7818608E-02  0.1467255E+00
          2   -1    0    0  502    0  0.00000000000E+00  0.00000000000E+00  0.23475787352E+03  0.23475787352E+03  0.00000000000E+00 0. -1.
          1   -1    0    0  501    0 -0.00000000000E+00 -0.00000000000E+00 -0.41136546710E+04  0.41136546710E+04  0.00000000000E+00 0. -1.
         25    2    1    2    0    0  0.80896919287E+02 -0.43115123312E+02 -0.11677641350E+03  0.19407658301E+03  0.12500305561E+03 0.  0.
          2    1    1    2  501    0 -0.68136414725E+02  0.62345189581E+02 -0.39570084938E+04  0.39580861175E+04  0.00000000000E+00 0. -1.
          1    1    1    2  502    0 -0.12760504561E+02 -0.19230066269E+02  0.19488810982E+03  0.19624984401E+03  0.00000000000E+00 0. -1.
         22    1    3    3    0    0  0.42000735970E+02  0.43239266284E+02 -0.47039643089E+02  0.76461912039E+02  0.00000000000E+00 0.  1.
         22    1    3    3    0    0  0.38896183317E+02 -0.86354389596E+02 -0.69736770415E+02  0.11761467097E+03  0.00000000000E+00 0.  1.
</event>
<event>
 7    1  0.6140348E-006  0.9079957E+02  0.7818608E-02  0.1353251E+00
          2   -1    0    0  502    0  0.00000000000E+00  0.00000000000E+00  0.17056885466E+04  0.17056885466E+04  0.00000000000E+00 0. -1.
          1   -1    0    0  501    0 -0.00000000000E+00 -0.00000000000E+00 -0.44831037710E+03  0.44831037710E+03  0.00000000000E+00 0. -1.
         25    2    1    2    0    0  0.37245901819E+02  0.54462171065E+02 -0.50505156308E+02  0.15009315791E+03  0.12499519974E+03 0.  0.
          2    1    1    2  501    0 -0.89966594832E+02 -0.32337016839E+02 -0.34094070808E+03  0.35409071898E+03  0.00000000000E+00 0. -1.
          1    1    1    2  502    0  0.52720693012E+02 -0.22125154226E+02  0.16488240339E+04  0.16498150468E+04  0.00000000000E+00 0. -1.
         22    1    3    3    0    0  0.26121571731E+02 -0.25210264300E+02  0.21446907994E+02  0.42164722201E+02  0.00000000000E+00 0.  1.
         22    1    3    3    0    0  0.11124330088E+02  0.79672435365E+02 -0.71952064302E+02  0.10792843571E+03  0.00000000000E+00 0.  1.
</event>
<event>
 7    1  0.6140348E-006  0.8153944E+02  0.7818608E-02  0.1354647E+00
          2   -1    0    0  502    0  0.00000000000E+00  0.00000000000E+00  0.12890564638E+04  0.12890564638E+04  0.00000000000E+00 0. -1.
          1   -1    0    0  501    0 -0.00000000000E+00 -0.00000000000E+00 -0.80962802001E+02  0.80962802001E+02  0.00000000000E+00 0. -1.
         25    2    1    2    0    0  0.28426186809E+01 -0.13888037409E+03  0.35106927948E+03  0.39770107445E+03  0.12498266614E+03 0.  0.
          2    1    1    2  501    0 -0.11927495204E+02  0.76620373731E+02 -0.29941787132E+02  0.83123146170E+02  0.00000000000E+00 0. -1.
          1    1    1    2  502    0  0.90848765231E+01  0.62260000358E+02  0.88696616947E+03  0.88919504520E+03  0.00000000000E+00 0. -1.
         22    1    3    3    0    0  0.27718921347E+01  0.21476509385E+02  0.18463834505E+02  0.28457635636E+02  0.00000000000E+00 0. -1.
         22    1    3    3    0    0  0.70726546196E-01 -0.16035688347E+03  0.33260544498E+03  0.36924343881E+03  0.00000000000E+00 0. -1.
</event>
<event>
 7    1  0.6140348E-006  0.8035217E+02  0.7818608E-02  0.1398589E+00
          2   -1    0    0  502    0  0.00000000000E+00  0.00000000000E+00  0.17877532215E+03  0.17877532215E+03  0.00000000000E+00 0. -1.
          1   -1    0    0  501    0 -0.00000000000E+00 -0.00000000000E+00 -0.86021175665E+03  0.86021175665E+03  0.00000000000E+00 0. -1.
         25    2    1    2    0    0  0.69052134246E+01 -0.39963942532E+02 -0.21530817282E+03  0.25224488917E+03  0.12500030461E+03 0.  0.
          2    1    1    2  501    0  0.28429180419E+02 -0.34279223692E+02 -0.61503373369E+03  0.61664396296E+03  0.00000000000E+00 0. -1.
          1    1    1    2  502    0 -0.35334393844E+02  0.74243166224E+02  0.14890547201E+03  0.17009822666E+03  0.00000000000E+00 0. -1.
         22    1    3    3    0    0  0.18231249090E+02  0.42730191026E+02 -0.59497787618E+02  0.75486650475E+02  0.00000000000E+00 0. -1.
         22    1    3    3    0    0 -0.11326035665E+02 -0.82694133559E+02 -0.15581038521E+03  0.17675823870E+03  0.00000000000E+00 0. -1.
</event>
<event>
 7    1  0.6140348E-006  0.1167845E+03  0.7818608E-02  0.1300113E+00
          2   -1    0    0  502    0  0.00000000000E+00  0.00000000000E+00  0.17773822850E+03  0.17773822850E+03  0.00000000000E+00 0. -1.
          1   -1    0    0  501    0 -0.00000000000E+00 -0.00000000000E+00 -0.56669674907E+03  0.56669674907E+03  0.00000000000E+00 0. -1.
         25    2    1    2    0    0 -0.14249722948E+03  0.73865937157E+02 -0.38615487461E+03  0.43646604395E+03  0.12500153299E+03 0.  0.
          2    1    1    2  501    0  0.73902277571E+02 -0.55055582507E+02 -0.13170561679E+03  0.16074524344E+03  0.00000000000E+00 0. -1.
          1    1    1    2  502    0  0.68594951907E+02 -0.18810354650E+02  0.12890197083E+03  0.14722369019E+03  0.00000000000E+00 0. -1.
         22    1    3    3    0    0 -0.14780778244E+03  0.62239379155E+02 -0.23347216549E+03  0.28324924170E+03  0.00000000000E+00 0.  1.
         22    1    3    3    0    0  0.53105529625E+01  0.11626558002E+02 -0.15268270912E+03  0.15321680224E+03  0.00000000000E+00 0.  1.
</event>
<event>
 7    1  0.6140348E-006  0.4062070E+02  0.7818608E-02  0.1575405E+00
          2   -1    0    0  502    0  0.00000000000E+00  0.00000000000E+00  0.83283486918E+03  0.83283486918E+03  0.00000000000E+00 0. -1.
          1   -1    0    0  501    0 -0.00000000000E+00 -0.00000000000E+00 -0.43821322655E+03  0.43821322655E+03  0.00000000000E+00 0. -1.
         25    2    1    2    0    0  0.72053559129E+01  0.22321487778E+02  0.40174410411E+02  0.13337421984E+03  0.12499813317E+03 0.  0.
          2    1    1    2  501    0  0.25341843474E+02  0.24099089944E+01 -0.39063880560E+03  0.39146735896E+03  0.00000000000E+00 0. -1.
          1    1    1    2  502    0 -0.32547199387E+02 -0.24731396772E+02  0.74508603781E+03  0.74620651694E+03  0.00000000000E+00 0. -1.
         22    1    3    3    0    0  0.30429463576E+02  0.50739481460E+02  0.65894689889E+02  0.88558214684E+02  0.00000000000E+00 0. -1.
         22    1    3    3    0    0 -0.23224107664E+02 -0.28417993682E+02 -0.25720279478E+02  0.44816005156E+02  0.00000000000E+00 0. -1.
</event>
<event>
 7    1  0.6140348E-006  0.1246682E+03  0.7818608E-02  0.1357383E+00
          2   -1    0    0  502    0  0.00000000000E+00  0.00000000000E+00  0.14076470205E+04  0.14076470205E+04  0.00000000000E+00 0. -1.
          1   -1    0    0  501    0 -0.00000000000E+00 -0.00000000000E+00 -0.38597820251E+03  0.38597820251E+03  0.00000000000E+00 0. -1.
         25    2    1    2    0    0  0.11144981285E+03 -0.99348803528E+02  0.39636891221E+02  0.19871435734E+03  0.12500026848E+03 0.  0.
          2    1    1    2  501    0 -0.10711766939E+03  0.59371581879E+02 -0.29387340571E+03  0.31837204402E+03  0.00000000000E+00 0. -1.
          1    1    1    2  502    0 -0.43321434632E+01  0.39977221649E+02  0.12759053324E+04  0.12765388216E+04  0.00000000000E+00 0. -1.
         22    1    3    3    0    0 -0.17371829677E+01 -0.57795585149E+02 -0.23732449429E+02  0.62502612932E+02  0.00000000000E+00 0. -1.
         22    1    3    3    0    0  0.11318699582E+03 -0.41553218379E+02  0.63369340650E+02  0.13621174441E+03  0.00000000000E+00 0. -1.
</event>
<event>
 7    1  0.6140348E-006  0.6274903E+02  0.7818608E-02  0.1393606E+00
          2   -1    0    0  502    0  0.00000000000E+00  0.00000000000E+00  0.12029462343E+03  0.12029462343E+03  0.00000000000E+00 0. -1.
          1   -1    0    0  501    0 -0.00000000000E+00 -0.00000000000E+00 -0.39699983398E+03  0.39699983398E+03  0.00000000000E+00 0. -1.
         25    2    1    2    0    0  0.28818509240E+02 -0.36986641553E+02 -0.14056517924E+02  0.13426016100E+03  0.12501874662E+03 0.  0.
          2    1    1    2  501    0  0.39098639052E+02  0.49078893087E+02 -0.29868411913E+03  0.30520426659E+03  0.00000000000E+00 0. -1.
          1    1    1    2  502    0 -0.67917148292E+02 -0.12092251534E+02  0.36035426510E+02  0.77830029828E+02  0.00000000000E+00 0. -1.
         22    1    3    3    0    0  0.25848824002E+02 -0.26078897301E+02 -0.69002102966E+02  0.78163679548E+02  0.00000000000E+00 0.  1.
         22    1    3    3    0    0  0.29696852379E+01 -0.10907744253E+02  0.54945585043E+02  0.56096481447E+02  0.00000000000E+00 0.  1.
</event>
<event>
 7    1  0.6140348E-006  0.6037232E+02  0.7818608E-02  0.1441795E+00
          2   -1    0    0  502    0  0.00000000000E+00  0.00000000000E+00  0.17160406965E+04  0.17160406965E+04  0.00000000000E+00 0. -1.
          1   -1    0    0  501    0 -0.00000000000E+00 -0.00000000000E+00 -0.26555998675E+03  0.26555998675E+03  0.00000000000E+00 0. -1.
         25    2    1    2    0    0  0.46688742673E+02  0.23939481413E+02 -0.22084193219E+02  0.13735301932E+03  0.12500081145E+03 0.  0.
          2    1    1    2  501    0  0.11395217202E+02 -0.40960436692E+02 -0.18284939802E+03  0.18772722420E+03  0.00000000000E+00 0. -1.
          1    1    1    2  502    0 -0.58083959875E+02  0.17020955279E+02  0.16554143010E+04  0.16565204397E+04  0.00000000000E+00 0. -1.
         22    1    3    3    0    0 -0.34682392525E+02 -0.20078136664E+02  0.63349489522E+01  0.40572546154E+02  0.00000000000E+00 0.  1.
         22    1    3    3    0    0  0.81371135198E+02  0.44017618077E+02 -0.28419142171E+02  0.96780473167E+02  0.00000000000E+00 0.  1.
</event>
<event>
 7    1  0.6140348E-006  0.6975523E+02  0.7818608E-02  0.1456097E+00
          2   -1    0    0  502    0  0.00000000000E+00  0.00000000000E+00  0.78493787809E+03  0.78493787809E+03  0.00000000000E+00 0. -1.
          1   -1    0    0  501    0 -0.00000000000E+00 -0.00000000000E+00 -0.65147782968E+03  0.65147782968E+03  0.00000000000E+00 0. -1.
         25    2    1    2    0    0  0.36539826994E+01  0.39763192412E+02 -0.15665441541E+03  0.20435346491E+03  0.12500107876E+03 0.  0.
          2    1    1    2  501    0  0.20569792237E+02  0.25947756379E+02 -0.46877757872E+03  0.46994555081E+03  0.00000000000E+00 0. -1.
          1    1    1    2  502    0 -0.24223774937E+02 -0.65710948792E+02  0.75889204254E+03  0.76211669205E+03  0.00000000000E+00 0. -1.
         22    1    3    3    0    0  0.39880623159E+01  0.60982212387E+02 -0.17469989359E+02  0.63560486128E+02  0.00000000000E+00 0.  1.
         22    1    3    3    0    0 -0.33407961647E+00 -0.21219019974E+02 -0.13918442605E+03  0.14079297878E+03  0.00000000000E+00 0.  1.
</event>
<event>
 7    1  0.6140348E-006  0.9187108E+02  0.7818608E-02  0.1485287E+00
          2   -1    0    0  502    0  0.00000000000E+00  0.00000000000E+00  0.45945588161E+03  0.45945588161E+03  0.00000000000E+00 0. -1.
          1   -1    0    0  501    0 -0.00000000000E+00 -0.00000000000E+00 -0.85334824498E+03  0.85334824498E+03  0.00000000000E+00 0. -1.
         25    2    1    2    0    0  0.45780950007E+02 -0.71822308739E+02  0.19831746655E+03  0.24941909999E+03  0.12500292191E+03 0.  0.
          2    1    1    2  501    0 -0.65022906790E+02  0.65042720336E+02 -0.82479499679E+03  0.82990681441E+03  0.00000000000E+00 0. -1.
          1    1    1    2  502    0  0.19241956783E+02  0.67795884029E+01  0.23258516687E+03  0.23347821219E+03  0.00000000000E+00 0. -1.
         22    1    3    3    0    0  0.41542851015E+02  0.23131347183E+02  0.10930242297E+03  0.11919684291E+03  0.00000000000E+00 0.  1.
         22    1    3    3    0    0  0.42380989918E+01 -0.94953655921E+02  0.89015043574E+02  0.13022225708E+03  0.00000000000E+00 0.  1.
</event>
<event>
 7    1  0.6140348E-006  0.1032481E+03  0.7818608E-02  0.1454225E+00
          2   -1    0    0  502    0  0.00000000000E+00  0.00000000000E+00  0.18522163593E+04  0.18522163593E+04  0.00000000000E+00 0. -1.
          1   -1    0    0  501    0 -0.00000000000E+00 -0.00000000000E+00 -0.19166763715E+03  0.19166763715E+03  0.00000000000E+00 0. -1.
         25    2    1    2    0    0  0.10088623478E+03 -0.41019774200E+02  0.54495535415E+03  0.56961495893E+03  0.12499683670E+03 0.  0.
          2    1    1    2  501    0 -0.85514922463E+02  0.57695168716E+02 -0.16439458918E+03  0.19408017778E+03  0.00000000000E+00 0. -1.
          1    1    1    2  502    0 -0.15371312318E+02 -0.16675394517E+02  0.12799879572E+04  0.12801888598E+04  0.00000000000E+00 0. -1.
         22    1    3    3    0    0  0.10245676129E+03 -0.42549451337E+02  0.55158553274E+03  0.56263171228E+03  0.00000000000E+00 0. -1.
         22    1    3    3    0    0 -0.15705265058E+01  0.15296771375E+01 -0.66301785898E+01  0.69832466507E+01  0.00000000000E+00 0. -1.
</event>
<event>
 7    1  0.6140348E-006  0.7249736E+02  0.7818608E-02  0.1497269E+00
          2   -1    0    0  502    0  0.00000000000E+00  0.00000000000E+00  0.24752335585E+04  0.24752335585E+04  0.00000000000E+00 0. -1.
          1   -1    0    0  501    0 -0.00000000000E+00 -0.00000000000E+00 -0.84505032442E+02  0.84505032442E+02  0.00000000000E+00 0. -1.
         25    2    1    2    0    0 -0.34793248289E+02  0.44057499181E+02  0.54484259917E+02  0.14746289056E+03  0.12500054461E+03 0.  0.
          2    1    1    2  501    0  0.64309169379E+01  0.22900649837E+02 -0.33681843270E+02  0.41234245739E+02  0.00000000000E+00 0. -1.
          1    1    1    2  502    0  0.28362331351E+02 -0.66958149017E+02  0.23699261094E+04  0.23710414546E+04  0.00000000000E+00 0. -1.
         22    1    3    3    0    0 -0.17346841192E+02  0.76627437945E+02 -0.35707286973E+01  0.78647487238E+02  0.00000000000E+00 0. -1.
         22    1    3    3    0    0 -0.17446407097E+02 -0.32569938764E+02  0.58054988614E+02  0.68815403325E+02  0.00000000000E+00 0. -1.
</event>
<event>
 7    1  0.6140348E-006  0.6706716E+02  0.7818608E-02  0.1508182E+00
          2   -1    0    0  502    0  0.00000000000E+00  0.00000000000E+00  0.60765287124E+02  0.60765287124E+02  0.00000000000E+00 0. -1.
          1   -1    0    0  501    0 -0.00000000000E+00 -0.00000000000E+00 -0.13537496508E+04  0.13537496508E+04  0.00000000000E+00 0. -1.
         25    2    1    2    0    0 -0.21261500272E+02 -0.38759952655E+02 -0.11842430917E+03  0.17777499295E+03  0.12500098316E+03 0.  0.
          2    1    1    2  501    0  0.36374576092E+02  0.57225228152E+02 -0.11999690048E+04  0.12018832926E+04  0.00000000000E+00 0. -1.
          1    1    1    2  502    0 -0.15113075820E+02 -0.18465275496E+02  0.25408950301E+02  0.34856652382E+02  0.00000000000E+00 0. -1.
         22    1    3    3    0    0 -0.28181872476E+02 -0.82093233003E+02 -0.63876795723E+02  0.10776716510E+03  0.00000000000E+00 0.  1.
         22    1    3    3    0    0  0.69203722043E+01  0.43333280347E+02 -0.54547513452E+02  0.70007827854E+02  0.00000000000E+00 0.  1.
</event>
<event>
 7    1  0.6174316E-006  0.8298754E+02  0.7818608E-02  0.1381477E+00
          2   -1    0    0  502    0  0.00000000000E+00  0.00000000000E+00  0.55803185310E+03  0.55803185310E+03  0.00000000000E+00 0. -1.
          1   -1    0    0  501    0 -0.00000000000E+00 -0.00000000000E+00 -0.10775322578E+04  0.10775322578E+04  0.00000000000E+00 0. -1.
         25    2    1    2    0    0  0.44025288407E+02  0.57095677902E+01 -0.27489532552E+03  0.30522637430E+03  0.12499949757E+03 0.  0.
          2    1    1    2  501    0 -0.88375294684E+02  0.16220602899E+02 -0.78377203242E+03  0.78890550732E+03  0.00000000000E+00 0. -1.
          1    1    1    2  502    0  0.44350006277E+02 -0.21930170689E+02  0.53916695324E+03  0.54143222929E+03  0.00000000000E+00 0. -1.
         22    1    3    3    0    0  0.28277406573E+02  0.29766487595E+02 -0.27336690187E+03  0.27643284635E+03  0.00000000000E+00 0.  1.
         22    1    3    3    0    0  0.15747881834E+02 -0.24056919805E+02 -0.15284236498E+01  0.28793527946E+02  0.00000000000E+00 0.  1.
</event>
<event>
 7    1  0.6140348E-006  0.7549991E+02  0.7818608E-02  0.1355583E+00
          2   -1    0    0  502    0  0.00000000000E+00  0.00000000000E+00  0.22605051133E+04  0.22605051133E+04  0.00000000000E+00 0. -1.
          1   -1    0    0  501    0 -0.00000000000E+00 -0.00000000000E+00 -0.39946025133E+03  0.39946025133E+03  0.00000000000E+00 0. -1.
         25    2    1    2    0    0  0.98415209890E+02  0.11124179215E+02  0.13780441341E+03  0.21076791888E+03  0.12499503338E+03 0.  0.
          2    1    1    2  501    0 -0.49270556434E+02 -0.57273271067E+02 -0.35849567702E+03  0.36636998479E+03  0.00000000000E+00 0. -1.
          1    1    1    2  502    0 -0.49144653456E+02  0.46149091851E+02  0.20817361256E+04  0.20828274609E+04  0.00000000000E+00 0. -1.
         22    1    3    3    0    0  0.95590578983E+02 -0.19104714577E+02  0.34999626832E+02  0.10357375530E+03  0.00000000000E+00 0.  1.
         22    1    3    3    0    0  0.28246309071E+01  0.30228893792E+02  0.10280478658E+03  0.10719416357E+03  0.00000000000E+00 0.  1.
</event>
<event>
 7    1  0.6140348E-006  0.1587410E+03  0.7818608E-02  0.1413482E+00
          2   -1    0    0  502    0  0.00000000000E+00  0.00000000000E+00  0.53105049492E+03  0.53105049492E+03  0.00000000000E+00 0. -1.
          1   -1    0    0  501    0 -0.00000000000E+00 -0.00000000000E+00 -0.23914272517E+03  0.23914272517E+03  0.00000000000E+00 0. -1.
         25    2    1    2    0    0 -0.17536134446E+02 -0.14266089765E+03 -0.10555203997E+03  0.21777503151E+03  0.12500033391E+03 0.  0.
          2    1    1    2  501    0  0.10305685756E+02 -0.17205383040E+02 -0.62381642813E+02  0.65526343745E+02  0.00000000000E+00 0. -1.
          1    1    1    2  502    0  0.72304486900E+01  0.15986628069E+03  0.45984145254E+03  0.48689184483E+03  0.00000000000E+00 0. -1.
         22    1    3    3    0    0 -0.46256112647E+02 -0.83371932584E+02 -0.11697899491E+03  0.15091253211E+03  0.00000000000E+00 0. -1.
         22    1    3    3    0    0  0.28719978201E+02 -0.59288965064E+02  0.11426954934E+02  0.66862499394E+02  0.00000000000E+00 0. -1.
</event>
<event>
 7    1  0.6140348E-006  0.5404188E+02  0.7818608E-02  0.1531805E+00
          2   -1    0    0  502    0  0.00000000000E+00  0.00000000000E+00  0.44332863583E+03  0.44332863583E+03  0.00000000000E+00 0. -1.
          1   -1    0    0  501    0 -0.00000000000E+00 -0.00000000000E+00 -0.10876086959E+04  0.10876086959E+04  0.00000000000E+00 0. -1.
         25    2    1    2    0    0 -0.48130905795E+02 -0.38327357101E+02 -0.26609618195E+03  0.30036578553E+03  0.12500742648E+03 0.  0.
          2    1    1    2  501    0  0.52230272280E+02  0.13376392414E+02 -0.80309798334E+03  0.80490577092E+03  0.00000000000E+00 0. -1.
          1    1    1    2  502    0 -0.40993664854E+01  0.24950964687E+02  0.42491410521E+03  0.42566577529E+03  0.00000000000E+00 0. -1.
         22    1    3    3    0    0  0.83004634364E+01 -0.33732402314E+01 -0.21850425689E+03  0.21868787512E+03  0.00000000000E+00 0. -1.
         22    1    3    3    0    0 -0.56431369231E+02 -0.34954116870E+02 -0.47591925057E+02  0.81677910417E+02  0.00000000000E+00 0. -1.
</event>
<event>
 7    1  0.6140348E-006  0.1032573E+03  0.7818608E-02  0.1274777E+00
          2   -1    0    0  502    0  0.00000000000E+00  0.00000000000E+00  0.74665586940E+03  0.74665586940E+03  0.00000000000E+00 0. -1.
          1   -1    0    0  501    0 -0.00000000000E+00 -0.00000000000E+00 -0.13887953783E+03  0.13887953783E+03  0.00000000000E+00 0. -1.
         25    2    1    2    0    0  0.12104642575E+02 -0.14348775938E+02  0.12005487996E+03  0.17433650294E+03  0.12501052880E+03 0.  0.
          2    1    1    2  501    0  0.72169423920E+02 -0.73848833805E+02 -0.79935601373E+02  0.13058245047E+03  0.00000000000E+00 0. -1.
          1    1    1    2  502    0 -0.84274066494E+02  0.88197609743E+02  0.56765705298E+03  0.58061645382E+03  0.00000000000E+00 0. -1.
         22    1    3    3    0    0 -0.37559102550E+02  0.36025061448E+02  0.71915637472E+02  0.88771336307E+02  0.00000000000E+00 0.  1.
         22    1    3    3    0    0  0.49663745125E+02 -0.50373837387E+02  0.48139242488E+02  0.85565166629E+02  0.00000000000E+00 0.  1.
</event>
<event>
 7    1  0.6140348E-006  0.3678128E+02  0.7818608E-02  0.1534058E+00
          2   -1    0    0  502    0  0.00000000000E+00  0.00000000000E+00  0.40561261999E+04  0.40561261999E+04  0.00000000000E+00 0. -1.
          1   -1    0    0  501    0 -0.00000000000E+00 -0.00000000000E+00 -0.47878167957E+01  0.47878167957E+01  0.00000000000E+00 0. -1.
         25    2    1    2    0    0 -0.50356555503E+01  0.48087914507E+02  0.17418803657E+04  0.17470292267E+04  0.12500442080E+03 0.  0.
          2    1    1    2  501    0  0.30184167180E+02 -0.21247372227E+02  0.16363967514E+03  0.16775123861E+03  0.00000000000E+00 0. -1.
          1    1    1    2  502    0 -0.25148511630E+02 -0.26840542280E+02  0.21458183423E+04  0.21461335514E+04  0.00000000000E+00 0. -1.
         22    1    3    3    0    0  0.28505179957E+02  0.16414262930E+02  0.15222893800E+04  0.15226447155E+04  0.00000000000E+00 0.  1.
         22    1    3    3    0    0 -0.33540835507E+02  0.31673651577E+02  0.21959098571E+03  0.22438451117E+03  0.00000000000E+00 0.  1.
</event>
<event>
 7    1  0.6140348E-006  0.9198500E+02  0.7818608E-02  0.1480218E+00
          2   -1    0    0  502    0  0.00000000000E+00  0.00000000000E+00  0.43274058186E+03  0.43274058186E+03  0.00000000000E+00 0. -1.
          1   -1    0    0  501    0 -0.00000000000E+00 -0.00000000000E+00 -0.45493805560E+03  0.45493805560E+03  0.00000000000E+00 0. -1.
         25    2    1    2    0    0  0.59973546182E+02  0.86481005236E+02  0.20618028423E+03  0.26308010952E+03  0.12500017564E+03 0.  0.
          2    1    1    2  501    0 -0.19137230884E+02 -0.89250676761E+01 -0.41651281850E+03  0.41704774116E+03  0.00000000000E+00 0. -1.
          1    1    1    2  502    0 -0.40836315299E+02 -0.77555937560E+02  0.18813506052E+03  0.20755078679E+03  0.00000000000E+00 0. -1.
         22    1    3    3    0    0  0.61312689713E+02 -0.92111932637E+00  0.34328842706E+02  0.70274916024E+02  0.00000000000E+00 0. -1.
         22    1    3    3    0    0 -0.13391435307E+01  0.87402124563E+02  0.17185144152E+03  0.19280519349E+03  0.00000000000E+00 0. -1.
</event>
<event>
 7    1  0.6140348E-006  0.1757296E+03  0.7818608E-02  0.1211315E+00
          2   -1    0    0  502    0  0.00000000000E+00  0.00000000000E+00  0.29701440194E+04  0.29701440194E+04  0.00000000000E+00 0. -1.
          1   -1    0    0  501    0 -0.00000000000E+00 -0.00000000000E+00 -0.12941539229E+04  0.12941539229E+04  0.00000000000E+00 0. -1.
         25    2    1    2    0    0 -0.37806562940E+02  0.60071206723E+02  0.15470419560E+02  0.14457614122E+03  0.12500016260E+03 0.  0.
          2    1    1    2  501    0  0.92117222766E+02 -0.16024522268E+03 -0.12215226309E+04  0.12354277202E+04  0.00000000000E+00 0. -1.
          1    1    1    2  502    0 -0.54310659825E+02  0.10017401596E+03  0.28820423077E+04  0.28842940809E+04  0.00000000000E+00 0. -1.
         22    1    3    3    0    0  0.20494624849E+02 -0.17857841028E+02  0.36000202293E+02  0.45110383495E+02  0.00000000000E+00 0.  1.
         22    1    3    3    0    0 -0.58301187790E+02  0.77929047751E+02 -0.20529782733E+02  0.99465757727E+02  0.00000000000E+00 0.  1.
</event>
<event>
 7    1  0.6140348E-006  0.4291107E+02  0.7818608E-02  0.1582509E+00
          2   -1    0    0  502    0  0.00000000000E+00  0.00000000000E+00  0.17419719622E+04  0.17419719622E+04  0.00000000000E+00 0. -1.
          1   -1    0    0  501    0 -0.00000000000E+00 -0.00000000000E+00 -0.17343323127E+03  0.17343323127E+03  0.00000000000E+00 0. -1.
         25    2    1    2    0    0  0.31776280050E+02 -0.53722447461E+02  0.51519643765E+02  0.14890939826E+03  0.12499560737E+03 0.  0.
          2    1    1    2  501    0 -0.19893088397E+01  0.22975942431E+02 -0.12339078456E+03  0.12552743522E+03  0.00000000000E+00 0. -1.
          1    1    1    2  502    0 -0.29786971211E+02  0.30746505030E+02  0.16404098717E+04  0.16409683600E+04  0.00000000000E+00 0. -1.
         22    1    3    3    0    0  0.26402277612E+02 -0.25609210927E+02  0.92144316120E+02  0.99214348462E+02  0.00000000000E+00 0. -1.
         22    1    3    3    0    0  0.53740024383E+01 -0.28113236534E+02 -0.40624672355E+02  0.49695049799E+02  0.00000000000E+00 0. -1.
</event>
<event>
 7    1  0.6140348E-006  0.9279143E+02  0.7818608E-02  0.1434439E+00
          2   -1    0    0  502    0  0.00000000000E+00  0.00000000000E+00  0.13844746976E+04  0.13844746976E+04  0.00000000000E+00 0. -1.
          1   -1    0    0  501    0 -0.00000000000E+00 -0.00000000000E+00 -0.53866709837E+02  0.53866709837E+02  0.00000000000E+00 0. -1.
         25    2    1    2    0    0  0.79182138228E+02  0.28211543028E+02  0.11993750283E+03  0.19255054347E+03  0.12500002013E+03 0.  0.
          2    1    1    2  501    0  0.14197996526E+02 -0.25549598983E+02 -0.22147910102E+01  0.29313314599E+02  0.00000000000E+00 0. -1.
          1    1    1    2  502    0 -0.93380134755E+02 -0.26619440447E+01  0.12128852760E+04  0.12164775494E+04  0.00000000000E+00 0. -1.
         22    1    3    3    0    0 -0.19111259019E+02  0.15274274796E+02 -0.12214070999E+02  0.27344601336E+02  0.00000000000E+00 0.  1.
         22    1    3    3    0    0  0.98293397247E+02  0.12937268231E+02  0.13215157383E+03  0.16520594213E+03  0.00000000000E+00 0.  1.
</event>
<event>
 7    1  0.6140348E-006  0.1344644E+03  0.7818608E-02  0.1330690E+00
          2   -1    0    0  502    0  0.00000000000E+00  0.00000000000E+00  0.23241326336E+04  0.23241326336E+04  0.00000000000E+00 0. -1.
          1   -1    0    0  501    0 -0.00000000000E+00 -0.00000000000E+00 -0.20738554040E+02  0.20738554040E+02  0.00000000000E+00 0. -1.
         25    2    1    2    0    0 -0.77372575387E+02 -0.61992351248E+02  0.13376279940E+04  0.13471092522E+04  0.12500048041E+03 0.  0.
          2    1    1    2  501    0  0.12244768704E+03  0.75002007276E+02  0.32533057385E+03  0.35561034777E+03  0.00000000000E+00 0. -1.
          1    1    1    2  502    0 -0.45075111654E+02 -0.13009656028E+02  0.64043551172E+03  0.64215158764E+03  0.00000000000E+00 0. -1.
         22    1    3    3    0    0 -0.83375471082E+02 -0.36556409794E+02  0.12862361500E+04  0.12894538665E+04  0.00000000000E+00 0.  1.
         22    1    3    3    0    0  0.60028956953E+01 -0.25435941454E+02  0.51391843977E+02  0.57655385713E+02  0.00000000000E+00 0.  1.
</event>
<event>
 7    1  0.6281375E-006  0.1914070E+03  0.7818608E-02  0.1252576E+00
          2   -1    0    0  502    0  0.00000000000E+00  0.00000000000E+00  0.20772584521E+04  0.20772584521E+04  0.00000000000E+00 0. -1.
          1   -1    0    0  501    0 -0.00000000000E+00 -0.00000000000E+00 -0.17926729050E+04  0.17926729050E+04  0.00000000000E+00 0. -1.
         25    2    1    2    0    0 -0.11032753692E+03  0.11870770471E+03 -0.21904862106E+03  0.29978666131E+03  0.12500423732E+03 0.  0.
          2    1    1    2  501    0 -0.60777283408E+02 -0.31407776714E+02 -0.15279594284E+04  0.15294902227E+04  0.00000000000E+00 0. -1.
          1    1    1    2  502    0  0.17110482033E+03 -0.87299927993E+02  0.20315935966E+04  0.20406544731E+04  0.00000000000E+00 0. -1.
         22    1    3    3    0    0 -0.58413862738E+02  0.48536658088E+02 -0.19496959819E+03  0.20923941014E+03  0.00000000000E+00 0. -1.
         22    1    3    3    0    0 -0.51913674182E+02  0.70171046619E+02 -0.24079022874E+02  0.90547251163E+02  0.00000000000E+00 0. -1.
</event>
<event>
 7    1  0.6140348E-006  0.9443970E+02  0.7818608E-02  0.1324588E+00
          2   -1    0    0  502    0  0.00000000000E+00  0.00000000000E+00  0.26318986897E+04  0.26318986897E+04  0.00000000000E+00 0. -1.
          1   -1    0    0  501    0 -0.00000000000E+00 -0.00000000000E+00 -0.22864233113E+03  0.22864233113E+03  0.00000000000E+00 0. -1.
         25    2    1    2    0    0 -0.28667229478E+01  0.11335346460E+03 -0.23688531798E+02  0.17041461244E+03  0.12499106990E+03 0.  0.
          2    1    1    2  501    0 -0.56707430545E+02 -0.75663692903E+02 -0.11405271848E+03  0.14815110427E+03  0.00000000000E+00 0. -1.
          1    1    1    2  502    0  0.59574153493E+02 -0.37689771701E+02  0.25409976089E+04  0.25419753042E+04  0.00000000000E+00 0. -1.
         22    1    3    3    0    0 -0.69440081073E+01 -0.29702894313E+01 -0.50425561575E+02  0.50988029262E+02  0.00000000000E+00 0. -1.
         22    1    3    3    0    0  0.40772851596E+01  0.11632375404E+03  0.26737029776E+02  0.11942658317E+03  0.00000000000E+00 0. -1.
</event>
<event>
 7    1  0.6140348E-006  0.2879357E+03  0.7818608E-02  0.1234446E+00
          2   -1    0    0  502    0  0.00000000000E+00  0.00000000000E+00  0.55131005979E+03  0.55131005979E+03  0.00000000000E+00 0. -1.
          1   -1    0    0  501    0 -0.00000000000E+00 -0.00000000000E+00 -0.85257566858E+03  0.85257566858E+03  0.00000000000E+00 0. -1.
         25    2    1    2    0    0 -0.13560273375E+03 -0.20658130531E+03 -0.17060498269E+03  0.32526145894E+03  0.12500007780E+03 0.  0.
          2    1    1    2  501    0 -0.48727699348E+02 -0.24661812846E+02 -0.55705100563E+03  0.55972173137E+03  0.00000000000E+00 0. -1.
          1    1    1    2  502    0  0.18433043309E+03  0.23124311815E+03  0.42639037953E+03  0.51890253807E+03  0.00000000000E+00 0. -1.
         22    1    3    3    0    0 -0.14410107099E+03 -0.12656407730E+03 -0.14624729178E+03  0.24118842152E+03  0.00000000000E+00 0. -1.
         22    1    3    3    0    0  0.84983372468E+01 -0.80017228005E+02 -0.24357690916E+02  0.84073037416E+02  0.00000000000E+00 0. -1.
</event>
<event>
 7    1  0.6140348E-006  0.9548758E+02  0.7818608E-02  0.1304527E+00
          2   -1    0    0  502    0  0.00000000000E+00  0.00000000000E+00  0.78210632354E+02  0.78210632354E+02  0.00000000000E+00 0. -1.
          1   -1    0    0  501    0 -0.00000000000E+00 -0.00000000000E+00 -0.14025496080E+04  0.14025496080E+04  0.00000000000E+00 0. -1.
         25    2    1    2    0    0 -0.12338782019E+03 -0.94118912734E+02 -0.39984691569E+03  0.44674973674E+03  0.12499938954E+03 0.  0.
          2    1    1    2  501    0  0.33918687292E+02  0.76338843592E+02 -0.93807413220E+03  0.94178616144E+03  0.00000000000E+00 0. -1.
          1    1    1    2  502    0  0.89469132896E+02  0.17780069142E+02  0.13582072254E+02  0.92224342158E+02  0.00000000000E+00 0. -1.
         22    1    3    3    0    0 -0.11674399830E+03 -0.14106717282E+02 -0.26293857018E+03  0.28803619963E+03  0.00000000000E+00 0.  1.
         22    1    3    3    0    0 -0.66438218866E+01 -0.80012195452E+02 -0.13690834551E+03  0.15871353710E+03  0.00000000000E+00 0.  1.
</event>
<event>
 7    1  0.6140348E-006  0.5248210E+02  0.7818608E-02  0.1506754E+00
          2   -1    0    0  502    0  0.00000000000E+00  0.00000000000E+00  0.10493801304E+04  0.10493801304E+04  0.00000000000E+00 0. -1.
          1   -1    0    0  501    0 -0.00000000000E+00 -0.00000000000E+00 -0.24883112232E+03  0.24883112232E+03  0.00000000000E+00 0. -1.
         25    2    1    2    0    0  0.30609263350E+02  0.15874695247E+02  0.94633792376E+02  0.16053226334E+03  0.12500447977E+03 0.  0.
          2    1    1    2  501    0 -0.47491693932E+01  0.30421928420E+02 -0.21401652485E+03  0.21622007596E+03  0.00000000000E+00 0. -1.
          1    1    1    2  502    0 -0.25860093956E+02 -0.46296623667E+02  0.91993174057E+03  0.92145891342E+03  0.00000000000E+00 0. -1.
         22    1    3    3    0    0 -0.45440968933E+02 -0.13999326136E+02  0.28688117909E+02  0.55532611131E+02  0.00000000000E+00 0. -1.
         22    1    3    3    0    0  0.76050232283E+02  0.29874021383E+02  0.65945674467E+02  0.10499965221E+03  0.00000000000E+00 0. -1.
</event>
<event>
 7    1  0.6140348E-006  0.3445607E+02  0.7818608E-02  0.1556501E+00
          2   -1    0    0  502    0  0.00000000000E+00  0.00000000000E+00  0.62649595981E+03  0.62649595981E+03  0.00000000000E+00 0. -1.
          1   -1    0    0  501    0 -0.00000000000E+00 -0.00000000000E+00 -0.15480495495E+04  0.15480495495E+04  0.00000000000E+00 0. -1.
         25    2    1    2    0    0 -0.50041137866E+02  0.46321235039E+02 -0.23125037825E+03  0.27157326680E+03  0.12500211800E+03 0.  0.
          2    1    1    2  501    0  0.24905303040E+02 -0.22849889854E+02 -0.12959295572E+04  0.12963702438E+04  0.00000000000E+00 0. -1.
          1    1    1    2  502    0  0.25135834826E+02 -0.23471345185E+02  0.60562634577E+03  0.60660199878E+03  0.00000000000E+00 0. -1.
         22    1    3    3    0    0 -0.38670662009E+02  0.50931481690E+01 -0.22499506560E+03  0.22835091374E+03  0.00000000000E+00 0.  1.
         22    1    3    3    0    0 -0.11370475857E+02  0.41228086870E+02 -0.62553126480E+01  0.43222353065E+02  0.00000000000E+00 0.  1.
</event>
<event>
 7    1  0.6140348E-006  0.7172918E+02  0.7818608E-02  0.1390350E+00
          2   -1    0    0  502    0  0.00000000000E+00  0.00000000000E+00  0.19609260659E+04  0.19609260659E+04  0.00000000000E+00 0. -1.
          1   -1    0    0  501    0 -0.00000000000E+00 -0.00000000000E+00 -0.16778870096E+03  0.16778870096E+03  0.00000000000E+00 0. -1.
         25    2    1    2    0    0 -0.17879859149E+02 -0.45503575414E+02  0.43141818847E+03  0.45181531671E+03  0.12500064934E+03 0.  0.
          2    1    1    2  501    0  0.67546199421E+02  0.26218152453E+02 -0.14876718170E+03  0.16547372881E+03  0.00000000000E+00 0. -1.
          1    1    1    2  502    0 -0.49666340273E+02  0.19285422961E+02  0.15104863581E+04  0.15114257213E+04  0.00000000000E+00 0. -1.
         22    1    3    3    0    0 -0.37858634978E+02 -0.99472069217E+01  0.32667270441E+02  0.50984053645E+02  0.00000000000E+00 0. -1.
         22    1    3    3    0    0  0.19978775829E+02 -0.35556368492E+02  0.39875091803E+03  0.40083126306E+03  0.00000000000E+00 0. -1.
</event>
<event>
 7    1  0.6140348E-006  0.4244335E+02  0.7818608E-02  0.1526499E+00
          2   -1    0    0  502    0  0.00000000000E+00  0.00000000000E+00  0.10254531221E+04  0.10254531221E+04  0.00000000000E+00 0. -1.
          1   -1    0    0  501    0 -0.00000000000E+00 -0.00000000000E+00 -0.33401661065E+03  0.33401661065E+03  0.00000000000E+00 0. -1.
         25    2    1    2    0    0  0.19007275673E+02 -0.48744814652E+01  0.96116164433E+02  0.15889370618E+03  0.12499542272E+03 0.  0.
          2    1    1    2  501    0  0.16520854803E+02  0.28962997128E+02 -0.30119432650E+03  0.30303434815E+03  0.00000000000E+00 0. -1.
          1    1    1    2  502    0 -0.35528130476E+02 -0.24088515662E+02  0.89651467350E+03  0.89754167839E+03  0.00000000000E+00 0. -1.
         22    1    3    3    0    0  0.61710241964E+02  0.32528245432E+02  0.53250765145E+02  0.87760382307E+02  0.00000000000E+00 0. -1.
         22    1    3    3    0    0 -0.42702966291E+02 -0.37402726898E+02  0.42865399289E+02  0.71133323876E+02  0.00000000000E+00 0. -1.
</event>
<event>
 7    1  0.6140348E-006  0.4340446E+02  0.7818608E-02  0.1574451E+00
          2   -1    0    0  502    0  0.00000000000E+00  0.00000000000E+00  0.85440629762E+03  0.85440629762E+03  0.00000000000E+00 0. -1.
          1   -1    0    0  501    0 -0.00000000000E+00 -0.00000000000E+00 -0.12071372599E+03  0.12071372599E+03  0.00000000000E+00 0. -1.
         25    2    1    2    0    0 -0.13027329736E+02  0.19580495183E+02  0.58500902041E+03  0.59867704084E+03  0.12500215257E+03 0.  0.
          2    1    1    2  501    0  0.75218660566E+01 -0.42904707873E+02 -0.10913823963E+03  0.11750977737E+03  0.00000000000E+00 0. -1.
          1    1    1    2  502    0  0.55054636791E+01  0.23324212690E+02  0.25782179085E+03  0.25893320541E+03  0.00000000000E+00 0. -1.
         22    1    3    3    0    0 -0.49692556138E+02 -0.21891294491E+02  0.44208869015E+03  0.44541103362E+03  0.00000000000E+00 0. -1.
         22    1    3    3    0    0  0.36665226403E+02  0.41471789674E+02  0.14292033026E+03  0.15326600722E+03  0.00000000000E+00 0. -1.
</event>
<event>
 7    1  0.6140348E-006  0.7334785E+02  0.7818608E-02  0.1487628E+00
          2   -1    0    0  502    0  0.00000000000E+00  0.00000000000E+00  0.13751790856E+04  0.13751790856E+04  0.00000000000E+00 0. -1.
          1   -1    0    0  501    0 -0.00000000000E+00 -0.00000000000E+00 -0.80539165743E+02  0.80539165743E+02  0.00000000000E+00 0. -1.
         25    2    1    2    0    0  0.28786650071E+01 -0.58115071170E+02  0.64374218363E+02  0.15216661229E+03  0.12499995878E+03 0.  0.
          2    1    1    2  501    0 -0.21313987200E+02 -0.13328411169E+02 -0.31122807176E+02  0.40007020899E+02  0.00000000000E+00 0. -1.
          1    1    1    2  502    0  0.18435322193E+02  0.71443482340E+02  0.12613885086E+04  0.12635446181E+04  0.00000000000E+00 0. -1.
         22    1    3    3    0    0 -0.32328524929E+02  0.25166581488E+02 -0.34913950212E+00  0.40970870704E+02  0.00000000000E+00 0. -1.
         22    1    3    3    0    0  0.35207189936E+02 -0.83281652658E+02  0.64723357865E+02  0.11119574158E+03  0.00000000000E+00 0. -1.
</event>
<event>
 7    1  0.6140348E-006  0.2215814E+03  0.7818608E-02  0.1274702E+00
          2   -1    0    0  502    0  0.00000000000E+00  0.00000000000E+00  0.26056319657E+03  0.26056319657E+03  0.00000000000E+00 0. -1.
          1   -1    0    0  501    0 -0.00000000000E+00 -0.00000000000E+00 -0.10221028015E+04  0.10221028015E+04  0.00000000000E+00 0. -1.
         25    2    1    2    0    0  0.34700463164E+02  0.25525092843E+03 -0.28782417344E+03  0.40598629571E+03  0.12499983555E+03 0.  0.
          2    1    1    2  501    0 -0.39155667213E+02 -0.20785204648E+03 -0.65549266687E+03  0.68877157014E+03  0.00000000000E+00 0. -1.
          1    1    1    2  502    0  0.44552040492E+01 -0.47398881945E+02  0.18177723537E+03  0.18790813222E+03  0.00000000000E+00 0. -1.
         22    1    3    3    0    0  0.66780369262E+02  0.82231790462E+02 -0.14372395241E+03  0.17854483912E+03  0.00000000000E+00 0. -1.
         22    1    3    3    0    0 -0.32079906098E+02  0.17301913796E+03 -0.14410022103E+03  0.22744145659E+03  0.00000000000E+00 0. -1.
</event>
<event>
 7    1  0.6140348E-006  0.1277716E+03  0.7818608E-02  0.1340358E+00
          2   -1    0    0  502    0  0.00000000000E+00  0.00000000000E+00  0.32020670948E+03  0.32020670948E+03  0.00000000000E+00 0. -1.
          1   -1    0    0  501    0 -0.00000000000E+00 -0.00000000000E+00 -0.59289488175E+03  0.59289488175E+03  0.00000000000E+00 0. -1.
         25    2    1    2    0    0 -0.10244528413E+03 -0.12731027507E+03 -0.89729723474E+01  0.20593458861E+03  0.12500239268E+03 0.  0.
          2    1    1    2  501    0  0.60825989623E+02  0.10922311258E+03 -0.47494199803E+03  0.49112054613E+03  0.00000000000E+00 0. -1.
          1    1    1    2  502    0  0.41619294505E+02  0.18087162491E+02  0.21122679811E+03  0.21604645649E+03  0.00000000000E+00 0. -1.
         22    1    3    3    0    0 -0.96380587985E+02 -0.23025954457E+02 -0.19334120188E+02  0.10096148039E+03  0.00000000000E+00 0.  1.
         22    1    3    3    0    0 -0.60646961431E+01 -0.10428432061E+03  0.10361147841E+02  0.10497310822E+03  0.00000000000E+00 0.  1.
</event>
<event>
 7    1  0.6140348E-006  0.5176507E+02  0.7818608E-02  0.1438191E+00
          2   -1    0    0  502    0  0.00000000000E+00  0.00000000000E+00  0.27191140159E+03  0.27191140159E+03  0.00000000000E+00 0. -1.
          1   -1    0    0  501    0 -0.00000000000E+00 -0.00000000000E+00 -0.21017567628E+04  0.21017567628E+04  0.00000000000E+00 0. -1.
         25    2    1    2    0    0  0.12570365933E+02  0.36626634271E+02 -0.14970403777E+04  0.15027486419E+04  0.12499625488E+03 0.  0.
          2    1    1    2  501    0  0.39102465198E+02 -0.32646630601E+02 -0.59827416484E+03  0.60043882418E+03  0.00000000000E+00 0. -1.
          1    1    1    2  502    0 -0.51672831131E+02 -0.39800036692E+01  0.26546918135E+03  0.27048069830E+03  0.00000000000E+00 0. -1.
         22    1    3    3    0    0  0.37535944577E+02 -0.37205814841E+02 -0.62869164268E+03  0.63090918631E+03  0.00000000000E+00 0. -1.
         22    1    3    3    0    0 -0.24965578645E+02  0.73832449111E+02 -0.86834873507E+03  0.87183945561E+03  0.00000000000E+00 0. -1.
</event>
<event>
 7    1  0.6140348E-006  0.7855002E+02  0.7818608E-02  0.1349783E+00
          2   -1    0    0  502    0  0.00000000000E+00  0.00000000000E+00  0.19746172752E+04  0.19746172752E+04  0.00000000000E+00 0. -1.
          1   -1    0    0  501    0 -0.00000000000E+00 -0.00000000000E+00 -0.23570325887E+04  0.23570325887E+04  0.00000000000E+00 0. -1.
         25    2    1    2    0    0  0.22828991886E+02 -0.23805880208E+02  0.82028172212E+03  0.83040707274E+03  0.12500368004E+03 0.  0.
          2    1    1    2  501    0 -0.76493001224E+02 -0.18073676224E+02 -0.23503044205E+04  0.23516183164E+04  0.00000000000E+00 0. -1.
          1    1    1    2  502    0  0.53664009338E+02  0.41879556432E+02  0.11476073849E+04  0.11496244747E+04  0.00000000000E+00 0. -1.
         22    1    3    3    0    0 -0.22767304069E+02 -0.54163622937E+02  0.22270368097E+03  0.23032363687E+03  0.00000000000E+00 0. -1.
         22    1    3    3    0    0  0.45596295955E+02  0.30357742729E+02  0.59757804115E+03  0.60008343588E+03  0.00000000000E+00 0. -1.
</event>
<event>
 7    1  0.6140348E-006  0.3860676E+02  0.7818608E-02  0.1541515E+00
          2   -1    0    0  502    0  0.00000000000E+00  0.00000000000E+00  0.62469814649E+03  0.62469814649E+03  0.00000000000E+00 0. -1.
          1   -1    0    0  501    0 -0.00000000000E+00 -0.00000000000E+00 -0.71351464394E+03  0.71351464394E+03  0.00000000000E+00 0. -1.
         25    2    1    2    0    0  0.62042656114E+02 -0.35870119415E+02 -0.15270799045E+03  0.20995585307E+03  0.12500309295E+03 0.  0.
          2    1    1    2  501    0 -0.29372740283E+02  0.15512673888E+02 -0.53104177507E+03  0.53207966302E+03  0.00000000000E+00 0. -1.
          1    1    1    2  502    0 -0.32669915831E+02  0.20357445527E+02  0.59493326807E+03  0.59617727434E+03  0.00000000000E+00 0. -1.
         22    1    3    3    0    0  0.64437221246E+02 -0.54455396378E+02 -0.35953498302E+02  0.91707141035E+02  0.00000000000E+00 0.  1.
         22    1    3    3    0    0 -0.23945651323E+01  0.18585276963E+02 -0.11675449214E+03  0.11824871203E+03  0.00000000000E+00 0.  1.
</event>
<event>
 7    1  0.6140348E-006  0.1398399E+03  0.7818608E-02  0.1275409E+00
          2   -1    0    0  502    0  0.00000000000E+00  0.00000000000E+00  0.57902283586E+03  0.57902283586E+03  0.00000000000E+00 0. -1.
          1   -1    0    0  501    0 -0.00000000000E+00 -0.00000000000E+00 -0.21299493213E+04  0.21299493213E+04  0.00000000000E+00 0. -1.
         25    2    1    2    0    0 -0.37315450668E+02  0.62826217303E+02 -0.19477928447E+03  0.24270127637E+03  0.12500145380E+03 0.  0.
          2    1    1    2  501    0 -0.65725760185E+02  0.35973446133E+02 -0.19012802808E+04  0.19027560723E+04  0.00000000000E+00 0. -1.
          1    1    1    2  502    0  0.10304121085E+03 -0.98799663436E+02  0.54513307986E+03  0.56351480849E+03  0.00000000000E+00 0. -1.
         22    1    3    3    0    0  0.13767832985E+02  0.53784048327E+02 -0.18057138715E+03  0.18891348003E+03  0.00000000000E+00 0. -1.
         22    1    3    3    0    0 -0.51083283653E+02  0.90421689761E+01 -0.14207897324E+02  0.53787796339E+02  0.00000000000E+00 0. -1.
</event>
<event>
 7    1  0.6140348E-006  0.4647802E+02  0.7818608E-02  0.1466932E+00
          2   -1    0    0  502    0  0.00000000000E+00  0.00000000000E+00  0.30443805598E+03  0.30443805598E+03  0.00000000000E+00 0. -1.
          1   -1    0    0  501    0 -0.00000000000E+00 -0.00000000000E+00 -0.14711809519E+04  0.14711809519E+04  0.00000000000E+00 0. -1.
         25    2    1    2    0    0 -0.82640605183E+02 -0.31344179911E+02  0.77061730541E+02  0.17138864427E+03  0.12499451921E+03 0.  0.
          2    1    1    2  501    0  0.46243329825E+02  0.33110121499E+01 -0.14207052559E+04  0.14214615128E+04  0.00000000000E+00 0. -1.
          1    1    1    2  502    0  0.36397275358E+02  0.28033167761E+02  0.17690062939E+03  0.18276885081E+03  0.00000000000E+00 0. -1.
         22    1    3    3    0    0 -0.84879300477E+02 -0.13616421276E+02  0.10655286111E+03  0.13690659147E+03  0.00000000000E+00 0. -1.
         22    1    3    3    0    0  0.22386952948E+01 -0.17727758635E+02 -0.29491130570E+02  0.34482052797E+02  0.00000000000E+00 0. -1.
</event>
<event>
 7    1  0.6140348E-006  0.7107647E+02  0.7818608E-02  0.1372842E+00
          2   -1    0    0  502    0  0.00000000000E+00  0.00000000000E+00  0.78767522618E+03  0.78767522618E+03  0.00000000000E+00 0. -1.
          1   -1    0    0  501    0 -0.00000000000E+00 -0.00000000000E+00 -0.19773779451E+03  0.19773779451E+03  0.00000000000E+00 0. -1.
         25    2    1    2    0    0 -0.79288924025E+02  0.90864067695E+02  0.89305865996E+02  0.19529421259E+03  0.12498511712E+03 0.  0.
          2    1    1    2  501    0  0.60924266187E+02 -0.31646335058E+02 -0.13500891816E+03  0.15146175991E+03  0.00000000000E+00 0. -1.
          1    1    1    2  502    0  0.18364657837E+02 -0.59217732637E+02  0.63564048383E+03  0.63865704818E+03  0.00000000000E+00 0. -1.
         22    1    3    3    0    0 -0.92551860300E+02  0.16662033834E+02  0.70705512928E+02  0.11765517317E+03  0.00000000000E+00 0.  1.
         22    1    3    3    0    0  0.13262936275E+02  0.74202033861E+02  0.18600353069E+02  0.77639039420E+02  0.00000000000E+00 0.  1.
</event>
<event>
 7    1  0.6140348E-006  0.4420789E+02  0.7818608E-02  0.1526743E+00
          2   -1    0    0  502    0  0.00000000000E+00  0.00000000000E+00  0.43796759407E+03  0.43796759407E+03  0.00000000000E+00 0. -1.
          1   -1    0    0  501    0 -0.00000000000E+00 -0.00000000000E+00 -0.19977043668E+04  0.19977043668E+04  0.00000000000E+00 0. -1.
         25    2    1    2    0    0 -0.52588331042E+02  0.17561263180E+01 -0.19835179920E+03  0.24028561613E+03  0.12500049813E+03 0.  0.
          2    1    1    2  501    0  0.36071983671E+02  0.25606555314E+02 -0.17774976545E+04  0.17780480296E+04  0.00000000000E+00 0. -1.
          1    1    1    2  502    0  0.16516347371E+02 -0.27362681633E+02  0.41611268095E+03  0.41733831519E+03  0.00000000000E+00 0. -1.
         22    1    3    3    0    0 -0.20956598103E+01  0.53412399423E+02 -0.13114967232E+03  0.14162454855E+03  0.00000000000E+00 0. -1.
         22    1    3    3    0    0 -0.50492671232E+02 -0.51656273105E+02 -0.67202126879E+02  0.98661067581E+02  0.00000000000E+00 0. -1.
</event>
<event>
 7    1  0.6140348E-006  0.1021737E+03  0.7818608E-02  0.1313971E+00
          2   -1    0    0  502    0  0.00000000000E+00  0.00000000000E+00  0.28595742650E+04  0.28595742650E+04  0.00000000000E+00 0. -1.
          1   -1    0    0  501    0 -0.00000000000E+00 -0.00000000000E+00 -0.15523608446E+03  0.15523608446E+03  0.00000000000E+00 0. -1.
         25    2    1    2    0    0 -0.42366152785E+02 -0.45429806368E+02  0.24039069507E+03  0.27797734189E+03  0.12499983247E+03 0.  0.
          2    1    1    2  501    0 -0.62442568332E+02  0.35137964403E+02 -0.12589181794E+03  0.14485337658E+03  0.00000000000E+00 0. -1.
          1    1    1    2  502    0  0.10480872112E+03  0.10291841965E+02  0.25898393034E+04  0.25919796310E+04  0.00000000000E+00 0. -1.
         22    1    3    3    0    0 -0.28200249437E+02 -0.41952782015E+02  0.15868831762E+02  0.52982165005E+02  0.00000000000E+00 0. -1.
         22    1    3    3    0    0 -0.14165903348E+02 -0.34770243524E+01  0.22452186331E+03  0.22499517688E+03  0.00000000000E+00 0. -1.
</event>
<event>
 7    1  0.6140348E-006  0.9338379E+02  0.7818608E-02  0.1436243E+00
          2   -1    0    0  502    0  0.00000000000E+00  0.00000000000E+00  0.68686787874E+03  0.68686787874E+03  0.00000000000E+00 0. -1.
          1   -1    0    0  501    0 -0.00000000000E+00 -0.00000000000E+00 -0.51369262200E+03  0.51369262200E+03  0.00000000000E+00 0. -1.
         25    2    1    2    0    0 -0.11313238823E+03  0.95703181843E+01  0.66098712116E+02  0.18133531838E+03  0.12499171849E+03 0.  0.
          2    1    1    2  501    0  0.21434053344E+02 -0.19014555995E+02 -0.45184507397E+03  0.45275262877E+03  0.00000000000E+00 0. -1.
          1    1    1    2  502    0  0.91698334886E+02  0.94442378106E+01  0.55892161859E+03  0.56647255360E+03  0.00000000000E+00 0. -1.
         22    1    3    3    0    0 -0.62721631486E+02  0.34764812147E+02 -0.23519406114E+02  0.75470243698E+02  0.00000000000E+00 0. -1.
         22    1    3    3    0    0 -0.50410756745E+02 -0.25194493963E+02  0.89618118230E+02  0.10586507468E+03  0.00000000000E+00 0. -1.
</event>
<event>
 7    1  0.6140348E-006  0.9205835E+02  0.7818608E-02  0.1340322E+00
          2   -1    0    0  502    0  0.00000000000E+00  0.00000000000E+00  0.29117327120E+03  0.29117327120E+03  0.00000000000E+00 0. -1.
          1   -1    0    0  501    0 -0.00000000000E+00 -0.00000000000E+00 -0.92063003844E+03  0.92063003844E+03  0.00000000000E+00 0. -1.
         25    2    1    2    0    0  0.50948575084E+02  0.12339793046E+03 -0.35630685411E+02  0.18634012568E+03  0.12502115882E+03 0.  0.
          2    1    1    2  501    0 -0.66363901437E+02 -0.62308967464E+02 -0.80241745733E+03  0.80756445605E+03  0.00000000000E+00 0. -1.
          1    1    1    2  502    0  0.15415326353E+02 -0.61088962993E+02  0.20859137551E+03  0.21789872790E+03  0.00000000000E+00 0. -1.
         22    1    3    3    0    0  0.82237142640E+02  0.41293737891E+02 -0.35058097809E+02  0.98474314624E+02  0.00000000000E+00 0.  1.
         22    1    3    3    0    0 -0.31288567556E+02  0.82104192566E+02 -0.57258760214E+00  0.87865811060E+02  0.00000000000E+00 0.  1.
</event>
<event>
 7    1  0.6140348E-006  0.1196479E+03  0.7818608E-02  0.1258955E+00
          2   -1    0    0  502    0  0.00000000000E+00  0.00000000000E+00  0.58064694402E+03  0.58064694402E+03  0.00000000000E+00 0. -1.
          1   -1    0    0  501    0 -0.00000000000E+00 -0.00000000000E+00 -0.49405906937E+03  0.49405906937E+03  0.00000000000E+00 0. -1.
         25    2    1    2    0    0  0.53292288509E+02 -0.12564886870E+02 -0.11634534663E+03  0.17931648673E+03  0.12498087188E+03 0.  0.
          2    1    1    2  501    0 -0.74091331302E+01 -0.10248060510E+03 -0.33136183966E+03  0.34692627237E+03  0.00000000000E+00 0. -1.
          1    1    1    2  502    0 -0.45883155378E+02  0.11504549197E+03  0.53429506094E+03  0.54846325430E+03  0.00000000000E+00 0. -1.
         22    1    3    3    0    0  0.19073626988E+02  0.14372898127E+02 -0.13115958390E+03  0.13331624018E+03  0.00000000000E+00 0.  1.
         22    1    3    3    0    0  0.34218661520E+02 -0.26937784997E+02  0.14814237276E+02  0.46000246552E+02  0.00000000000E+00 0.  1.
</event>
<event>
 7    1  0.6140348E-006  0.5001907E+02  0.7818608E-02  0.1470837E+00
          2   -1    0    0  502    0  0.00000000000E+00  0.00000000000E+00  0.24484625450E+03  0.24484625450E+03  0.00000000000E+00 0. -1.
          1   -1    0    0  501    0 -0.00000000000E+00 -0.00000000000E+00 -0.19557353974E+04  0.19557353974E+04  0.00000000000E+00 0. -1.
         25    2    1    2    0    0 -0.64674252245E+02  0.24061937078E+02 -0.91239298194E+02  0.16943230160E+03  0.12498383724E+03 0.  0.
          2    1    1    2  501    0  0.27201372985E+02 -0.41918505609E+02 -0.18229600718E+04  0.18236448391E+04  0.00000000000E+00 0. -1.
          1    1    1    2  502    0  0.37472879261E+02  0.17856568531E+02  0.20331022710E+03  0.20750451119E+03  0.00000000000E+00 0. -1.
         22    1    3    3    0    0  0.27256021095E+01 -0.18819894649E+02 -0.87411193389E+02  0.89455766003E+02  0.00000000000E+00 0. -1.
         22    1    3    3    0    0 -0.67399854355E+02  0.42881831727E+02 -0.38281048052E+01  0.79976535595E+02  0.00000000000E+00 0. -1.
</event>
<event>
 7    1  0.6140348E-006  0.2769624E+03  0.7818608E-02  0.1187767E+00
          2   -1    0    0  502    0  0.00000000000E+00  0.00000000000E+00  0.87501676415E+03  0.87501676415E+03  0.00000000000E+00 0. -1.
          1   -1    0    0  501    0 -0.00000000000E+00 -0.00000000000E+00 -0.39372014849E+03  0.39372014849E+03  0.00000000000E+00 0. -1.
         25    2    1    2    0    0 -0.19068569652E+03  0.64876996144E+02 -0.58224142124E+02  0.24410385315E+03  0.12500632348E+03 0.  0.
          2    1    1    2  501    0 -0.72577066557E+02  0.58770515850E+02 -0.20502539164E+03  0.22529273255E+03  0.00000000000E+00 0. -1.
          1    1    1    2  502    0  0.26326276308E+03 -0.12364751199E+03  0.74454614943E+03  0.79934032694E+03  0.00000000000E+00 0. -1.
         22    1    3    3    0    0 -0.87046155903E+02 -0.24174970441E+02 -0.58191879735E+02  0.10746049190E+03  0.00000000000E+00 0. -1.
         22    1    3    3    0    0 -0.10363954062E+03  0.89051966585E+02 -0.32262388909E-01  0.13664336125E+03  0.00000000000E+00 0. -1.
</event>
<event>
 7    1  0.6140348E-006  0.7117310E+02  0.7818608E-02  0.1382996E+00
          2   -1    0    0  502    0  0.00000000000E+00  0.00000000000E+00  0.76887078440E+02  0.76887078440E+02  0.00000000000E+00 0. -1.
          1   -1    0    0  501    0 -0.00000000000E+00 -0.00000000000E+00 -0.12365194217E+04  0.12365194217E+04  0.00000000000E+00 0. -1.
         25    2    1    2    0    0 -0.28076745253E+02  0.47584508370E+02 -0.25195104441E+03  0.28660961983E+03  0.12495261639E+03 0.  0.
          2    1    1    2  501    0  0.52351897517E+02  0.22496370715E+02 -0.94295137210E+03  0.94467142330E+03  0.00000000000E+00 0. -1.
          1    1    1    2  502    0 -0.24275152264E+02 -0.70080879085E+02  0.35270073204E+02  0.82125457043E+02  0.00000000000E+00 0. -1.
         22    1    3    3    0    0 -0.76069724188E+02  0.40597451722E+02 -0.13739561634E+03  0.16221070067E+03  0.00000000000E+00 0. -1.
         22    1    3    3    0    0  0.47992978935E+02  0.69870566480E+01 -0.11455542807E+03  0.12439891916E+03  0.00000000000E+00 0. -1.
</event>
<event>
 7    1  0.6140348E-006  0.1195059E+03  0.7818608E-02  0.1320770E+00
          2   -1    0    0  502    0  0.00000000000E+00  0.00000000000E+00  0.10061949772E+04  0.10061949772E+04  0.00000000000E+00 0. -1.
          1   -1    0    0  501    0 -0.00000000000E+00 -0.00000000000E+00 -0.16633590571E+03  0.16633590571E+03  0.00000000000E+00 0. -1.
         25    2    1    2    0    0  0.60821977398E+02  0.87382493808E+02 -0.19372636281E+02  0.16533051957E+03  0.12499547395E+03 0.  0.
          2    1    1    2  501    0 -0.25642107866E+02 -0.13303388342E+03 -0.10194861951E+02  0.13586562127E+03  0.00000000000E+00 0. -1.
          1    1    1    2  502    0 -0.35179869532E+02  0.45651389614E+02  0.86942656972E+03  0.87133474206E+03  0.00000000000E+00 0. -1.
         22    1    3    3    0    0  0.73559658561E+02  0.10968965434E+03  0.17355496565E+01  0.13208276106E+03  0.00000000000E+00 0.  1.
         22    1    3    3    0    0 -0.12737681163E+02 -0.22307160534E+02 -0.21108185937E+02  0.33247758512E+02  0.00000000000E+00 0.  1.
</event>
<event>
 7    1  0.6140348E-006  0.7044252E+02  0.7818608E-02  0.1396209E+00
          2   -1    0    0  502    0  0.00000000000E+00  0.00000000000E+00  0.72436701153E+02  0.72436701153E+02  0.00000000000E+00 0. -1.
          1   -1    0    0  501    0 -0.00000000000E+00 -0.00000000000E+00 -0.28303673610E+04  0.28303673610E+04  0.00000000000E+00 0. -1.
         25    2    1    2    0    0  0.28928536609E+02 -0.24077223528E+02 -0.50389323045E+03  0.52052854028E+03  0.12500000253E+03 0.  0.
          2    1    1    2  501    0  0.43074033441E+02  0.28717206836E+02 -0.22974743638E+04  0.22980575499E+04  0.00000000000E+00 0. -1.
          1    1    1    2  502    0 -0.72002570050E+02 -0.46399833079E+01  0.43436934379E+02  0.84217971996E+02  0.00000000000E+00 0. -1.
         22    1    3    3    0    0  0.34814889010E+02 -0.16576554783E+02 -0.36683697556E+02  0.53221728003E+02  0.00000000000E+00 0. -1.
         22    1    3    3    0    0 -0.58863524005E+01 -0.75006687449E+01 -0.46720953289E+03  0.46730681228E+03  0.00000000000E+00 0. -1.
</event>
<event>
 7    1  0.6140348E-006  0.6531567E+02  0.7818608E-02  0.1444433E+00
          2   -1    0    0  502    0  0.00000000000E+00  0.00000000000E+00  0.67533621187E+03  0.67533621187E+03  0.00000000000E+00 0. -1.
          1   -1    0    0  501    0 -0.00000000000E+00 -0.00000000000E+00 -0.74505274768E+03  0.74505274768E+03  0.00000000000E+00 0. -1.
         25    2    1    2    0    0  0.22770156543E+02 -0.26503472320E+02 -0.21440833171E+03  0.25062852720E+03  0.12499124715E+03 0.  0.
          2    1    1    2  501    0 -0.60523796436E+02  0.34222679165E+02 -0.50960677831E+03  0.51432809588E+03  0.00000000000E+00 0. -1.
          1    1    1    2  502    0  0.37753639893E+02 -0.77192068456E+01  0.65429857421E+03  0.65543233647E+03  0.00000000000E+00 0. -1.
         22    1    3    3    0    0  0.18889896471E+02 -0.44737603562E+02 -0.22431908210E+03  0.22951542857E+03  0.00000000000E+00 0. -1.
         22    1    3    3    0    0  0.38802600722E+01  0.18234131242E+02  0.99107503844E+01  0.21113098626E+02  0.00000000000E+00 0. -1.
</event>
<event>
 7    1  0.6140348E-006  0.1254946E+03  0.7818608E-02  0.1266240E+00
          2   -1    0    0  502    0  0.00000000000E+00  0.00000000000E+00  0.12366991567E+04  0.12366991567E+04  0.00000000000E+00 0. -1.
          1   -1    0    0  501    0 -0.00000000000E+00 -0.00000000000E+00 -0.31866636514E+03  0.31866636514E+03  0.00000000000E+00 0. -1.
         25    2    1    2    0    0 -0.18243946801E+03  0.85630274820E+02  0.42789124336E+03  0.48921580700E+03  0.12499794488E+03 0.  0.
          2    1    1    2  501    0  0.91249277697E+02 -0.83264939877E+02 -0.27191172821E+03  0.29865610463E+03  0.00000000000E+00 0. -1.
          1    1    1    2  502    0  0.91190190314E+02 -0.23653349428E+01  0.76205327646E+03  0.76749361025E+03  0.00000000000E+00 0. -1.
         22    1    3    3    0    0 -0.10327574689E+03  0.86171161583E+02  0.15573005362E+03  0.20577463057E+03  0.00000000000E+00 0. -1.
         22    1    3    3    0    0 -0.79163721122E+02 -0.54088676301E+00  0.27216118974E+03  0.28344117643E+03  0.00000000000E+00 0. -1.
</event>
<event>
 7    1  0.6140348E-006  0.1933293E+03  0.7818608E-02  0.1349179E+00
          2   -1    0    0  502    0  0.00000000000E+00  0.00000000000E+00  0.27751606208E+04  0.27751606208E+04  0.00000000000E+00 0. -1.
          1   -1    0    0  501    0 -0.00000000000E+00 -0.00000000000E+00 -0.13093012675E+04  0.13093012675E+04  0.00000000000E+00 0. -1.
         25    2    1    2    0    0  0.18104710588E+02 -0.19707196606E+03 -0.41554369132E+03  0.47693493903E+03  0.12500094526E+03 0.  0.
          2    1    1    2  501    0 -0.27512426596E+02  0.39919217378E+01 -0.85943293351E+03  0.85988245491E+03  0.00000000000E+00 0. -1.
          1    1    1    2  502    0  0.94077160082E+01  0.19308004433E+03  0.27408359781E+04  0.27476444944E+04  0.00000000000E+00 0. -1.
         22    1    3    3    0    0  0.18968467957E+02 -0.17567426976E+03 -0.22938824488E+03  0.28955175482E+03  0.00000000000E+00 0. -1.
         22    1    3    3    0    0 -0.86375736895E+00 -0.21397696308E+02 -0.18615544644E+03  0.18738318421E+03  0.00000000000E+00 0. -1.
</event>
<event>
 7    1  0.6140348E-006  0.3004598E+02  0.7818608E-02  0.1638307E+00
          2   -1    0    0  502    0  0.00000000000E+00  0.00000000000E+00  0.12909184255E+03  0.12909184255E+03  0.00000000000E+00 0. -1.
          1   -1    0    0  501    0 -0.00000000000E+00 -0.00000000000E+00 -0.93475285362E+03  0.93475285362E+03  0.00000000000E+00 0. -1.
         25    2    1    2    0    0 -0.49286582594E+02 -0.19570221017E+01 -0.23462846600E+02  0.13641311640E+03  0.12500014398E+03 0.  0.
          2    1    1    2  501    0  0.27663889270E+02  0.11529573799E+02 -0.85261948750E+03  0.85314606739E+03  0.00000000000E+00 0. -1.
          1    1    1    2  502    0  0.21622693324E+02 -0.95725516971E+01  0.70421323032E+02  0.74285512384E+02  0.00000000000E+00 0. -1.
         22    1    3    3    0    0  0.15111529429E+02 -0.49692680464E+02  0.29210117118E+01  0.52021660131E+02  0.00000000000E+00 0.  1.
         22    1    3    3    0    0 -0.64398112022E+02  0.47735658362E+02 -0.26383858311E+02  0.84391456266E+02  0.00000000000E+00 0.  1.
</event>
<event>
 7    1  0.6140348E-006  0.1959138E+03  0.7818608E-02  0.1208549E+00
          2   -1    0    0  502    0  0.00000000000E+00  0.00000000000E+00  0.78842681055E+03  0.78842681055E+03  0.00000000000E+00 0. -1.
          1   -1    0    0  501    0 -0.00000000000E+00 -0.00000000000E+00 -0.30326216241E+04  0.30326216241E+04  0.00000000000E+00 0. -1.
         25    2    1    2    0    0 -0.96597725018E+02  0.13498878315E+03  0.32889323095E+03  0.38903596092E+03  0.12500051790E+03 0.  0.
          2    1    1    2  501    0  0.44207592954E+02  0.95541850385E+02 -0.29690121890E+04  0.29708779737E+04  0.00000000000E+00 0. -1.
          1    1    1    2  502    0  0.52390132064E+02 -0.23053063354E+03  0.39592414446E+03  0.46113450002E+03  0.00000000000E+00 0. -1.
         22    1    3    3    0    0 -0.40353201466E+02  0.95212818066E+02  0.79881355102E+02  0.13067093206E+03  0.00000000000E+00 0. -1.
         22    1    3    3    0    0 -0.56244523552E+02  0.39775965086E+02  0.24901187584E+03  0.25836502886E+03  0.00000000000E+00 0. -1.
</event>
<event>
 7    1  0.6140348E-006  0.2705646E+03  0.7818608E-02  0.1247748E+00
          2   -1    0    0  502    0  0.00000000000E+00  0.00000000000E+00  0.17416165504E+04  0.17416165504E+04  0.00000000000E+00 0. -1.
          1   -1    0    0  501    0 -0.00000000000E+00 -0.00000000000E+00 -0.29254610607E+03  0.29254610607E+03  0.00000000000E+00 0. -1.
         25    2    1    2    0    0 -0.55518547707E+02  0.30104974252E+03  0.11229082433E+03  0.34920919721E+03  0.12499831029E+03 0.  0.
          2    1    1    2  501    0  0.37285800136E+02 -0.34484975288E+02 -0.15826847678E+03  0.16621779434E+03  0.00000000000E+00 0. -1.
          1    1    1    2  502    0  0.18232747572E+02 -0.26656476723E+03  0.14950480968E+04  0.15187356649E+04  0.00000000000E+00 0. -1.
         22    1    3    3    0    0  0.23456133290E+02  0.18494419311E+03  0.90066546263E+02  0.20704233265E+03  0.00000000000E+00 0. -1.
         22    1    3    3    0    0 -0.78974680998E+02  0.11610554941E+03  0.22224278063E+02  0.14216686456E+03  0.00000000000E+00 0. -1.
</event>
<event>
 7    1  0.6140348E-006  0.5812367E+02  0.7818608E-02  0.1553148E+00
          2   -1    0    0  502    0  0.00000000000E+00  0.00000000000E+00  0.16267549420E+04  0.16267549420E+04  0.00000000000E+00 0. -1.
          1   -1    0    0  501    0 -0.00000000000E+00 -0.00000000000E+00 -0.38341840053E+02  0.38341840053E+02  0.00000000000E+00 0. -1.
         25    2    1    2    0    0 -0.55094823045E+02  0.12601682015E+01  0.47070811608E+03  0.49012995194E+03  0.12499684673E+03 0.  0.
          2    1    1    2  501    0 -0.27610954171E+00 -0.20467917021E+02 -0.24121993079E+02  0.31636725712E+02  0.00000000000E+00 0. -1.
          1    1    1    2  502    0  0.55370932587E+02  0.19207748819E+02  0.11418269790E+04  0.11433301044E+04  0.00000000000E+00 0. -1.
         22    1    3    3    0    0 -0.20828675827E+01  0.58371517098E+02  0.18642951163E+03  0.19536513290E+03  0.00000000000E+00 0. -1.
         22    1    3    3    0    0 -0.53011955463E+02 -0.57111348897E+02  0.28427860445E+03  0.29476481904E+03  0.00000000000E+00 0. -1.
</event>
<event>
 7    1  0.6140348E-006  0.3863959E+02  0.7818608E-02  0.1574817E+00
          2   -1    0    0  502    0  0.00000000000E+00  0.00000000000E+00  0.92414783121E+03  0.92414783121E+03  0.00000000000E+00 0. -1.
          1   -1    0    0  501    0 -0.00000000000E+00 -0.00000000000E+00 -0.18266286074E+03  0.18266286074E+03  0.00000000000E+00 0. -1.
         25    2    1    2    0    0  0.87237639062E+01 -0.32682929789E+02 -0.79495638813E+02  0.15195238297E+03  0.12500276855E+03 0.  0.
          2    1    1    2  501    0 -0.33715062661E+02  0.22841286278E+02 -0.60521487660E+02  0.72947106027E+02  0.00000000000E+00 0. -1.
          1    1    1    2  502    0  0.24991298755E+02  0.98416435109E+01  0.88150209695E+03  0.88191120295E+03  0.00000000000E+00 0. -1.
         22    1    3    3    0    0  0.44140551458E+02  0.32777904017E+02 -0.30959653537E+02  0.63097380468E+02  0.00000000000E+00 0.  1.
         22    1    3    3    0    0 -0.35416787552E+02 -0.65460833806E+02 -0.48535985277E+02  0.88855002504E+02  0.00000000000E+00 0.  1.
</event>
<event>
 7    1  0.6140348E-006  0.8677992E+02  0.7818608E-02  0.1442349E+00
          2   -1    0    0  502    0  0.00000000000E+00  0.00000000000E+00  0.32795622446E+04  0.32795622446E+04  0.00000000000E+00 0. -1.
          1   -1    0    0  501    0 -0.00000000000E+00 -0.00000000000E+00 -0.90867650068E+02  0.90867650068E+02  0.00000000000E+00 0. -1.
         25    2    1    2    0    0 -0.98553599635E+01  0.65428797117E+02  0.49274770993E+03  0.51264444458E+03  0.12500386119E+03 0.  0.
          2    1    1    2  501    0 -0.24817987272E+02  0.15866517729E+02 -0.77511144518E+02  0.82919577915E+02  0.00000000000E+00 0. -1.
          1    1    1    2  502    0  0.34673347236E+02 -0.81295314846E+02  0.27734580292E+04  0.27748658722E+04  0.00000000000E+00 0. -1.
         22    1    3    3    0    0  0.38132353719E+02  0.75887964292E+02  0.38461525719E+03  0.39388063622E+03  0.00000000000E+00 0.  1.
         22    1    3    3    0    0 -0.47987713682E+02 -0.10459167174E+02  0.10813245274E+03  0.11876380836E+03  0.00000000000E+00 0.  1.
</event>
<event>
 7    1  0.6140348E-006  0.9868856E+02  0.7818608E-02  0.1406663E+00
          2   -1    0    0  502    0  0.00000000000E+00  0.00000000000E+00  0.40778930066E+03  0.40778930066E+03  0.00000000000E+00 0. -1.
          1   -1    0    0  501    0 -0.00000000000E+00 -0.00000000000E+00 -0.12888436527E+03  0.12888436527E+03  0.00000000000E+00 0. -1.
         25    2    1    2    0    0  0.88019093852E+02  0.77118803414E+02  0.70672415797E+02  0.18524101772E+03  0.12499989428E+03 0.  0.
          2    1    1    2  501    0 -0.33912231953E+02  0.27384368367E+01 -0.58566324915E+02  0.67731476629E+02  0.00000000000E+00 0. -1.
          1    1    1    2  502    0 -0.54106861899E+02 -0.79857240251E+02  0.26679884451E+03  0.28370117158E+03  0.00000000000E+00 0. -1.
         22    1    3    3    0    0  0.63515028592E+02 -0.13919672117E+02  0.63184873915E+02  0.90665563587E+02  0.00000000000E+00 0. -1.
         22    1    3    3    0    0  0.24504065261E+02  0.91038475532E+02  0.74875418820E+01  0.94575454135E+02  0.00000000000E+00 0. -1.
</event>
<event>
 7    1  0.7771702E-006  0.6052349E+02  0.7818608E-02  0.1442580E+00
          2   -1    0    0  502    0  0.00000000000E+00  0.00000000000E+00  0.77820829845E+03  0.77820829845E+03  0.00000000000E+00 0. -1.
          1   -1    0    0  501    0 -0.00000000000E+00 -0.00000000000E+00 -0.25336677403E+04  0.25336677403E+04  0.00000000000E+00 0. -1.
         25    2    1    2    0    0 -0.23850243475E+01 -0.20747733059E+02 -0.27912977816E+03  0.30655173249E+03  0.12499749945E+03 0.  0.
          2    1    1    2  501    0 -0.10574377744E+02  0.60869420091E+02 -0.22398193854E+04  0.22406712796E+04  0.00000000000E+00 0. -1.
          1    1    1    2  502    0  0.12959402092E+02 -0.40121687033E+02  0.76348972179E+03  0.76465302664E+03  0.00000000000E+00 0. -1.
         22    1    3    3    0    0 -0.60737311522E+02 -0.27537931650E+01 -0.18135401665E+03  0.19127436771E+03  0.00000000000E+00 0. -1.
         22    1    3    3    0    0  0.58352287175E+02 -0.17993939894E+02 -0.97775761513E+02  0.11527736478E+03  0.00000000000E+00 0. -1.
</event>
<event>
 7    1  0.6140348E-006  0.1641088E+03  0.7818608E-02  0.1209848E+00
          2   -1    0    0  502    0  0.00000000000E+00  0.00000000000E+00  0.17749906974E+04  0.17749906974E+04  0.00000000000E+00 0. -1.
          1   -1    0    0  501    0 -0.00000000000E+00 -0.00000000000E+00 -0.49490388754E+03  0.49490388754E+03  0.00000000000E+00 0. -1.
         25    2    1    2    0    0  0.26877064967E+03 -0.19746632171E+02 -0.31758315710E+02  0.29876451756E+03  0.12499621887E+03 0.  0.
          2    1    1    2  501    0 -0.11091056391E+03  0.55323659662E+02 -0.31383141414E+03  0.33741964526E+03  0.00000000000E+00 0. -1.
          1    1    1    2  502    0 -0.15786008576E+03 -0.35577027492E+02  0.16256765397E+04  0.16337104221E+04  0.00000000000E+00 0. -1.
         22    1    3    3    0    0  0.21779835287E+03 -0.35489764058E+02 -0.71803380196E+02  0.23205898232E+03  0.00000000000E+00 0.  1.
         22    1    3    3    0    0  0.50972296796E+02  0.15743131888E+02  0.40045064486E+02  0.66705535243E+02  0.00000000000E+00 0.  1.
</event>
<event>
 7    1  0.6140348E-006  0.1043230E+03  0.7818608E-02  0.1353556E+00
          2   -1    0    0  502    0  0.00000000000E+00  0.00000000000E+00  0.12185150821E+03  0.12185150821E+03  0.00000000000E+00 0. -1.
          1   -1    0    0  501    0 -0.00000000000E+00 -0.00000000000E+00 -0.35321972113E+03  0.35321972113E+03  0.00000000000E+00 0. -1.
         25    2    1    2    0    0 -0.38433140509E+02 -0.66856157002E+02 -0.11561280697E+03  0.18691761118E+03  0.12500008086E+03 0.  0.
          2    1    1    2  501    0  0.29881599500E+02  0.11574884678E+03 -0.17432805942E+03  0.21137875442E+03  0.00000000000E+00 0. -1.
          1    1    1    2  502    0  0.85515410088E+01 -0.48892689774E+02  0.58572653473E+02  0.76774863737E+02  0.00000000000E+00 0. -1.
         22    1    3    3    0    0 -0.27873662894E+02  0.27469470431E+02 -0.73100963528E+02  0.82917210262E+02  0.00000000000E+00 0. -1.
         22    1    3    3    0    0 -0.10559477615E+02 -0.94325627433E+02 -0.42511843447E+02  0.10400040092E+03  0.00000000000E+00 0. -1.
</event>
<event>
 7    1  0.6140348E-006  0.9559224E+02  0.7818608E-02  0.1294066E+00
          2   -1    0    0  502    0  0.00000000000E+00  0.00000000000E+00  0.30226480683E+04  0.30226480683E+04  0.00000000000E+00 0. -1.
          1   -1    0    0  501    0 -0.00000000000E+00 -0.00000000000E+00 -0.11183455234E+03  0.11183455234E+03  0.00000000000E+00 0. -1.
         25    2    1    2    0    0 -0.18445819873E+03 -0.11955989845E+02  0.33216161032E+03  0.40015534570E+03  0.12500077018E+03 0.  0.
          2    1    1    2  501    0  0.91035994843E+02  0.12579563281E+02 -0.49589053678E+02  0.10442639520E+03  0.00000000000E+00 0. -1.
          1    1    1    2  502    0  0.93422203888E+02 -0.62357343553E+00  0.26282409593E+04  0.26299008797E+04  0.00000000000E+00 0. -1.
         22    1    3    3    0    0 -0.16826671306E+02  0.32312540492E+02  0.12403180102E+03  0.12927151582E+03  0.00000000000E+00 0. -1.
         22    1    3    3    0    0 -0.16763152742E+03 -0.44268530338E+02  0.20812980931E+03  0.27088382987E+03  0.00000000000E+00 0. -1.
</event>
<event>
 7    1  0.6140348E-006  0.1014212E+03  0.7818608E-02  0.1298934E+00
          2   -1    0    0  502    0  0.00000000000E+00  0.00000000000E+00  0.11631767501E+04  0.11631767501E+04  0.00000000000E+00 0. -1.
          1   -1    0    0  501    0 -0.00000000000E+00 -0.00000000000E+00 -0.52178319591E+03  0.52178319591E+03  0.00000000000E+00 0. -1.
         25    2    1    2    0    0  0.93715119414E+02  0.12002389573E+03 -0.18242173872E+02  0.19787291374E+03  0.12503061197E+03 0.  0.
          2    1    1    2  501    0 -0.80302417125E+02 -0.20172430837E+02 -0.40718593791E+03  0.41551870379E+03  0.00000000000E+00 0. -1.
          1    1    1    2  502    0 -0.13412702290E+02 -0.99851464895E+02  0.10668216660E+04  0.10715683285E+04  0.00000000000E+00 0. -1.
         22    1    3    3    0    0  0.59080312688E+02  0.12797986341E+03 -0.50645563934E+02  0.14978084634E+03  0.00000000000E+00 0.  1.
         22    1    3    3    0    0  0.34634806726E+02 -0.79559676769E+01  0.32403390061E+02  0.48092067393E+02  0.00000000000E+00 0.  1.
</event>
<event>
 7    1  0.6140348E-006  0.2321188E+03  0.7818608E-02  0.1238100E+00
          2   -1    0    0  502    0  0.00000000000E+00  0.00000000000E+00  0.12445157948E+04  0.12445157948E+04  0.00000000000E+00 0. -1.
          1   -1    0    0  501    0 -0.00000000000E+00 -0.00000000000E+00 -0.19906008823E+03  0.19906008823E+03  0.00000000000E+00 0. -1.
         25    2    1    2    0    0 -0.18689024488E+03  0.10751083360E+03 -0.24112446234E+02  0.25038225900E+03  0.12499329015E+03 0.  0.
          2    1    1    2  501    0  0.24943620399E+03 -0.12614547622E+03  0.26238292394E+03  0.38337435987E+03  0.00000000000E+00 0. -1.
          1    1    1    2  502    0 -0.62545959107E+02  0.18634642615E+02  0.80718522888E+03  0.80981926418E+03  0.00000000000E+00 0. -1.
         22    1    3    3    0    0 -0.86298715996E+02 -0.17299415195E+02 -0.18758690055E+02  0.89992369684E+02  0.00000000000E+00 0.  1.
         22    1    3    3    0    0 -0.10059152889E+03  0.12481024880E+03 -0.53537561791E+01  0.16038988931E+03  0.00000000000E+00 0.  1.
</event>
<event>
 7    1  0.6140348E-006  0.1440024E+03  0.7818608E-02  0.1291287E+00
          2   -1    0    0  502    0  0.00000000000E+00  0.00000000000E+00  0.30551733191E+04  0.30551733191E+04  0.00000000000E+00 0. -1.
          1   -1    0    0  501    0 -0.00000000000E+00 -0.00000000000E+00 -0.23203884931E+03  0.23203884931E+03  0.00000000000E+00 0. -1.
         25    2    1    2    0    0 -0.17748110594E+03  0.23823325782E+02  0.78907347784E+03  0.81873616380E+03  0.12499943464E+03 0.  0.
          2    1    1    2  501    0  0.39742882121E+02 -0.48375619529E+02 -0.21047219832E+03  0.21958652853E+03  0.00000000000E+00 0. -1.
          1    1    1    2  502    0  0.13773822381E+03  0.24552293747E+02  0.22445331903E+04  0.22488894761E+04  0.00000000000E+00 0. -1.
         22    1    3    3    0    0  0.67030053701E+01 -0.94739396176E+01  0.50078983807E+01  0.12639812461E+02  0.00000000000E+00 0.  1.
         22    1    3    3    0    0 -0.18418411131E+03  0.33297265399E+02  0.78406557946E+03  0.80609635134E+03  0.00000000000E+00 0.  1.
</event>
<event>
 7    1  0.6140348E-006  0.4931214E+02  0.7818608E-02  0.1452102E+00
          2   -1    0    0  502    0  0.00000000000E+00  0.00000000000E+00  0.21795483042E+04  0.21795483042E+04  0.00000000000E+00 0. -1.
          1   -1    0    0  501    0 -0.00000000000E+00 -0.00000000000E+00 -0.23329233153E+03  0.23329233153E+03  0.00000000000E+00 0. -1.
         25    2    1    2    0    0  0.22108243443E+02  0.17796611407E+02  0.12784400307E+03  0.18103362762E+03  0.12499436548E+03 0.  0.
          2    1    1    2  501    0 -0.38350302464E+02  0.29246797537E+02 -0.20357371143E+03  0.20920893110E+03  0.00000000000E+00 0. -1.
          1    1    1    2  502    0  0.16242059021E+02 -0.47043408944E+02  0.20219856810E+04  0.20225980770E+04  0.00000000000E+00 0. -1.
         22    1    3    3    0    0  0.95832642502E+01  0.71670241218E+02  0.80720351750E+02  0.10837083379E+03  0.00000000000E+00 0.  1.
         22    1    3    3    0    0  0.12524979193E+02 -0.53873629811E+02  0.47123651324E+02  0.72662793828E+02  0.00000000000E+00 0.  1.
</event>
<event>
 7    1  0.6140348E-006  0.2168657E+03  0.7818608E-02  0.1226254E+00
          2   -1    0    0  502    0  0.00000000000E+00  0.00000000000E+00  0.13163331615E+03  0.13163331615E+03  0.00000000000E+00 0. -1.
          1   -1    0    0  501    0 -0.00000000000E+00 -0.00000000000E+00 -0.12741582837E+04  0.12741582837E+04  0.00000000000E+00 0. -1.
         25    2    1    2    0    0 -0.12459010222E+03  0.16967775872E+03 -0.60996143516E+03  0.65726104691E+03  0.12500358405E+03 0.  0.
          2    1    1    2  501    0  0.66368374359E+02  0.42678962441E+02 -0.52216332042E+03  0.52809164749E+03  0.00000000000E+00 0. -1.
          1    1    1    2  502    0  0.58221727864E+02 -0.21235672116E+03 -0.10400211933E+02  0.22043890543E+03  0.00000000000E+00 0. -1.
         22    1    3    3    0    0 -0.11642011816E+03  0.15112764725E+03 -0.60761174355E+03  0.63685574550E+03  0.00000000000E+00 0. -1.
         22    1    3    3    0    0 -0.81699840599E+01  0.18550111468E+02 -0.23496916132E+01  0.20405301411E+02  0.00000000000E+00 0. -1.
</event>
<event>
 7    1  0.6140348E-006  0.2085622E+03  0.7818608E-02  0.1312587E+00
          2   -1    0    0  502    0  0.00000000000E+00  0.00000000000E+00  0.10480337601E+04  0.10480337601E+04  0.00000000000E+00 0. -1.
          1   -1    0    0  501    0 -0.00000000000E+00 -0.00000000000E+00 -0.14221399212E+04  0.14221399212E+04  0.00000000000E+00 0. -1.
         25    2    1    2    0    0  0.94242271750E+01  0.22953697110E+03 -0.46736743193E+03  0.53556865394E+03  0.12500171795E+03 0.  0.
          2    1    1    2  501    0 -0.27760305080E+02 -0.22195185238E+02 -0.90963830405E+03  0.91033241455E+03  0.00000000000E+00 0. -1.
          1    1    1    2  502    0  0.18336077905E+02 -0.20734178586E+03  0.10028995749E+04  0.10242726128E+04  0.00000000000E+00 0. -1.
         22    1    3    3    0    0  0.28633534777E+02  0.16533935532E+03 -0.42335609399E+03  0.45539802816E+03  0.00000000000E+00 0.  1.
         22    1    3    3    0    0 -0.19209307602E+02  0.64197615782E+02 -0.44011337938E+02  0.80170625778E+02  0.00000000000E+00 0.  1.
</event>
<event>
 7    1  0.6140348E-006  0.7469642E+02  0.7818608E-02  0.1432203E+00
          2   -1    0    0  502    0  0.00000000000E+00  0.00000000000E+00  0.16096925963E+04  0.16096925963E+04  0.00000000000E+00 0. -1.
          1   -1    0    0  501    0 -0.00000000000E+00 -0.00000000000E+00 -0.38717029397E+03  0.38717029397E+03  0.00000000000E+00 0. -1.
         25    2    1    2    0    0 -0.44605795038E+02  0.46325904712E+02 -0.65711555405E+02  0.15517087697E+03  0.12499690455E+03 0.  0.
          2    1    1    2  501    0  0.73256897791E+02 -0.23028324273E+02 -0.27117897768E+03  0.28184200313E+03  0.00000000000E+00 0. -1.
          1    1    1    2  502    0 -0.28651102753E+02 -0.23297580439E+02  0.15594128354E+04  0.15598500102E+04  0.00000000000E+00 0. -1.
         22    1    3    3    0    0 -0.12597566500E+02 -0.42073125429E+02 -0.35339080923E+02  0.56371067096E+02  0.00000000000E+00 0.  1.
         22    1    3    3    0    0 -0.32008228538E+02  0.88399030142E+02 -0.30372474482E+02  0.98799809870E+02  0.00000000000E+00 0.  1.
</event>
<event>
 7    1  0.6140348E-006  0.9924144E+02  0.7818608E-02  0.1455722E+00
          2   -1    0    0  502    0  0.00000000000E+00  0.00000000000E+00  0.83987600929E+02  0.83987600929E+02  0.00000000000E+00 0. -1.
          1   -1    0    0  501    0 -0.00000000000E+00 -0.00000000000E+00 -0.13833816791E+04  0.13833816791E+04  0.00000000000E+00 0. -1.
         25    2    1    2    0    0  0.15137478102E+02 -0.11805594597E+03 -0.67799545449E+03  0.69962099746E+03  0.12500141661E+03 0.  0.
          2    1    1    2  501    0 -0.12390174829E+02  0.19777173788E+02 -0.66124987808E+03  0.66166158593E+03  0.00000000000E+00 0. -1.
          1    1    1    2  502    0 -0.27473032731E+01  0.98278772183E+02  0.39851254364E+02  0.10608669668E+03  0.00000000000E+00 0. -1.
         22    1    3    3    0    0 -0.30365569442E+02 -0.82231687464E+02 -0.57341068975E+03  0.58007235527E+03  0.00000000000E+00 0.  1.
         22    1    3    3    0    0  0.45503047543E+02 -0.35824258508E+02 -0.10458476474E+03  0.11954864219E+03  0.00000000000E+00 0.  1.
</event>
<event>
 7    1  0.6140348E-006  0.2398181E+03  0.7818608E-02  0.1151646E+00
          2   -1    0    0  502    0  0.00000000000E+00  0.00000000000E+00  0.10653144546E+04  0.10653144546E+04  0.00000000000E+00 0. -1.
          1   -1    0    0  501    0 -0.00000000000E+00 -0.00000000000E+00 -0.20586457756E+03  0.20586457756E+03  0.00000000000E+00 0. -1.
         25    2    1    2    0    0 -0.17254214647E+03  0.28663032308E+02  0.27150949866E+03  0.34631745528E+03  0.12500404089E+03 0.  0.
          2    1    1    2  501    0 -0.83105733098E+02  0.14030689433E+03 -0.86117872805E+02  0.18441495462E+03  0.00000000000E+00 0. -1.
          1    1    1    2  502    0  0.25564787957E+03 -0.16896992664E+03  0.67405825119E+03  0.74044662227E+03  0.00000000000E+00 0. -1.
         22    1    3    3    0    0 -0.19144115573E+03  0.17855745739E+02  0.23308718486E+03  0.30215588611E+03  0.00000000000E+00 0. -1.
         22    1    3    3    0    0  0.18899009262E+02  0.10807286569E+02  0.38422313799E+02  0.44161569172E+02  0.00000000000E+00 0. -1.
</event>
<event>
 7    1  0.6140348E-006  0.6464553E+02  0.7818608E-02  0.1402111E+00
          2   -1    0    0  502    0  0.00000000000E+00  0.00000000000E+00  0.14667122699E+04  0.14667122699E+04  0.00000000000E+00 0. -1.
          1   -1    0    0  501    0 -0.00000000000E+00 -0.00000000000E+00 -0.36655811251E+02  0.36655811251E+02  0.00000000000E+00 0. -1.
         25    2    1    2    0    0 -0.38284107609E+02  0.10866101645E+03  0.62567706024E+03  0.64835860901E+03  0.12499685106E+03 0.  0.
          2    1    1    2  501    0  0.17261998677E+02 -0.59102408609E+02  0.14445694930E+02  0.63243572035E+02  0.00000000000E+00 0. -1.
          1    1    1    2  502    0  0.21022108931E+02 -0.49558607845E+02  0.78993370346E+03  0.79176590009E+03  0.00000000000E+00 0. -1.
         22    1    3    3    0    0 -0.75417749275E+02  0.77854851989E+02  0.53261327736E+03  0.54353115652E+03  0.00000000000E+00 0. -1.
         22    1    3    3    0    0  0.37133641666E+02  0.30806164465E+02  0.93063782873E+02  0.10482745249E+03  0.00000000000E+00 0. -1.
</event>
<event>
 7    1  0.6140348E-006  0.6373066E+02  0.7818608E-02  0.1542430E+00
          2   -1    0    0  502    0  0.00000000000E+00  0.00000000000E+00  0.68021128295E+03  0.68021128295E+03  0.00000000000E+00 0. -1.
          1   -1    0    0  501    0 -0.00000000000E+00 -0.00000000000E+00 -0.65259184550E+03  0.65259184550E+03  0.00000000000E+00 0. -1.
         25    2    1    2    0    0  0.61814667135E+01 -0.77617636573E+02 -0.22811986209E+03  0.27152575016E+03  0.12499941392E+03 0.  0.
          2    1    1    2  501    0 -0.16006481712E+02  0.60193466377E+02 -0.40020766758E+03  0.40502547826E+03  0.00000000000E+00 0. -1.
          1    1    1    2  502    0  0.98250149984E+01  0.17424170196E+02  0.65594696712E+03  0.65625190003E+03  0.00000000000E+00 0. -1.
         22    1    3    3    0    0  0.32118460436E+02  0.10899668106E+00 -0.16498995565E+03  0.16808715848E+03  0.00000000000E+00 0. -1.
         22    1    3    3    0    0 -0.25936993723E+02 -0.77726633254E+02 -0.63129906440E+02  0.10343859167E+03  0.00000000000E+00 0. -1.
</event>
<event>
 7    1  0.7830843E-006  0.4850751E+02  0.7818608E-02  0.1460312E+00
          2   -1    0    0  502    0  0.00000000000E+00  0.00000000000E+00  0.96182372061E+03  0.96182372061E+03  0.00000000000E+00 0. -1.
          1   -1    0    0  501    0 -0.00000000000E+00 -0.00000000000E+00 -0.11365921556E+04  0.11365921556E+04  0.00000000000E+00 0. -1.
         25    2    1    2    0    0  0.69641499456E+02 -0.54124796992E+02 -0.25144442926E+03  0.29432644573E+03  0.12499729417E+03 0.  0.
          2    1    1    2  501    0 -0.44362561839E+02  0.12816076685E+02 -0.86246513887E+03  0.86370041362E+03  0.00000000000E+00 0. -1.
          1    1    1    2  502    0 -0.25278937617E+02  0.41308720307E+02  0.93914113315E+03  0.94038901686E+03  0.00000000000E+00 0. -1.
         22    1    3    3    0    0  0.67113530365E+02  0.26026226919E+02 -0.13410283519E+03  0.15220105404E+03  0.00000000000E+00 0. -1.
         22    1    3    3    0    0  0.25279690904E+01 -0.80151023911E+02 -0.11734159407E+03  0.14212539168E+03  0.00000000000E+00 0. -1.
</event>
<event>
 7    1  0.6140348E-006  0.2206345E+03  0.7818608E-02  0.1168837E+00
          2   -1    0    0  502    0  0.00000000000E+00  0.00000000000E+00  0.71479704692E+03  0.71479704692E+03  0.00000000000E+00 0. -1.
          1   -1    0    0  501    0 -0.00000000000E+00 -0.00000000000E+00 -0.25095001640E+04  0.25095001640E+04  0.00000000000E+00 0. -1.
         25    2    1    2    0    0  0.25628403857E+02 -0.85517724701E+02 -0.20673624229E+03  0.25755477688E+03  0.12499797157E+03 0.  0.
          2    1    1    2  501    0 -0.19879610717E+01 -0.14510401042E+03 -0.22554664732E+04  0.22601301152E+04  0.00000000000E+00 0. -1.
          1    1    1    2  502    0 -0.23640442785E+02  0.23062173512E+03  0.66749959843E+03  0.70661231885E+03  0.00000000000E+00 0. -1.
         22    1    3    3    0    0  0.64718498672E+01 -0.93992860385E+02 -0.65435710270E+02  0.11470995956E+03  0.00000000000E+00 0.  1.
         22    1    3    3    0    0  0.19156553990E+02  0.84751356843E+01 -0.14130053202E+03  0.14284481732E+03  0.00000000000E+00 0.  1.
</event>
<event>
 7    1  0.6140348E-006  0.9519289E+02  0.7818608E-02  0.1475029E+00
          2   -1    0    0  502    0  0.00000000000E+00  0.00000000000E+00  0.40770145016E+03  0.40770145016E+03  0.00000000000E+00 0. -1.
          1   -1    0    0  501    0 -0.00000000000E+00 -0.00000000000E+00 -0.16077113431E+04  0.16077113431E+04  0.00000000000E+00 0. -1.
         25    2    1    2    0    0 -0.14056404631E+02  0.10619732235E+03 -0.48560891557E+02  0.17163353491E+03  0.12499782530E+03 0.  0.
          2    1    1    2  501    0 -0.14000801400E+02 -0.15877545827E+02 -0.14910776254E+04  0.14912278847E+04  0.00000000000E+00 0. -1.
          1    1    1    2  502    0  0.28057206031E+02 -0.90319776525E+02  0.33962862403E+03  0.35255137371E+03  0.00000000000E+00 0. -1.
         22    1    3    3    0    0  0.32815877798E+02  0.51930459376E+02 -0.73429227083E+02  0.95736648347E+02  0.00000000000E+00 0.  1.
         22    1    3    3    0    0 -0.46872282429E+02  0.54266862977E+02  0.24868335526E+02  0.75896886559E+02  0.00000000000E+00 0.  1.
</event>
<event>
 7    1  0.6140348E-006  0.1156810E+03  0.7818608E-02  0.1252149E+00
          2   -1    0    0  502    0  0.00000000000E+00  0.00000000000E+00  0.37345051769E+03  0.37345051769E+03  0.00000000000E+00 0. -1.
          1   -1    0    0  501    0 -0.00000000000E+00 -0.00000000000E+00 -0.35751678145E+03  0.35751678145E+03  0.00000000000E+00 0. -1.
         25    2    1    2    0    0  0.77464249290E+02  0.10777666657E+03  0.62899866821E+02  0.19286599636E+03  0.12499751810E+03 0.  0.
          2    1    1    2  501    0  0.38187291502E+02 -0.11038679769E+03 -0.26593334516E+03  0.29045491631E+03  0.00000000000E+00 0. -1.
          1    1    1    2  502    0 -0.11565154079E+03  0.26101311244E+01  0.21896721458E+03  0.24764638647E+03  0.00000000000E+00 0. -1.
         22    1    3    3    0    0  0.10352798367E+01  0.81096643809E+02 -0.12713048522E+02  0.82093599288E+02  0.00000000000E+00 0.  1.
         22    1    3    3    0    0  0.76428969453E+02  0.26680022756E+02  0.75612915343E+02  0.11077239707E+03  0.00000000000E+00 0.  1.
</event>
<event>
 7    1  0.6140348E-006  0.4601061E+02  0.7818608E-02  0.1571214E+00
          2   -1    0    0  502    0  0.00000000000E+00  0.00000000000E+00  0.46039306895E+03  0.46039306895E+03  0.00000000000E+00 0. -1.
          1   -1    0    0  501    0 -0.00000000000E+00 -0.00000000000E+00 -0.39885042914E+03  0.39885042914E+03  0.00000000000E+00 0. -1.
         25    2    1    2    0    0  0.63473482098E+02 -0.11613160462E+02 -0.22462650057E+03  0.26503929955E+03  0.12500006849E+03 0.  0.
          2    1    1    2  501    0 -0.43328835862E+02  0.37278737198E+00 -0.15065956596E+03  0.15676680708E+03  0.00000000000E+00 0. -1.
          1    1    1    2  502    0 -0.20144646236E+02  0.11240373090E+02  0.43682870635E+03  0.43743739146E+03  0.00000000000E+00 0. -1.
         22    1    3    3    0    0  0.36397606619E+02  0.55802308714E+02 -0.12617989887E+03  0.14268864813E+03  0.00000000000E+00 0. -1.
         22    1    3    3    0    0  0.27075875479E+02 -0.67415469176E+02 -0.98446601697E+02  0.12235065142E+03  0.00000000000E+00 0. -1.
</event>
<event>
 7    1  0.6140348E-006  0.2050958E+03  0.7818608E-02  0.1232127E+00
          2   -1    0    0  502    0  0.00000000000E+00  0.00000000000E+00  0.22871482326E+04  0.22871482326E+04  0.00000000000E+00 0. -1.
          1   -1    0    0  501    0 -0.00000000000E+00 -0.00000000000E+00 -0.69760316432E+03  0.69760316432E+03  0.00000000000E+00 0. -1.
         25    2    1    2    0    0  0.13249738967E+03  0.12800258031E+02  0.10194147555E+04  0.10356402810E+04  0.12499977168E+03 0.  0.
          2    1    1    2  501    0 -0.19875629455E+03 -0.54931399631E+02 -0.67280608665E+03  0.70369706090E+03  0.00000000000E+00 0. -1.
          1    1    1    2  502    0  0.66258904881E+02  0.42131141599E+02  0.12429363993E+04  0.12454140550E+04  0.00000000000E+00 0. -1.
         22    1    3    3    0    0  0.14773661996E+03 -0.10900299477E+02  0.93460140898E+03  0.94626884081E+03  0.00000000000E+00 0. -1.
         22    1    3    3    0    0 -0.15239230298E+02  0.23700557508E+02  0.84813346567E+02  0.89371440193E+02  0.00000000000E+00 0. -1.
</event>
<event>
 7    1  0.6140348E-006  0.1038129E+03  0.7818608E-02  0.1379224E+00
          2   -1    0    0  502    0  0.00000000000E+00  0.00000000000E+00  0.10188210596E+04  0.10188210596E+04  0.00000000000E+00 0. -1.
          1   -1    0    0  501    0 -0.00000000000E+00 -0.00000000000E+00 -0.38551868119E+03  0.38551868119E+03  0.00000000000E+00 0. -1.
         25    2    1    2    0    0  0.10189345175E+03  0.84328262090E+02  0.48593630705E+03  0.51889617926E+03  0.12500247616E+03 0.  0.
          2    1    1    2  501    0 -0.93154469579E+02 -0.45003897547E+02 -0.36097556591E+03  0.37550827579E+03  0.00000000000E+00 0. -1.
          1    1    1    2  502    0 -0.87389821751E+01 -0.39324364543E+02  0.50834163730E+03  0.50993528577E+03  0.00000000000E+00 0. -1.
         22    1    3    3    0    0  0.66810814053E+02  0.93138773072E+02  0.19869770116E+03  0.22938895433E+03  0.00000000000E+00 0.  1.
         22    1    3    3    0    0  0.35082637701E+02 -0.88105109823E+01  0.28723860589E+03  0.28950722493E+03  0.00000000000E+00 0.  1.
</event>
<event>
 7    1  0.6140348E-006  0.1091786E+03  0.7818608E-02  0.1286551E+00
          2   -1    0    0  502    0  0.00000000000E+00  0.00000000000E+00  0.37498164490E+03  0.37498164490E+03  0.00000000000E+00 0. -1.
          1   -1    0    0  501    0 -0.00000000000E+00 -0.00000000000E+00 -0.66738703446E+03  0.66738703446E+03  0.00000000000E+00 0. -1.
         25    2    1    2    0    0  0.45881660221E+02 -0.68101758340E+01 -0.49489360901E+02  0.14221678331E+03  0.12499964549E+03 0.  0.
          2    1    1    2  501    0  0.54905317672E+02  0.66618171207E+02 -0.55765696475E+03  0.56429944620E+03  0.00000000000E+00 0. -1.
          1    1    1    2  502    0 -0.10078697789E+03 -0.59807995373E+02  0.31474093608E+03  0.33585244985E+03  0.00000000000E+00 0. -1.
         22    1    3    3    0    0  0.83879718587E+02 -0.29668256734E+02 -0.33954007195E+02  0.95230705408E+02  0.00000000000E+00 0. -1.
         22    1    3    3    0    0 -0.37998058367E+02  0.22858080900E+02 -0.15535353706E+02  0.46986077904E+02  0.00000000000E+00 0. -1.
</event>
<event>
 7    1  0.6140348E-006  0.4114338E+02  0.7818608E-02  0.1582936E+00
          2   -1    0    0  502    0  0.00000000000E+00  0.00000000000E+00  0.12932718240E+04  0.12932718240E+04  0.00000000000E+00 0. -1.
          1   -1    0    0  501    0 -0.00000000000E+00 -0.00000000000E+00 -0.24900144829E+03  0.24900144829E+03  0.00000000000E+00 0. -1.
         25    2    1    2    0    0 -0.14922212153E+02  0.15182258918E+02  0.35027402918E+03  0.37251966603E+03  0.12500333061E+03 0.  0.
          2    1    1    2  501    0  0.38872513953E+02 -0.13808682541E+02 -0.23593430826E+03  0.23951356928E+03  0.00000000000E+00 0. -1.
          1    1    1    2  502    0 -0.23950301800E+02 -0.13735763779E+01  0.92993065482E+03  0.93024003700E+03  0.00000000000E+00 0. -1.
         22    1    3    3    0    0 -0.46742470855E+02  0.54881580258E+02  0.24837335302E+03  0.25862360473E+03  0.00000000000E+00 0.  1.
         22    1    3    3    0    0  0.31820258702E+02 -0.39699321339E+02  0.10190067616E+03  0.11389606130E+03  0.00000000000E+00 0.  1.
</event>
<event>
 7    1  0.6140348E-006  0.1184522E+03  0.7818608E-02  0.1360375E+00
          2   -1    0    0  502    0  0.00000000000E+00  0.00000000000E+00  0.12517026490E+04  0.12517026490E+04  0.00000000000E+00 0. -1.
          1   -1    0    0  501    0 -0.00000000000E+00 -0.00000000000E+00 -0.20401920145E+03  0.20401920145E+03  0.00000000000E+00 0. -1.
         25    2    1    2    0    0 -0.74831380789E+02  0.13667852471E+03 -0.50704650584E+02  0.20609963967E+03  0.12500138084E+03 0.  0.
          2    1    1    2  501    0  0.30588150664E+02 -0.27703662436E+02 -0.66796399700E+02  0.78516793658E+02  0.00000000000E+00 0. -1.
          1    1    1    2  502    0  0.44243230124E+02 -0.10897486228E+03  0.11651844979E+04  0.11711054172E+04  0.00000000000E+00 0. -1.
         22    1    3    3    0    0 -0.14323724028E+02  0.51627929380E+02 -0.81266901467E+02  0.97339208113E+02  0.00000000000E+00 0. -1.
         22    1    3    3    0    0 -0.60507656761E+02  0.85050595335E+02  0.30562250883E+02  0.10876043156E+03  0.00000000000E+00 0. -1.
</event>
<event>
 7    1  0.6140348E-006  0.6556999E+02  0.7818608E-02  0.1523062E+00
          2   -1    0    0  502    0  0.00000000000E+00  0.00000000000E+00  0.49832097747E+03  0.49832097747E+03  0.00000000000E+00 0. -1.
          1   -1    0    0  501    0 -0.00000000000E+00 -0.00000000000E+00 -0.11896446945E+04  0.11896446945E+04  0.00000000000E+00 0. -1.
         25    2    1    2    0    0  0.45373721569E+02  0.69738017787E+02 -0.10382225036E+03  0.18256042577E+03  0.12500833434E+03 0.  0.
          2    1    1    2  501    0 -0.19877756950E+02 -0.96164314699E+01 -0.10440129799E+04  0.10442464763E+04  0.00000000000E+00 0. -1.
          1    1    1    2  502    0 -0.25495964618E+02 -0.60121586317E+02  0.45651151325E+03  0.46115876992E+03  0.00000000000E+00 0. -1.
         22    1    3    3    0    0 -0.27326262963E+01  0.84201732430E+02 -0.10200119826E+03  0.13229377702E+03  0.00000000000E+00 0. -1.
         22    1    3    3    0    0  0.48106347865E+02 -0.14463714644E+02 -0.18210520957E+01  0.50266648754E+02  0.00000000000E+00 0. -1.
</event>
<event>
 7    1  0.6140348E-006  0.1629720E+03  0.7818608E-02  0.1324692E+00
          2   -1    0    0  502    0  0.00000000000E+00  0.00000000000E+00  0.68771530077E+03  0.68771530077E+03  0.00000000000E+00 0. -1.
          1   -1    0    0  501    0 -0.00000000000E+00 -0.00000000000E+00 -0.11200181412E+03  0.11200181412E+03  0.00000000000E+00 0. -1.
         25    2    1    2    0    0 -0.83695610847E+02 -0.17540740600E+03  0.33981954707E+03  0.41094279803E+03  0.12499578124E+03 0.  0.
          2    1    1    2  501    0  0.55218269309E+02  0.14617087369E+03  0.71484935238E+01  0.15641637555E+03  0.00000000000E+00 0. -1.
          1    1    1    2  502    0  0.28477341538E+02  0.29236532317E+02  0.22874544605E+03  0.23235794132E+03  0.00000000000E+00 0. -1.
         22    1    3    3    0    0 -0.81074543161E+02 -0.18584004033E+03  0.34407807280E+03  0.39937366253E+03  0.00000000000E+00 0.  1.
         22    1    3    3    0    0 -0.26210676859E+01  0.10432634327E+02 -0.42585257352E+01  0.11569135501E+02  0.00000000000E+00 0.  1.
</event>
<event>
 7    1  0.6140348E-006  0.8063325E+02  0.7818608E-02  0.1344897E+00
          2   -1    0    0  502    0  0.00000000000E+00  0.00000000000E+00  0.23470340392E+03  0.23470340392E+03  0.00000000000E+00 0. -1.
          1   -1    0    0  501    0 -0.00000000000E+00 -0.00000000000E+00 -0.31353440906E+03  0.31353440906E+03  0.00000000000E+00 0. -1.
         25    2    1    2    0    0 -0.19935187563E+02 -0.22727725002E+02 -0.46179154167E+02  0.13665376119E+03  0.12501109943E+03 0.  0.
          2    1    1    2  501    0  0.25115463110E+02 -0.64424456345E+02 -0.20610649763E+03  0.21739637860E+03  0.00000000000E+00 0. -1.
          1    1    1    2  502    0 -0.51802755469E+01  0.87152181347E+02  0.17345464666E+03  0.19418767319E+03  0.00000000000E+00 0. -1.
         22    1    3    3    0    0 -0.74741140546E+01 -0.56804479007E+02 -0.72077926570E+02  0.92075179689E+02  0.00000000000E+00 0. -1.
         22    1    3    3    0    0 -0.12461073508E+02  0.34076754005E+02  0.25898772404E+02  0.44578581500E+02  0.00000000000E+00 0. -1.
</event>
<event>
 7    1  0.6140348E-006  0.1813664E+03  0.7818608E-02  0.1172126E+00
          2   -1    0    0  502    0  0.00000000000E+00  0.00000000000E+00  0.34842286137E+04  0.34842286137E+04  0.00000000000E+00 0. -1.
          1   -1    0    0  501    0 -0.00000000000E+00 -0.00000000000E+00 -0.87707110610E+02  0.87707110610E+02  0.00000000000E+00 0. -1.
         25    2    1    2    0    0 -0.54011809833E+02 -0.31668773429E+01  0.35114435494E+03  0.37663625932E+03  0.12500083648E+03 0.  0.
          2    1    1    2  501    0 -0.61882164808E+02 -0.17048280501E+03  0.43943916943E+02  0.18661419282E+03  0.00000000000E+00 0. -1.
          1    1    1    2  502    0  0.11589397464E+03  0.17364968235E+03  0.30014332312E+04  0.30086852722E+04  0.00000000000E+00 0. -1.
         22    1    3    3    0    0  0.86702254616E+01  0.36817784253E+02  0.23970866274E+03  0.24267460732E+03  0.00000000000E+00 0.  1.
         22    1    3    3    0    0 -0.62682035295E+02 -0.39984661595E+02  0.11143569220E+03  0.13396165200E+03  0.00000000000E+00 0.  1.
</event>
<event>
 7    1  0.6140348E-006  0.1589985E+03  0.7818608E-02  0.1394127E+00
          2   -1    0    0  502    0  0.00000000000E+00  0.00000000000E+00  0.17028148816E+04  0.17028148816E+04  0.00000000000E+00 0. -1.
          1   -1    0    0  501    0 -0.00000000000E+00 -0.00000000000E+00 -0.86096798515E+02  0.86096798515E+02  0.00000000000E+00 0. -1.
         25    2    1    2    0    0  0.17360659688E+03  0.17699248373E+02  0.17709387896E+03  0.27828517889E+03  0.12501153927E+03 0.  0.
          2    1    1    2  501    0 -0.18969477336E+02  0.13563699351E+02 -0.26922708660E+02  0.35618074795E+02  0.00000000000E+00 0. -1.
          1    1    1    2  502    0 -0.15463711955E+03 -0.31262947724E+02  0.14665469128E+04  0.14750084264E+04  0.00000000000E+00 0. -1.
         22    1    3    3    0    0  0.96148417325E+02  0.29157856732E+02  0.19551314441E+02  0.10235698637E+03  0.00000000000E+00 0.  1.
         22    1    3    3    0    0  0.77458179560E+02 -0.11458608359E+02  0.15754256452E+03  0.17592819252E+03  0.00000000000E+00 0.  1.
</event>
<event>
 7    1  0.6140348E-006  0.3912128E+02  0.7818608E-02  0.1517791E+00
          2   -1    0    0  502    0  0.00000000000E+00  0.00000000000E+00  0.27016639794E+04  0.27016639794E+04  0.00000000000E+00 0. -1.
          1   -1    0    0  501    0 -0.00000000000E+00 -0.00000000000E+00 -0.12378093013E+02  0.12378093013E+02  0.00000000000E+00 0. -1.
         25    2    1    2    0    0 -0.46017856137E+01 -0.31958507391E+01  0.11968989973E+04  0.12034216337E+04  0.12500011518E+03 0.  0.
          2    1    1    2  501    0  0.35640598160E+02 -0.19306432219E+02  0.37473192645E+02  0.55201727593E+02  0.00000000000E+00 0. -1.
          1    1    1    2  502    0 -0.31038812546E+02  0.22502282958E+02  0.14549136965E+04  0.14554187112E+04  0.00000000000E+00 0. -1.
         22    1    3    3    0    0  0.20444919236E+02  0.39215817993E+01  0.31655549400E+02  0.37887297795E+02  0.00000000000E+00 0.  1.
         22    1    3    3    0    0 -0.25046704850E+02 -0.71174325384E+01  0.11652434479E+04  0.11655343359E+04  0.00000000000E+00 0.  1.
</event>
<event>
 7    1  0.6140348E-006  0.3240412E+02  0.7818608E-02  0.1573712E+00
          2   -1    0    0  502    0  0.00000000000E+00  0.00000000000E+00  0.14930287472E+02  0.14930287472E+02  0.00000000000E+00 0. -1.
          1   -1    0    0  501    0 -0.00000000000E+00 -0.00000000000E+00 -0.12718311532E+04  0.12718311532E+04  0.00000000000E+00 0. -1.
         25    2    1    2    0    0 -0.25913696640E+01  0.19291689835E+02 -0.67023633204E+03  0.68207136863E+03  0.12500290649E+03 0.  0.
          2    1    1    2  501    0 -0.29623994971E+02 -0.17825599249E+02 -0.56450272074E+03  0.56556047845E+03  0.00000000000E+00 0. -1.
          1    1    1    2  502    0  0.32215364635E+02 -0.14660905866E+01 -0.22161812930E+02  0.39129593564E+02  0.00000000000E+00 0. -1.
         22    1    3    3    0    0  0.58005799728E+02  0.20699261028E+02 -0.24938192588E+03  0.25687443852E+03  0.00000000000E+00 0.  1.
         22    1    3    3    0    0 -0.60597169392E+02 -0.14075711925E+01 -0.42085440616E+03  0.42519693012E+03  0.00000000000E+00 0.  1.
</event>
<event>
 7    1  0.6140348E-006  0.4549505E+03  0.7818608E-02  0.1220290E+00
          2   -1    0    0  502    0  0.00000000000E+00  0.00000000000E+00  0.70960690380E+03  0.70960690380E+03  0.00000000000E+00 0. -1.
          1   -1    0    0  501    0 -0.00000000000E+00 -0.00000000000E+00 -0.77674653923E+03  0.77674653923E+03  0.00000000000E+00 0. -1.
         25    2    1    2    0    0  0.22207720184E+03  0.36791837277E+03 -0.12896852639E+02  0.44774353909E+03  0.12500294155E+03 0.  0.
          2    1    1    2  501    0  0.65554658158E+01  0.39489362957E+02 -0.43443850590E+03  0.43627880917E+03  0.00000000000E+00 0. -1.
          1    1    1    2  502    0 -0.22863266765E+03 -0.40740773573E+03  0.38019572311E+03  0.60233109476E+03  0.00000000000E+00 0. -1.
         22    1    3    3    0    0  0.19390416053E+03  0.27153842414E+03 -0.56247537273E+02  0.33837216893E+03  0.00000000000E+00 0. -1.
         22    1    3    3    0    0  0.28173041308E+02  0.96379948626E+02  0.43350684634E+02  0.10937137017E+03  0.00000000000E+00 0. -1.
</event>
<event>
 7    1  0.6140348E-006  0.2972518E+02  0.7818608E-02  0.1609249E+00
          2   -1    0    0  502    0  0.00000000000E+00  0.00000000000E+00  0.11228876048E+04  0.11228876048E+04  0.00000000000E+00 0. -1.
          1   -1    0    0  501    0 -0.00000000000E+00 -0.00000000000E+00 -0.21488018296E+04  0.21488018296E+04  0.00000000000E+00 0. -1.
         25    2    1    2    0    0  0.14008113387E+02  0.56285452806E+02  0.35245429210E+02  0.14223920860E+03  0.12500189097E+03 0.  0.
          2    1    1    2  501    0 -0.76726140474E+01 -0.28683200216E+02 -0.20950058380E+04  0.20952162314E+04  0.00000000000E+00 0. -1.
          1    1    1    2  502    0 -0.63354993396E+01 -0.27602252590E+02  0.10338461840E+04  0.10342339944E+04  0.00000000000E+00 0. -1.
         22    1    3    3    0    0  0.22719969833E+02  0.64724570916E+01 -0.43007489272E+02  0.49068664782E+02  0.00000000000E+00 0. -1.
         22    1    3    3    0    0 -0.87118564459E+01  0.49812995715E+02  0.78252918481E+02  0.93170543820E+02  0.00000000000E+00 0. -1.
</event>
<event>
 7    1  0.6140348E-006  0.5268301E+02  0.7818608E-02  0.1556728E+00
          2   -1    0    0  502    0  0.00000000000E+00  0.00000000000E+00  0.54846888648E+03  0.54846888648E+03  0.00000000000E+00 0. -1.
          1   -1    0    0  501    0 -0.00000000000E+00 -0.00000000000E+00 -0.22386769977E+03  0.22386769977E+03  0.00000000000E+00 0. -1.
         25    2    1    2    0    0 -0.69526026760E+02  0.21128790208E+02  0.29645094401E+03  0.32983128962E+03  0.12500089294E+03 0.  0.
          2    1    1    2  501    0  0.51886620120E+02 -0.78586126709E+01 -0.20332081304E+03  0.20998412358E+03  0.00000000000E+00 0. -1.
          1    1    1    2  502    0  0.17639406641E+02 -0.13270177538E+02  0.23147105574E+03  0.23252117306E+03  0.00000000000E+00 0. -1.
         22    1    3    3    0    0  0.25194798519E+02  0.40695495354E+02  0.99198187136E+02  0.11014164310E+03  0.00000000000E+00 0.  1.
         22    1    3    3    0    0 -0.94720825279E+02 -0.19566705146E+02  0.19725275687E+03  0.21968964651E+03  0.00000000000E+00 0.  1.
</event>
<event>
 7    1  0.6140348E-006  0.7200947E+02  0.7818608E-02  0.1473079E+00
          2   -1    0    0  502    0  0.00000000000E+00  0.00000000000E+00  0.13484225959E+03  0.13484225959E+03  0.00000000000E+00 0. -1.
          1   -1    0    0  501    0 -0.00000000000E+00 -0.00000000000E+00 -0.24231700943E+04  0.24231700943E+04  0.00000000000E+00 0. -1.
         25    2    1    2    0    0  0.48830982963E+02  0.44763740956E+01 -0.33455041675E+03  0.36049568756E+03  0.12501462545E+03 0.  0.
          2    1    1    2  501    0  0.22906295155E+02 -0.16747228065E+02 -0.20646751220E+04  0.20648700994E+04  0.00000000000E+00 0. -1.
          1    1    1    2  502    0 -0.71737278118E+02  0.12270853970E+02  0.11089770410E+03  0.13264656687E+03  0.00000000000E+00 0. -1.
         22    1    3    3    0    0  0.49622856400E+02  0.37217614857E+02 -0.31763416294E+03  0.32363411471E+03  0.00000000000E+00 0.  1.
         22    1    3    3    0    0 -0.79187343741E+00 -0.32741240762E+02 -0.16916253808E+02  0.36861572851E+02  0.00000000000E+00 0.  1.
</event>
<event>
 7    1  0.6140348E-006  0.1051158E+03  0.7818608E-02  0.1270158E+00
          2   -1    0    0  502    0  0.00000000000E+00  0.00000000000E+00  0.43318361135E+03  0.43318361135E+03  0.00000000000E+00 0. -1.
          1   -1    0    0  501    0 -0.00000000000E+00 -0.00000000000E+00 -0.10622947651E+04  0.10622947651E+04  0.00000000000E+00 0. -1.
         25    2    1    2    0    0 -0.12292445996E+03 -0.24387402252E+02 -0.70367929338E+03  0.72560002940E+03  0.12500274591E+03 0.  0.
          2    1    1    2  501    0  0.83161777347E+02 -0.72625629367E+02 -0.33206852565E+03  0.34994266528E+03  0.00000000000E+00 0. -1.
          1    1    1    2  502    0  0.39762682611E+02  0.97013031620E+02  0.40663666531E+03  0.41993568175E+03  0.00000000000E+00 0. -1.
         22    1    3    3    0    0 -0.85954177235E+02  0.33015381986E+01 -0.17592236133E+03  0.19582568257E+03  0.00000000000E+00 0.  1.
         22    1    3    3    0    0 -0.36970282723E+02 -0.27688940451E+02 -0.52775693205E+03  0.52977434683E+03  0.00000000000E+00 0.  1.
</event>
<event>
 7    1  0.6140348E-006  0.5153097E+02  0.7818608E-02  0.1554854E+00
          2   -1    0    0  502    0  0.00000000000E+00  0.00000000000E+00  0.16291611947E+03  0.16291611947E+03  0.00000000000E+00 0. -1.
          1   -1    0    0  501    0 -0.00000000000E+00 -0.00000000000E+00 -0.26871865056E+03  0.26871865056E+03  0.00000000000E+00 0. -1.
         25    2    1    2    0    0 -0.22030473579E+02  0.66044096413E+02 -0.40861774369E+02  0.14880237142E+03  0.12500118679E+03 0.  0.
          2    1    1    2  501    0 -0.36205938406E+01 -0.22549461145E+02 -0.16721740891E+03  0.16876980992E+03  0.00000000000E+00 0. -1.
          1    1    1    2  502    0  0.25651067419E+02 -0.43494635268E+02  0.10227665218E+03  0.11406258869E+03  0.00000000000E+00 0. -1.
         22    1    3    3    0    0 -0.65808791884E+02  0.73444015566E+02 -0.30293982948E+02  0.10316271572E+03  0.00000000000E+00 0. -1.
         22    1    3    3    0    0  0.43778318306E+02 -0.73999191531E+01 -0.10567791422E+02  0.45639655703E+02  0.00000000000E+00 0. -1.
</event>
<event>
 7    1  0.6140348E-006  0.6520286E+02  0.7818608E-02  0.1394174E+00
          2   -1    0    0  502    0  0.00000000000E+00  0.00000000000E+00  0.36924128846E+03  0.36924128846E+03  0.00000000000E+00 0. -1.
          1   -1    0    0  501    0 -0.00000000000E+00 -0.00000000000E+00 -0.61972952663E+03  0.61972952663E+03  0.00000000000E+00 0. -1.
         25    2    1    2    0    0 -0.15203595601E+02 -0.60869180743E+02 -0.23632377360E+03  0.27461158464E+03  0.12500555974E+03 0.  0.
          2    1    1    2  501    0  0.56025944570E+02  0.96117699118E+01 -0.35893934915E+03  0.36341264281E+03  0.00000000000E+00 0. -1.
          1    1    1    2  502    0 -0.40822348969E+02  0.51257410832E+02  0.34477488458E+03  0.35094658764E+03  0.00000000000E+00 0. -1.
         22    1    3    3    0    0  0.22831158706E+02  0.26015316688E+02 -0.11797345254E+03  0.12294630541E+03  0.00000000000E+00 0.  1.
         22    1    3    3    0    0 -0.38034754306E+02 -0.86884497431E+02 -0.11835032107E+03  0.15166527924E+03  0.00000000000E+00 0.  1.
</event>
<event>
 7    1  0.6140348E-006  0.1117094E+03  0.7818608E-02  0.1311869E+00
          2   -1    0    0  502    0  0.00000000000E+00  0.00000000000E+00  0.83958111198E+02  0.83958111198E+02  0.00000000000E+00 0. -1.
          1   -1    0    0  501    0 -0.00000000000E+00 -0.00000000000E+00 -0.20048091520E+04  0.20048091520E+04  0.00000000000E+00 0. -1.
         25    2    1    2    0    0  0.13178292133E+03  0.10882603200E+03 -0.41145176988E+03  0.46273798816E+03  0.12499617253E+03 0.  0.
          2    1    1    2  501    0 -0.57101166021E+02 -0.34646808165E+02 -0.15188746571E+04  0.15203424510E+04  0.00000000000E+00 0. -1.
          1    1    1    2  502    0 -0.74681755314E+02 -0.74179223838E+02  0.94753861653E+01  0.10568682401E+03  0.00000000000E+00 0. -1.
         22    1    3    3    0    0  0.70661981440E+02  0.59990243005E+02 -0.80828633419E+02  0.12298460415E+03  0.00000000000E+00 0. -1.
         22    1    3    3    0    0  0.61120939895E+02  0.48835788997E+02 -0.33062313646E+03  0.33975338401E+03  0.00000000000E+00 0. -1.
</event>
<event>
 7    1  0.6140348E-006  0.6470101E+02  0.7818608E-02  0.1396713E+00
          2   -1    0    0  502    0  0.00000000000E+00  0.00000000000E+00  0.13341942636E+04  0.13341942636E+04  0.00000000000E+00 0. -1.
          1   -1    0    0  501    0 -0.00000000000E+00 -0.00000000000E+00 -0.21070552794E+03  0.21070552794E+03  0.00000000000E+00 0. -1.
         25    2    1    2    0    0 -0.86787622847E+02  0.60463143138E+02  0.15075488657E+03  0.22257812004E+03  0.12500440207E+03 0.  0.
          2    1    1    2  501    0  0.63012477331E+02 -0.96087951964E+01 -0.16826981479E+03  0.17993785542E+03  0.00000000000E+00 0. -1.
          1    1    1    2  502    0  0.23775145515E+02 -0.50854347941E+02  0.11410036639E+04  0.11423838161E+04  0.00000000000E+00 0. -1.
         22    1    3    3    0    0 -0.10179111225E+03  0.73833808874E+02  0.15735205294E+03  0.20142624067E+03  0.00000000000E+00 0. -1.
         22    1    3    3    0    0  0.15003489407E+02 -0.13370665736E+02 -0.65971663712E+01  0.21151879367E+02  0.00000000000E+00 0. -1.
</event>
<event>
 7    1  0.6140348E-006  0.1059087E+03  0.7818608E-02  0.1383341E+00
          2   -1    0    0  502    0  0.00000000000E+00  0.00000000000E+00  0.31685828904E+03  0.31685828904E+03  0.00000000000E+00 0. -1.
          1   -1    0    0  501    0 -0.00000000000E+00 -0.00000000000E+00 -0.70854595681E+03  0.70854595681E+03  0.00000000000E+00 0. -1.
         25    2    1    2    0    0 -0.53385527674E+02 -0.95492541907E+02 -0.24733523198E+03  0.29794030674E+03  0.12499947711E+03 0.  0.
          2    1    1    2  501    0  0.16435323460E+02  0.10512565217E+03 -0.42811716405E+03  0.44114150650E+03  0.00000000000E+00 0. -1.
          1    1    1    2  502    0  0.36950204215E+02 -0.96331102606E+01  0.28376472827E+03  0.28632243261E+03  0.00000000000E+00 0. -1.
         22    1    3    3    0    0 -0.10098836769E+02 -0.96583505037E+02 -0.23283803841E+03  0.25227745059E+03  0.00000000000E+00 0. -1.
         22    1    3    3    0    0 -0.43286690905E+02  0.10909631295E+01 -0.14497193576E+02  0.45662856148E+02  0.00000000000E+00 0. -1.
</event>
<event>
 7    1  0.6140348E-006  0.1094616E+03  0.7818608E-02  0.1298866E+00
          2   -1    0    0  502    0  0.00000000000E+00  0.00000000000E+00  0.36315254644E+03  0.36315254644E+03  0.00000000000E+00 0. -1.
          1   -1    0    0  501    0 -0.00000000000E+00 -0.00000000000E+00 -0.22328053729E+04  0.22328053729E+04  0.00000000000E+00 0. -1.
         25    2    1    2    0    0 -0.10813246669E+02 -0.34300934446E+02  0.47812820001E+02  0.13858140308E+03  0.12500103646E+03 0.  0.
          2    1    1    2  501    0  0.20975149482E+01  0.11056868940E+03 -0.21805342110E+04  0.21833367308E+04  0.00000000000E+00 0. -1.
          1    1    1    2  502    0  0.87157317207E+01 -0.76267754956E+02  0.26306856449E+03  0.27403978552E+03  0.00000000000E+00 0. -1.
         22    1    3    3    0    0  0.38523730862E+01 -0.59606315790E+02  0.76873094460E+02  0.97351046796E+02  0.00000000000E+00 0. -1.
         22    1    3    3    0    0 -0.14665619755E+02  0.25305381344E+02 -0.29060274459E+02  0.41230356285E+02  0.00000000000E+00 0. -1.
</event>
<event>
 7    1  0.6140348E-006  0.1082224E+03  0.7818608E-02  0.1413615E+00
          2   -1    0    0  502    0  0.00000000000E+00  0.00000000000E+00  0.11371561603E+04  0.11371561603E+04  0.00000000000E+00 0. -1.
          1   -1    0    0  501    0 -0.00000000000E+00 -0.00000000000E+00 -0.22876623126E+04  0.22876623126E+04  0.00000000000E+00 0. -1.
         25    2    1    2    0    0  0.77669041331E+02  0.32316482397E+02  0.66224919994E+03  0.67918012426E+03  0.12503920728E+03 0.  0.
          2    1    1    2  501    0 -0.10569537145E+03 -0.23476024173E+02 -0.22774465975E+04  0.22800187805E+04  0.00000000000E+00 0. -1.
          1    1    1    2  502    0  0.28026330122E+02 -0.88404582245E+01  0.46469124516E+03  0.46561956811E+03  0.00000000000E+00 0. -1.
         22    1    3    3    0    0 -0.34223408904E+02  0.12237091259E+01  0.17034504294E+03  0.17375319518E+03  0.00000000000E+00 0. -1.
         22    1    3    3    0    0  0.11189245023E+03  0.31092773271E+02  0.49190415700E+03  0.50542692908E+03  0.00000000000E+00 0. -1.
</event>
<event>
 7    1  0.6140348E-006  0.9017861E+02  0.7818608E-02  0.1362530E+00
          2   -1    0    0  502    0  0.00000000000E+00  0.00000000000E+00  0.92102581687E+02  0.92102581687E+02  0.00000000000E+00 0. -1.
          1   -1    0    0  501    0 -0.00000000000E+00 -0.00000000000E+00 -0.86819214177E+03  0.86819214177E+03  0.00000000000E+00 0. -1.
         25    2    1    2    0    0 -0.43324784398E+02 -0.31016277437E+02 -0.28716186116E+03  0.31768907578E+03  0.12500147181E+03 0.  0.
          2    1    1    2  501    0  0.96513383425E+02  0.33297005328E+02 -0.55125900113E+03  0.56063357915E+03  0.00000000000E+00 0. -1.
          1    1    1    2  502    0 -0.53188599027E+02 -0.22807278912E+01  0.62331302199E+02  0.81972068535E+02  0.00000000000E+00 0. -1.
         22    1    3    3    0    0 -0.50539918052E+02 -0.71469426438E+02 -0.14189602137E+03  0.16672325307E+03  0.00000000000E+00 0. -1.
         22    1    3    3    0    0  0.72151336546E+01  0.40453149001E+02 -0.14526583979E+03  0.15096582271E+03  0.00000000000E+00 0. -1.
</event>
<event>
 7    1  0.6140348E-006  0.5251237E+02  0.7818608E-02  0.1444851E+00
          2   -1    0    0  502    0  0.00000000000E+00  0.00000000000E+00  0.14467162259E+03  0.14467162259E+03  0.00000000000E+00 0. -1.
          1   -1    0    0  501    0 -0.00000000000E+00 -0.00000000000E+00 -0.20819349823E+04  0.20819349823E+04  0.00000000000E+00 0. -1.
         25    2    1    2    0    0  0.28044165911E+02 -0.59204764006E+02 -0.86405956326E+02  0.16547807440E+03  0.12500129797E+03 0.  0.
          2    1    1    2  501    0 -0.46765133095E+02  0.98023781673E+01 -0.19490447950E+04  0.19496303950E+04  0.00000000000E+00 0. -1.
          1    1    1    2  502    0  0.18720967184E+02  0.49402385839E+02  0.98187391618E+02  0.11149813546E+03  0.00000000000E+00 0. -1.
         22    1    3    3    0    0 -0.34299829723E+02 -0.25780788950E+02  0.11750189653E+02  0.44488137237E+02  0.00000000000E+00 0. -1.
         22    1    3    3    0    0  0.62343995634E+02 -0.33423975056E+02 -0.98156145979E+02  0.12098993716E+03  0.00000000000E+00 0. -1.
</event>
<event>
 7    1  0.6140348E-006  0.9535024E+02  0.7818608E-02  0.1322099E+00
          2   -1    0    0  502    0  0.00000000000E+00  0.00000000000E+00  0.23382219086E+04  0.23382219086E+04  0.00000000000E+00 0. -1.
          1   -1    0    0  501    0 -0.00000000000E+00 -0.00000000000E+00 -0.12480557333E+03  0.12480557333E+03  0.00000000000E+00 0. -1.
         25    2    1    2    0    0 -0.23780601696E+02  0.57982126069E+02  0.28201119170E+03  0.31477447874E+03  0.12500086504E+03 0.  0.
          2    1    1    2  501    0 -0.39481052663E+02 -0.91052846258E+02 -0.84948927728E+02  0.13063573268E+03  0.00000000000E+00 0. -1.
          1    1    1    2  502    0  0.63261654359E+02  0.33070720189E+02  0.20163540713E+04  0.20176172705E+04  0.00000000000E+00 0. -1.
         22    1    3    3    0    0  0.27249944850E+02  0.53963493772E+02  0.53907533325E+02  0.80997779621E+02  0.00000000000E+00 0.  1.
         22    1    3    3    0    0 -0.51030546546E+02  0.40186322973E+01  0.22810365837E+03  0.23377669912E+03  0.00000000000E+00 0.  1.
</event>
<event>
 7    1  0.6140348E-006  0.8858006E+02  0.7818608E-02  0.1356086E+00
          2   -1    0    0  502    0  0.00000000000E+00  0.00000000000E+00  0.14068096568E+04  0.14068096568E+04  0.00000000000E+00 0. -1.
          1   -1    0    0  501    0 -0.00000000000E+00 -0.00000000000E+00 -0.13958580374E+03  0.13958580374E+03  0.00000000000E+00 0. -1.
         25    2    1    2    0    0  0.15941271780E+02  0.13103919841E+03 -0.32184004080E+02  0.18462549768E+03  0.12500147444E+03 0.  0.
          2    1    1    2  501    0 -0.35224304531E+02 -0.45089245143E+02 -0.21280946908E+01  0.57256619218E+02  0.00000000000E+00 0. -1.
          1    1    1    2  502    0  0.19283032752E+02 -0.85949953262E+02  0.13015359518E+04  0.13045133436E+04  0.00000000000E+00 0. -1.
         22    1    3    3    0    0 -0.35525959465E+02  0.15257238565E+02  0.24548537825E+02  0.45798557116E+02  0.00000000000E+00 0.  1.
         22    1    3    3    0    0  0.51467231245E+02  0.11578195984E+03 -0.56732541905E+02  0.13882694057E+03  0.00000000000E+00 0.  1.
</event>
<event>
 7    1  0.6140348E-006  0.1827274E+03  0.7818608E-02  0.1169081E+00
          2   -1    0    0  502    0  0.00000000000E+00  0.00000000000E+00  0.95441194267E+03  0.95441194267E+03  0.00000000000E+00 0. -1.
          1   -1    0    0  501    0 -0.00000000000E+00 -0.00000000000E+00 -0.69793588364E+03  0.69793588364E+03  0.00000000000E+00 0. -1.
         25    2    1    2    0    0 -0.14137043474E+03  0.15049180355E+03  0.33022378810E+03  0.40903186067E+03  0.12500372017E+03 0.  0.
          2    1    1    2  501    0  0.16911466512E+03  0.43955667907E+02 -0.62980133623E+03  0.65359130488E+03  0.00000000000E+00 0. -1.
          1    1    1    2  502    0 -0.27744230375E+02 -0.19444747145E+03  0.55605360715E+03  0.58972466076E+03  0.00000000000E+00 0. -1.
         22    1    3    3    0    0 -0.13695484478E+03  0.82346830976E+02  0.16237190592E+03  0.22782068807E+03  0.00000000000E+00 0. -1.
         22    1    3    3    0    0 -0.44155899654E+01  0.68144972573E+02  0.16785188218E+03  0.18121117259E+03  0.00000000000E+00 0. -1.
</event>
<event>
 7    1  0.6140348E-006  0.9918919E+02  0.7818608E-02  0.1314698E+00
          2   -1    0    0  502    0  0.00000000000E+00  0.00000000000E+00  0.13283515363E+04  0.13283515363E+04  0.00000000000E+00 0. -1.
          1   -1    0    0  501    0 -0.00000000000E+00 -0.00000000000E+00 -0.93649514322E+03  0.93649514322E+03  0.00000000000E+00 0. -1.
         25    2    1    2    0    0 -0.16113078083E+03  0.58759120542E+02  0.41215247577E+03  0.46358489297E+03  0.12500210770E+03 0.  0.
          2    1    1    2  501    0  0.90192266008E+02 -0.40208183981E+02 -0.90658386167E+03  0.91194607360E+03  0.00000000000E+00 0. -1.
          1    1    1    2  502    0  0.70938514827E+02 -0.18550936561E+02  0.88628777895E+03  0.88931571292E+03  0.00000000000E+00 0. -1.
         22    1    3    3    0    0 -0.16798783341E+02  0.32848867591E+02  0.14301060536E+02  0.39569780846E+02  0.00000000000E+00 0.  1.
         22    1    3    3    0    0 -0.14433199749E+03  0.25910252951E+02  0.39785141523E+03  0.42401511212E+03  0.00000000000E+00 0.  1.
</event>
<event>
 7    1  0.6140348E-006  0.7406190E+02  0.7818608E-02  0.1407585E+00
          2   -1    0    0  502    0  0.00000000000E+00  0.00000000000E+00  0.15771478560E+03  0.15771478560E+03  0.00000000000E+00 0. -1.
          1   -1    0    0  501    0 -0.00000000000E+00 -0.00000000000E+00 -0.74146339285E+03  0.74146339285E+03  0.00000000000E+00 0. -1.
         25    2    1    2    0    0 -0.37940425090E+02 -0.42565212220E+02  0.67586380091E+02  0.15310959345E+03  0.12499342257E+03 0.  0.
          2    1    1    2  501    0 -0.44688763696E+02 -0.53611182840E+01 -0.64895771657E+03  0.65051667548E+03  0.00000000000E+00 0. -1.
          1    1    1    2  502    0  0.82629188786E+02  0.47926330504E+02 -0.23772707741E+01  0.95551909512E+02  0.00000000000E+00 0. -1.
         22    1    3    3    0    0  0.25375597366E+02  0.27212312819E+02  0.93089816778E-01  0.37208057949E+02  0.00000000000E+00 0.  1.
         22    1    3    3    0    0 -0.63316022456E+02 -0.69777525039E+02  0.67493290275E+02  0.11590153550E+03  0.00000000000E+00 0.  1.
</event>
<event>
 7    1  0.6140348E-006  0.8635349E+02  0.7818608E-02  0.1402661E+00
          2   -1    0    0  502    0  0.00000000000E+00  0.00000000000E+00  0.19500489263E+04  0.19500489263E+04  0.00000000000E+00 0. -1.
          1   -1    0    0  501    0 -0.00000000000E+00 -0.00000000000E+00 -0.26209539086E+02  0.26209539086E+02  0.00000000000E+00 0. -1.
         25    2    1    2    0    0  0.12122962487E+02 -0.97180121746E+02  0.28173662048E+03  0.32340549828E+03  0.12499860285E+03 0.  0.
          2    1    1    2  501    0  0.21506731137E+02  0.75291352815E+02  0.29690391760E+03  0.30705579880E+03  0.00000000000E+00 0. -1.
          1    1    1    2  502    0 -0.33629693624E+02  0.21888768931E+02  0.13451988491E+04  0.13457971683E+04  0.00000000000E+00 0. -1.
         22    1    3    3    0    0  0.22565334866E+02 -0.16801496437E+02  0.21928576442E+03  0.22108308641E+03  0.00000000000E+00 0. -1.
         22    1    3    3    0    0 -0.10442372379E+02 -0.80378625309E+02  0.62450856057E+02  0.10232241186E+03  0.00000000000E+00 0. -1.
</event>
<event>
 7    1  0.6140348E-006  0.8955354E+02  0.7818608E-02  0.1464803E+00
          2   -1    0    0  502    0  0.00000000000E+00  0.00000000000E+00  0.24946636410E+03  0.24946636410E+03  0.00000000000E+00 0. -1.
          1   -1    0    0  501    0 -0.00000000000E+00 -0.00000000000E+00 -0.20786916525E+03  0.20786916525E+03  0.00000000000E+00 0. -1.
         25    2    1    2    0    0  0.59465765624E+02 -0.92339796117E+02  0.81306851794E+02  0.18519035697E+03  0.12498739512E+03 0.  0.
          2    1    1    2  501    0 -0.39869350116E+02  0.78119923328E+02 -0.14206927333E+03  0.16696097126E+03  0.00000000000E+00 0. -1.
          1    1    1    2  502    0 -0.19596415508E+02  0.14219872790E+02  0.10235962038E+03  0.10518420113E+03  0.00000000000E+00 0. -1.
         22    1    3    3    0    0  0.84891312241E+02 -0.42296167935E+02  0.87086192184E+02  0.12876142895E+03  0.00000000000E+00 0. -1.
         22    1    3    3    0    0 -0.25425546617E+02 -0.50043628182E+02 -0.57793403892E+01  0.56428928022E+02  0.00000000000E+00 0. -1.
</event>
<event>
 7    1  0.6140348E-006  0.9787191E+02  0.7818608E-02  0.1377065E+00
          2   -1    0    0  502    0  0.00000000000E+00  0.00000000000E+00  0.48180279773E+03  0.48180279773E+03  0.00000000000E+00 0. -1.
          1   -1    0    0  501    0 -0.00000000000E+00 -0.00000000000E+00 -0.43075077427E+03  0.43075077427E+03  0.00000000000E+00 0. -1.
         25    2    1    2    0    0 -0.77436555100E+02 -0.52681046186E+02  0.99781410125E+02  0.18534650986E+03  0.12500114486E+03 0.  0.
          2    1    1    2  501    0  0.27320229785E+02 -0.33837772175E+02 -0.37933134273E+03  0.38181626125E+03  0.00000000000E+00 0. -1.
          1    1    1    2  502    0  0.50116325315E+02  0.86518818361E+02  0.33060195606E+03  0.34539080090E+03  0.00000000000E+00 0. -1.
         22    1    3    3    0    0 -0.93017449211E+02 -0.55433252368E+02  0.11870926705E+03  0.16067663617E+03  0.00000000000E+00 0.  1.
         22    1    3    3    0    0  0.15580894110E+02  0.27522061826E+01 -0.18927856926E+02  0.24669873692E+02  0.00000000000E+00 0.  1.
</event>
<event>
 7    1  0.6140348E-006  0.1906790E+03  0.7818608E-02  0.1290129E+00
          2   -1    0    0  502    0  0.00000000000E+00  0.00000000000E+00  0.31336145428E+04  0.31336145428E+04  0.00000000000E+00 0. -1.
          1   -1    0    0  501    0 -0.00000000000E+00 -0.00000000000E+00 -0.26712936270E+03  0.26712936270E+03  0.00000000000E+00 0. -1.
         25    2    1    2    0    0  0.13620652918E+03 -0.57062807093E+02  0.40590283362E+03  0.44965617607E+03  0.12500073515E+03 0.  0.
          2    1    1    2  501    0 -0.17512625098E+03  0.84807610444E+02 -0.20641042205E+03  0.28366670038E+03  0.00000000000E+00 0. -1.
          1    1    1    2  502    0  0.38919721797E+02 -0.27744803351E+02  0.26669927685E+04  0.26674210291E+04  0.00000000000E+00 0. -1.
         22    1    3    3    0    0  0.64198198928E+02 -0.67775360143E+02  0.33600405630E+03  0.34873146408E+03  0.00000000000E+00 0. -1.
         22    1    3    3    0    0  0.72008330253E+02  0.10712553050E+02  0.69898777318E+02  0.10092471198E+03  0.00000000000E+00 0. -1.
</event>
<event>
 7    1  0.6140348E-006  0.1049650E+03  0.7818608E-02  0.1339808E+00
          2   -1    0    0  502    0  0.00000000000E+00  0.00000000000E+00  0.84206701048E+03  0.84206701048E+03  0.00000000000E+00 0. -1.
          1   -1    0    0  501    0 -0.00000000000E+00 -0.00000000000E+00 -0.20710093236E+03  0.20710093236E+03  0.00000000000E+00 0. -1.
         25    2    1    2    0    0  0.13939250167E+03  0.44091668967E+02  0.17715657977E+03  0.26150738241E+03  0.12500924968E+03 0.  0.
          2    1    1    2  501    0 -0.10229283547E+03 -0.28091515419E+01 -0.14765967430E+03  0.17965270645E+03  0.00000000000E+00 0. -1.
          1    1    1    2  502    0 -0.37099666202E+02 -0.41282517426E+02  0.60546917265E+03  0.60800785398E+03  0.00000000000E+00 0. -1.
         22    1    3    3    0    0  0.15449763096E+02  0.51578828829E+01  0.11737319796E+03  0.11849796005E+03  0.00000000000E+00 0. -1.
         22    1    3    3    0    0  0.12394273858E+03  0.38933786085E+02  0.59783381808E+02  0.14300942237E+03  0.00000000000E+00 0. -1.
</event>
<event>
 7    1  0.6140348E-006  0.5666594E+02  0.7818608E-02  0.1470107E+00
          2   -1    0    0  502    0  0.00000000000E+00  0.00000000000E+00  0.87403609386E+03  0.87403609386E+03  0.00000000000E+00 0. -1.
          1   -1    0    0  501    0 -0.00000000000E+00 -0.00000000000E+00 -0.58974278059E+03  0.58974278059E+03  0.00000000000E+00 0. -1.
         25    2    1    2    0    0  0.58192346233E+02 -0.50521935076E+02 -0.14338045768E+03  0.20523741892E+03  0.12500250956E+03 0.  0.
          2    1    1    2  501    0 -0.33105235446E+01  0.36683786811E+02 -0.41366472413E+03  0.41530129276E+03  0.00000000000E+00 0. -1.
          1    1    1    2  502    0 -0.54881822689E+02  0.13838148265E+02  0.84133849508E+03  0.84324016277E+03  0.00000000000E+00 0. -1.
         22    1    3    3    0    0 -0.28231674814E+02 -0.50176614306E+02 -0.77606007766E+02  0.96630287836E+02  0.00000000000E+00 0. -1.
         22    1    3    3    0    0  0.86424021047E+02 -0.34532076987E+00 -0.65774449913E+02  0.10860713108E+03  0.00000000000E+00 0. -1.
</event>
<event>
 7    1  0.6140348E-006  0.5354343E+02  0.7818608E-02  0.1435114E+00
          2   -1    0    0  502    0  0.00000000000E+00  0.00000000000E+00  0.34998917997E+04  0.34998917997E+04  0.00000000000E+00 0. -1.
          1   -1    0    0  501    0 -0.00000000000E+00 -0.00000000000E+00 -0.26649512377E+02  0.26649512377E+02  0.00000000000E+00 0. -1.
         25    2    1    2    0    0 -0.98041029756E+02 -0.15275499171E+02  0.10600552639E+04  0.10720017190E+04  0.12500055427E+03 0.  0.
          2    1    1    2  501    0  0.50239656683E+02 -0.39951285008E+01  0.10727511822E+02  0.51527309897E+02  0.00000000000E+00 0. -1.
          1    1    1    2  502    0  0.47801373073E+02  0.19270627672E+02  0.24024595115E+04  0.24030122831E+04  0.00000000000E+00 0. -1.
         22    1    3    3    0    0  0.18794018168E+02  0.24003754197E+02  0.11622545969E+03  0.12015720042E+03  0.00000000000E+00 0.  1.
         22    1    3    3    0    0 -0.11683504792E+03 -0.39279253368E+02  0.94382980423E+03  0.95184451857E+03  0.00000000000E+00 0.  1.
</event>
<event>
 7    1  0.6140348E-006  0.9305782E+02  0.7818608E-02  0.1332349E+00
          2   -1    0    0  502    0  0.00000000000E+00  0.00000000000E+00  0.11120542916E+03  0.11120542916E+03  0.00000000000E+00 0. -1.
          1   -1    0    0  501    0 -0.00000000000E+00 -0.00000000000E+00 -0.11858256858E+04  0.11858256858E+04  0.00000000000E+00 0. -1.
         25    2    1    2    0    0 -0.22330357963E+02 -0.72387714321E+02 -0.33802536043E+03  0.36827369581E+03  0.12500297862E+03 0.  0.
          2    1    1    2  501    0  0.65549609753E+02 -0.12918586582E+02 -0.80715406393E+03  0.80991439309E+03  0.00000000000E+00 0. -1.
          1    1    1    2  502    0 -0.43219251790E+02  0.85306300903E+02  0.70559167700E+02  0.11884302607E+03  0.00000000000E+00 0. -1.
         22    1    3    3    0    0 -0.38658406001E+02  0.17623867850E+02 -0.47704718757E+02  0.63881243446E+02  0.00000000000E+00 0.  1.
         22    1    3    3    0    0  0.16328048038E+02 -0.90011582171E+02 -0.29032064167E+03  0.30439245237E+03  0.00000000000E+00 0.  1.
</event>
<event>
 7    1  0.6140348E-006  0.2140825E+03  0.7818608E-02  0.1310562E+00
          2   -1    0    0  502    0  0.00000000000E+00  0.00000000000E+00  0.17968241225E+04  0.17968241225E+04  0.00000000000E+00 0. -1.
          1   -1    0    0  501    0 -0.00000000000E+00 -0.00000000000E+00 -0.16840042672E+03  0.16840042672E+03  0.00000000000E+00 0. -1.
         25    2    1    2    0    0 -0.10156066172E+03  0.15928957693E+03  0.30206017880E+03  0.37756029574E+03  0.12499475179E+03 0.  0.
          2    1    1    2  501    0  0.13166632448E+03 -0.17765726483E+03 -0.36691912848E+02  0.22415267390E+03  0.00000000000E+00 0. -1.
          1    1    1    2  502    0 -0.30105662759E+02  0.18367687902E+02  0.13630554298E+04  0.13635115795E+04  0.00000000000E+00 0. -1.
         22    1    3    3    0    0 -0.11934055286E+03  0.10845502827E+03  0.27111380606E+03  0.31544786661E+03  0.00000000000E+00 0.  1.
         22    1    3    3    0    0  0.17779891141E+02  0.50834548660E+02  0.30946372740E+02  0.62112429129E+02  0.00000000000E+00 0.  1.
</event>
<event>
 7    1  0.6140348E-006  0.2563499E+03  0.7818608E-02  0.1195016E+00
          2   -1    0    0  502    0  0.00000000000E+00  0.00000000000E+00  0.25300043891E+04  0.25300043891E+04  0.00000000000E+00 0. -1.
          1   -1    0    0  501    0 -0.00000000000E+00 -0.00000000000E+00 -0.14678139792E+04  0.14678139792E+04  0.00000000000E+00 0. -1.
         25    2    1    2    0    0 -0.20230208468E+03 -0.24885782679E+02 -0.24504792453E+03  0.34237197842E+03  0.12499860256E+03 0.  0.
          2    1    1    2  501    0  0.25648075361E+03  0.10065997687E+03 -0.11570475242E+04  0.11894005975E+04  0.00000000000E+00 0. -1.
          1    1    1    2  502    0 -0.54178668925E+02 -0.75774194188E+02  0.24642858587E+04  0.24660457924E+04  0.00000000000E+00 0. -1.
         22    1    3    3    0    0 -0.48013655625E+02  0.45470772139E+02 -0.96211214930E+02  0.11674545012E+03  0.00000000000E+00 0. -1.
         22    1    3    3    0    0 -0.15428842906E+03 -0.70356554818E+02 -0.14883670960E+03  0.22562652830E+03  0.00000000000E+00 0. -1.
</event>
<event>
 7    1  0.6140348E-006  0.6752180E+02  0.7818608E-02  0.1401180E+00
          2   -1    0    0  502    0  0.00000000000E+00  0.00000000000E+00  0.55842487188E+03  0.55842487188E+03  0.00000000000E+00 0. -1.
          1   -1    0    0  501    0 -0.00000000000E+00 -0.00000000000E+00 -0.44850999497E+03  0.44850999497E+03  0.00000000000E+00 0. -1.
         25    2    1    2    0    0 -0.27615667802E+02  0.49643568774E+01  0.68674684097E+02  0.14535343640E+03  0.12499655711E+03 0.  0.
          2    1    1    2  501    0  0.41226897292E+02 -0.55068834495E+02 -0.40577312578E+03  0.41156295168E+03  0.00000000000E+00 0. -1.
          1    1    1    2  502    0 -0.13611229490E+02  0.50104477618E+02  0.44701331858E+03  0.45001847877E+03  0.00000000000E+00 0. -1.
         22    1    3    3    0    0 -0.10108780555E+02  0.48934610059E+02  0.82142984590E+02  0.96147040637E+02  0.00000000000E+00 0.  1.
         22    1    3    3    0    0 -0.17506887246E+02 -0.43970253181E+02 -0.13468300494E+02  0.49206395764E+02  0.00000000000E+00 0.  1.
</event>
<event>
 7    1  0.6140348E-006  0.1905282E+03  0.7818608E-02  0.1194229E+00
          2   -1    0    0  502    0  0.00000000000E+00  0.00000000000E+00  0.72389845753E+03  0.72389845753E+03  0.00000000000E+00 0. -1.
          1   -1    0    0  501    0 -0.00000000000E+00 -0.00000000000E+00 -0.11294972772E+04  0.11294972772E+04  0.00000000000E+00 0. -1.
         25    2    1    2    0    0 -0.24821892662E+02  0.77982265551E+02 -0.44467444576E+02  0.15588259277E+03  0.12499867601E+03 0.  0.
          2    1    1    2  501    0 -0.35189557948E+02  0.12142049464E+03 -0.10090579271E+04  0.10169459876E+04  0.00000000000E+00 0. -1.
          1    1    1    2  502    0  0.60011450610E+02 -0.19940276019E+03  0.64792655192E+03  0.68056715441E+03  0.00000000000E+00 0. -1.
         22    1    3    3    0    0 -0.30482271311E+01  0.10554434489E+03 -0.90088987337E+01  0.10597198065E+03  0.00000000000E+00 0. -1.
         22    1    3    3    0    0 -0.21773665530E+02 -0.27562079342E+02 -0.35458545842E+02  0.49910612114E+02  0.00000000000E+00 0. -1.
</event>
<event>
 7    1  0.6140348E-006  0.9948181E+02  0.7818608E-02  0.1435275E+00
          2   -1    0    0  502    0  0.00000000000E+00  0.00000000000E+00  0.87889129440E+03  0.87889129440E+03  0.00000000000E+00 0. -1.
          1   -1    0    0  501    0 -0.00000000000E+00 -0.00000000000E+00 -0.11039695643E+03  0.11039695643E+03  0.00000000000E+00 0. -1.
         25    2    1    2    0    0  0.78474731674E+02 -0.47503782573E+01  0.18099185216E+03  0.23358864306E+03  0.12499901605E+03 0.  0.
          2    1    1    2  501    0 -0.10245041893E+03 -0.78663925470E+01 -0.52318831069E+02  0.11530493725E+03  0.00000000000E+00 0. -1.
          1    1    1    2  502    0  0.23975687254E+02  0.12616770804E+02  0.63982131689E+03  0.64039467052E+03  0.00000000000E+00 0. -1.
         22    1    3    3    0    0  0.35265053161E+02 -0.12204986070E+02 -0.91777824783E+01  0.38429381346E+02  0.00000000000E+00 0. -1.
         22    1    3    3    0    0  0.43209678513E+02  0.74546078123E+01  0.19016963464E+03  0.19515926171E+03  0.00000000000E+00 0. -1.
</event>
<event>
 7    1  0.6140348E-006  0.7388000E+02  0.7818608E-02  0.1451863E+00
          2   -1    0    0  502    0  0.00000000000E+00  0.00000000000E+00  0.40443433220E+04  0.40443433220E+04  0.00000000000E+00 0. -1.
          1   -1    0    0  501    0 -0.00000000000E+00 -0.00000000000E+00 -0.11352129185E+03  0.11352129185E+03  0.00000000000E+00 0. -1.
         25    2    1    2    0    0  0.89917748262E+02  0.13473478924E+02  0.95844342449E+02  0.18187312117E+03  0.12499983255E+03 0.  0.
          2    1    1    2  501    0 -0.17412669326E+02 -0.27143095814E+02 -0.66452364165E+02  0.73863830164E+02  0.00000000000E+00 0. -1.
          1    1    1    2  502    0 -0.72505078936E+02  0.13669616890E+02  0.39014300518E+04  0.39021276625E+04  0.00000000000E+00 0. -1.
         22    1    3    3    0    0  0.41718093923E+02  0.11936306188E+02  0.12023954366E+03  0.12782966254E+03  0.00000000000E+00 0.  1.
         22    1    3    3    0    0  0.48199654338E+02  0.15371727365E+01 -0.24395201213E+02  0.54043458629E+02  0.00000000000E+00 0.  1.
</event>
<event>
 7    1  0.6140348E-006  0.2608443E+02  0.7818608E-02  0.1673943E+00
          2   -1    0    0  502    0  0.00000000000E+00  0.00000000000E+00  0.15978635169E+04  0.15978635169E+04  0.00000000000E+00 0. -1.
          1   -1    0    0  501    0 -0.00000000000E+00 -0.00000000000E+00 -0.30602228558E+03  0.30602228558E+03  0.00000000000E+00 0. -1.
         25    2    1    2    0    0  0.19845635043E+02  0.42522132697E+02 -0.65767100747E+02  0.14883618315E+03  0.12499966750E+03 0.  0.
          2    1    1    2  501    0 -0.38015588622E+01 -0.21980892388E+02 -0.19798510894E+03  0.19923783487E+03  0.00000000000E+00 0. -1.
          1    1    1    2  502    0 -0.16044076181E+02 -0.20541240309E+02  0.15555934410E+04  0.15558117845E+04  0.00000000000E+00 0. -1.
         22    1    3    3    0    0 -0.52180380064E+02  0.30377092364E+02 -0.32577692283E+02  0.68606602005E+02  0.00000000000E+00 0. -1.
         22    1    3    3    0    0  0.72026015107E+02  0.12145040333E+02 -0.33189408464E+02  0.80229581148E+02  0.00000000000E+00 0. -1.
</event>
<event>
 7    1  0.6140348E-006  0.9710899E+02  0.7818608E-02  0.1354489E+00
          2   -1    0    0  502    0  0.00000000000E+00  0.00000000000E+00  0.33540550135E+04  0.33540550135E+04  0.00000000000E+00 0. -1.
          1   -1    0    0  501    0 -0.00000000000E+00 -0.00000000000E+00 -0.27320664964E+03  0.27320664964E+03  0.00000000000E+00 0. -1.
         25    2    1    2    0    0  0.61508326093E+02 -0.10369976572E+03 -0.59274636107E+02  0.18350683475E+03  0.12499744127E+03 0.  0.
          2    1    1    2  501    0 -0.52425276859E+02  0.70874462254E+01 -0.14646934094E+03  0.15573024556E+03  0.00000000000E+00 0. -1.
          1    1    1    2  502    0 -0.90830492337E+01  0.96612319491E+02  0.32865923409E+04  0.32880245829E+04  0.00000000000E+00 0. -1.
         22    1    3    3    0    0  0.14442712489E+02 -0.58695031219E+01  0.35895515567E+02  0.39134780550E+02  0.00000000000E+00 0.  1.
         22    1    3    3    0    0  0.47065613604E+02 -0.97830262594E+02 -0.95170151673E+02  0.14437205420E+03  0.00000000000E+00 0.  1.
</event>
<event>
 7    1  0.6140348E-006  0.9916412E+02  0.7818608E-02  0.1378718E+00
          2   -1    0    0  502    0  0.00000000000E+00  0.00000000000E+00  0.19766430175E+04  0.19766430175E+04  0.00000000000E+00 0. -1.
          1   -1    0    0  501    0 -0.00000000000E+00 -0.00000000000E+00 -0.16972189460E+03  0.16972189460E+03  0.00000000000E+00 0. -1.
         25    2    1    2    0    0  0.11947434086E+03 -0.23777873545E+02  0.77249921918E+02  0.19087054923E+03  0.12499804292E+03 0.  0.
          2    1    1    2  501    0 -0.33839680931E+02 -0.25458692677E+02 -0.10756706710E+03  0.11560252144E+03  0.00000000000E+00 0. -1.
          1    1    1    2  502    0 -0.85634659931E+02  0.49236566222E+02  0.18372382681E+04  0.18398918414E+04  0.00000000000E+00 0. -1.
         22    1    3    3    0    0  0.31862383332E+01 -0.52703086083E+02  0.36948725697E+02  0.64443585624E+02  0.00000000000E+00 0. -1.
         22    1    3    3    0    0  0.11628810253E+03  0.28925212538E+02  0.40301196222E+02  0.12642696361E+03  0.00000000000E+00 0. -1.
</event>
<event>
 7    1  0.6140348E-006  0.1515291E+03  0.7818608E-02  0.1346812E+00
          2   -1    0    0  502    0  0.00000000000E+00  0.00000000000E+00  0.23178632011E+03  0.23178632011E+03  0.00000000000E+00 0. -1.
          1   -1    0    0  501    0 -0.00000000000E+00 -0.00000000000E+00 -0.24843217006E+03  0.24843217006E+03  0.00000000000E+00 0. -1.
         25    2    1    2    0    0 -0.73399229672E+02 -0.14202139873E+03 -0.43977965018E+02  0.20764512709E+03  0.12499965113E+03 0.  0.
          2    1    1    2  501    0  0.95509353472E+02  0.11336417327E+03 -0.73489547843E+02  0.16545146123E+03  0.00000000000E+00 0. -1.
          1    1    1    2  502    0 -0.22110123800E+02  0.28657225456E+02  0.10082166291E+03  0.10712190185E+03  0.00000000000E+00 0. -1.
         22    1    3    3    0    0 -0.49942284988E+02 -0.15546303173E+03 -0.62535770509E+02  0.17485339190E+03  0.00000000000E+00 0. -1.
         22    1    3    3    0    0 -0.23456944684E+02  0.13441633009E+02  0.18557805491E+02  0.32791735186E+02  0.00000000000E+00 0. -1.
</event>
<event>
 7    1  0.6140348E-006  0.4438097E+02  0.7818608E-02  0.1510367E+00
          2   -1    0    0  502    0  0.00000000000E+00  0.00000000000E+00  0.59922154123E+03  0.59922154123E+03  0.00000000000E+00 0. -1.
          1   -1    0    0  501    0 -0.00000000000E+00 -0.00000000000E+00 -0.10893034776E+03  0.10893034776E+03  0.00000000000E+00 0. -1.
         25    2    1    2    0    0  0.25513627398E+02  0.28756215647E+01  0.18041327012E+03  0.22098340171E+03  0.12500200564E+03 0.  0.
          2    1    1    2  501    0  0.81013625740E+01 -0.34592102738E+02 -0.83678167993E+02  0.90908093403E+02  0.00000000000E+00 0. -1.
          1    1    1    2  502    0 -0.33614989972E+02  0.31716481174E+02  0.39355609134E+03  0.39626039388E+03  0.00000000000E+00 0. -1.
         22    1    3    3    0    0  0.36126315949E+02 -0.39287526660E+02  0.16724480772E+03  0.17555468140E+03  0.00000000000E+00 0.  1.
         22    1    3    3    0    0 -0.10612688552E+02  0.42163148225E+02  0.13168462405E+02  0.45428720306E+02  0.00000000000E+00 0.  1.
</event>
<event>
 7    1  0.6140348E-006  0.7340512E+02  0.7818608E-02  0.1446700E+00
          2   -1    0    0  502    0  0.00000000000E+00  0.00000000000E+00  0.93820233005E+02  0.93820233005E+02  0.00000000000E+00 0. -1.
          1   -1    0    0  501    0 -0.00000000000E+00 -0.00000000000E+00 -0.10862392053E+04  0.10862392053E+04  0.00000000000E+00 0. -1.
         25    2    1    2    0    0 -0.51350916680E+02  0.19986423416E+02 -0.53654044013E+03  0.55365944587E+03  0.12500705718E+03 0.  0.
          2    1    1    2  501    0  0.61695799973E+02 -0.52076681150E+02 -0.53465233824E+03  0.54071385708E+03  0.00000000000E+00 0. -1.
          1    1    1    2  502    0 -0.10344883293E+02  0.32090257734E+02  0.78773806124E+02  0.85686135302E+02  0.00000000000E+00 0. -1.
         22    1    3    3    0    0 -0.79355710975E+02 -0.15622847451E+02 -0.23036011017E+03  0.24414582238E+03  0.00000000000E+00 0.  1.
         22    1    3    3    0    0  0.28004794295E+02  0.35609270867E+02 -0.30618032996E+03  0.30951362349E+03  0.00000000000E+00 0.  1.
</event>
<event>
 7    1  0.6140348E-006  0.9300795E+02  0.7818608E-02  0.1440769E+00
          2   -1    0    0  502    0  0.00000000000E+00  0.00000000000E+00  0.11398210079E+04  0.11398210079E+04  0.00000000000E+00 0. -1.
          1   -1    0    0  501    0 -0.00000000000E+00 -0.00000000000E+00 -0.86883421215E+03  0.86883421215E+03  0.00000000000E+00 0. -1.
         25    2    1    2    0    0 -0.11352551507E+03  0.40113145069E+02  0.16904856921E+03  0.24227982459E+03  0.12499995069E+03 0.  0.
          2    1    1    2  501    0  0.87932343269E+02 -0.29233823794E+02 -0.82943093313E+03  0.83459114917E+03  0.00000000000E+00 0. -1.
          1    1    1    2  502    0  0.25593171802E+02 -0.10879321274E+02  0.93136915971E+03  0.93178424634E+03  0.00000000000E+00 0. -1.
         22    1    3    3    0    0 -0.84548065362E+02  0.52328510268E+02  0.36289197983E+02  0.10584684329E+03  0.00000000000E+00 0.  1.
         22    1    3    3    0    0 -0.28977449709E+02 -0.12215365199E+02  0.13275937123E+03  0.13643298131E+03  0.00000000000E+00 0.  1.
</event>
<event>
 7    1  0.6140348E-006  0.1021415E+03  0.7818608E-02  0.1396104E+00
          2   -1    0    0  502    0  0.00000000000E+00  0.00000000000E+00  0.16026523459E+04  0.16026523459E+04  0.00000000000E+00 0. -1.
          1   -1    0    0  501    0 -0.00000000000E+00 -0.00000000000E+00 -0.82098638174E+02  0.82098638174E+02  0.00000000000E+00 0. -1.
         25    2    1    2    0    0 -0.12465445429E+03 -0.42608269848E+02  0.90879848658E+03  0.92676555678E+03  0.12500204159E+03 0.  0.
          2    1    1    2  501    0  0.99607273756E+02  0.17123424064E+02 -0.37460309953E+02  0.10778726946E+03  0.00000000000E+00 0. -1.
          1    1    1    2  502    0  0.25047180530E+02  0.25484845784E+02  0.64921553108E+03  0.65019815780E+03  0.00000000000E+00 0. -1.
         22    1    3    3    0    0 -0.78826536019E+02 -0.53697636636E+02  0.82595627036E+03  0.83144501893E+03  0.00000000000E+00 0.  1.
         22    1    3    3    0    0 -0.45827918267E+02  0.11089366789E+02  0.82842216220E+02  0.95320537853E+02  0.00000000000E+00 0.  1.
</event>
<event>
 7    1  0.6140348E-006  0.3642807E+02  0.7818608E-02  0.1556336E+00
          2   -1    0    0  502    0  0.00000000000E+00  0.00000000000E+00  0.12505428991E+03  0.12505428991E+03  0.00000000000E+00 0. -1.
          1   -1    0    0  501    0 -0.00000000000E+00 -0.00000000000E+00 -0.88101439678E+03  0.88101439678E+03  0.00000000000E+00 0. -1.
         25    2    1    2    0    0  0.35455365061E+02  0.57387233886E+02 -0.21702643496E+03  0.25937714070E+03  0.12500260047E+03 0.  0.
          2    1    1    2  501    0 -0.21174882033E+02 -0.28746962993E+02 -0.63983816725E+03  0.64083355389E+03  0.00000000000E+00 0. -1.
          1    1    1    2  502    0 -0.14280483027E+02 -0.28640270893E+02  0.10090449534E+03  0.10585799210E+03  0.00000000000E+00 0. -1.
         22    1    3    3    0    0  0.25033054766E+02  0.32137669287E+02 -0.22675141890E+03  0.23038161731E+03  0.00000000000E+00 0.  1.
         22    1    3    3    0    0  0.10422310294E+02  0.25249564599E+02  0.97249839474E+01  0.28995523397E+02  0.00000000000E+00 0.  1.
</event>
<event>
 7    1  0.6140348E-006  0.9701778E+02  0.7818608E-02  0.1423866E+00
          2   -1    0    0  502    0  0.00000000000E+00  0.00000000000E+00  0.25515770344E+03  0.25515770344E+03  0.00000000000E+00 0. -1.
          1   -1    0    0  501    0 -0.00000000000E+00 -0.00000000000E+00 -0.12231481701E+04  0.12231481701E+04  0.00000000000E+00 0. -1.
         25    2    1    2    0    0  0.41837307756E+02 -0.57305282052E+02 -0.92395965829E+02  0.17086937280E+03  0.12500028956E+03 0.  0.
          2    1    1    2  501    0  0.26376678079E+02 -0.14895554381E+02 -0.10798685748E+04  0.10802933609E+04  0.00000000000E+00 0. -1.
          1    1    1    2  502    0 -0.68213985835E+02  0.72200836433E+02  0.20427407402E+03  0.22714313981E+03  0.00000000000E+00 0. -1.
         22    1    3    3    0    0  0.29695302782E+02 -0.97964349271E+01 -0.11332053049E+03  0.11755561992E+03  0.00000000000E+00 0. -1.
         22    1    3    3    0    0  0.12142004974E+02 -0.47508847125E+02  0.20924564663E+02  0.53313752881E+02  0.00000000000E+00 0. -1.
</event>
<event>
 7    1  0.6140348E-006  0.1151595E+03  0.7818608E-02  0.1313823E+00
          2   -1    0    0  502    0  0.00000000000E+00  0.00000000000E+00  0.14827984135E+03  0.14827984135E+03  0.00000000000E+00 0. -1.
          1   -1    0    0  501    0 -0.00000000000E+00 -0.00000000000E+00 -0.81952762708E+03  0.81952762708E+03  0.00000000000E+00 0. -1.
         25    2    1    2    0    0 -0.62636189889E+01 -0.10641573031E+03 -0.55224039356E+02  0.17330834701E+03  0.12499019179E+03 0.  0.
          2    1    1    2  501    0 -0.57255786062E+02  0.10225625713E+03 -0.68828957736E+03  0.69819560974E+03  0.00000000000E+00 0. -1.
          1    1    1    2  502    0  0.63519405050E+02  0.41594731793E+01  0.72265830978E+02  0.96303511681E+02  0.00000000000E+00 0. -1.
         22    1    3    3    0    0  0.42514526936E+02 -0.48797520795E+02 -0.71120183982E+02  0.96160093625E+02  0.00000000000E+00 0.  1.
         22    1    3    3    0    0 -0.48778145925E+02 -0.57618209510E+02  0.15896144626E+02  0.77148253389E+02  0.00000000000E+00 0.  1.
</event>
<event>
 7    1  0.6140348E-006  0.4851277E+02  0.7818608E-02  0.1495775E+00
          2   -1    0    0  502    0  0.00000000000E+00  0.00000000000E+00  0.65223696393E+03  0.65223696393E+03  0.00000000000E+00 0. -1.
          1   -1    0    0  501    0 -0.00000000000E+00 -0.00000000000E+00 -0.13392604060E+03  0.13392604060E+03  0.00000000000E+00 0. -1.
         25    2    1    2    0    0  0.43327799008E+01  0.43551582503E+02 -0.28628404332E+02  0.13550472356E+03  0.12500572488E+03 0.  0.
          2    1    1    2  501    0  0.33527487583E+02 -0.12875962268E+02 -0.44516886918E+02  0.57198217183E+02  0.00000000000E+00 0. -1.
          1    1    1    2  502    0 -0.37860267484E+02 -0.30675620236E+02  0.59145621458E+03  0.59346006378E+03  0.00000000000E+00 0. -1.
         22    1    3    3    0    0 -0.42611144345E+02  0.39085750703E+02 -0.56404278959E+02  0.80776532577E+02  0.00000000000E+00 0. -1.
         22    1    3    3    0    0  0.46943924246E+02  0.44658318005E+01  0.27775874626E+02  0.54728190985E+02  0.00000000000E+00 0. -1.
</event>
<event>
 7    1  0.6140348E-006  0.5799967E+02  0.7818608E-02  0.1424586E+00
          2   -1    0    0  502    0  0.00000000000E+00  0.00000000000E+00  0.61452624547E+03  0.61452624547E+03  0.00000000000E+00 0. -1.
          1   -1    0    0  501    0 -0.00000000000E+00 -0.00000000000E+00 -0.69046323842E+03  0.69046323842E+03  0.00000000000E+00 0. -1.
         25    2    1    2    0    0 -0.10593466681E+03  0.87364271303E+01  0.11745253328E+03  0.20178761504E+03  0.12499866087E+03 0.  0.
          2    1    1    2  501    0  0.57416326900E+02  0.48776911126E+01 -0.64561298729E+03  0.64817941638E+03  0.00000000000E+00 0. -1.
          1    1    1    2  502    0  0.48518339906E+02 -0.13614118243E+02  0.45222346106E+03  0.45502245248E+03  0.00000000000E+00 0. -1.
         22    1    3    3    0    0 -0.22818705955E+02  0.41075169964E+02 -0.82032240480E+01  0.47698593416E+02  0.00000000000E+00 0.  1.
         22    1    3    3    0    0 -0.83115960850E+02 -0.32338742834E+02  0.12565575732E+03  0.15408902162E+03  0.00000000000E+00 0.  1.
</event>
<event>
 7    1  0.6140348E-006  0.8318994E+02  0.7818608E-02  0.1394824E+00
          2   -1    0    0  502    0  0.00000000000E+00  0.00000000000E+00  0.21520328814E+04  0.21520328814E+04  0.00000000000E+00 0. -1.
          1   -1    0    0  501    0 -0.00000000000E+00 -0.00000000000E+00 -0.83243913684E+02  0.83243913684E+02  0.00000000000E+00 0. -1.
         25    2    1    2    0    0 -0.54415030691E+02 -0.66476695113E+01  0.53961950180E+03  0.55660867232E+03  0.12497527878E+03 0.  0.
          2    1    1    2  501    0  0.79173841893E+02 -0.30115611365E+02 -0.50339856193E+02  0.98537040800E+02  0.00000000000E+00 0. -1.
          1    1    1    2  502    0 -0.24758811202E+02  0.36763280876E+02  0.15795093221E+04  0.15801310820E+04  0.00000000000E+00 0. -1.
         22    1    3    3    0    0  0.37403213590E+02  0.74144069127E+01  0.94552613606E+02  0.10195180507E+03  0.00000000000E+00 0.  1.
         22    1    3    3    0    0 -0.91818244281E+02 -0.14062076424E+02  0.44506688819E+03  0.45465686726E+03  0.00000000000E+00 0.  1.
</event>
<event>
 7    1  0.6140348E-006  0.1117771E+03  0.7818608E-02  0.1415811E+00
          2   -1    0    0  502    0  0.00000000000E+00  0.00000000000E+00  0.33552538227E+02  0.33552538227E+02  0.00000000000E+00 0. -1.
          1   -1    0    0  501    0 -0.00000000000E+00 -0.00000000000E+00 -0.10995796252E+04  0.10995796252E+04  0.00000000000E+00 0. -1.
         25    2    1    2    0    0  0.14504347145E+02 -0.97430697426E+02 -0.68062637170E+03  0.69898616018E+03  0.12500510946E+03 0.  0.
          2    1    1    2  501    0 -0.21420831211E+02  0.12453502706E+03 -0.38600957610E+03  0.40616649027E+03  0.00000000000E+00 0. -1.
          1    1    1    2  502    0  0.69164840662E+01 -0.27104329637E+02  0.60886078958E+00  0.27979513012E+02  0.00000000000E+00 0. -1.
         22    1    3    3    0    0  0.23294261364E+02 -0.33306957252E+02 -0.47311995769E+02  0.62373078788E+02  0.00000000000E+00 0. -1.
         22    1    3    3    0    0 -0.87899142193E+01 -0.64123740173E+02 -0.63331437593E+03  0.63661308140E+03  0.00000000000E+00 0. -1.
</event>
<event>
 7    1  0.6140348E-006  0.4475286E+02  0.7818608E-02  0.1496116E+00
          2   -1    0    0  502    0  0.00000000000E+00  0.00000000000E+00  0.43939011962E+03  0.43939011962E+03  0.00000000000E+00 0. -1.
          1   -1    0    0  501    0 -0.00000000000E+00 -0.00000000000E+00 -0.76384649160E+03  0.76384649160E+03  0.00000000000E+00 0. -1.
         25    2    1    2    0    0  0.17033708373E+01  0.58529306142E+02 -0.67686657894E+03  0.69079846274E+03  0.12500227717E+03 0.  0.
          2    1    1    2  501    0 -0.27272602274E+02 -0.29292143360E+02 -0.74070825255E+02  0.84192111574E+02  0.00000000000E+00 0. -1.
          1    1    1    2  502    0  0.25569231436E+02 -0.29237162782E+02  0.42648103221E+03  0.42824603690E+03  0.00000000000E+00 0. -1.
         22    1    3    3    0    0  0.19565718719E+02  0.93929071140E+02 -0.53305330176E+03  0.54161915611E+03  0.00000000000E+00 0. -1.
         22    1    3    3    0    0 -0.17862347882E+02 -0.35399764997E+02 -0.14381327718E+03  0.14917930663E+03  0.00000000000E+00 0. -1.
</event>
<event>
 7    1  0.6140348E-006  0.1373757E+03  0.7818608E-02  0.1352762E+00
          2   -1    0    0  502    0  0.00000000000E+00  0.00000000000E+00  0.16848943944E+04  0.16848943944E+04  0.00000000000E+00 0. -1.
          1   -1    0    0  501    0 -0.00000000000E+00 -0.00000000000E+00 -0.10417692968E+04  0.10417692968E+04  0.00000000000E+00 0. -1.
         25    2    1    2    0    0 -0.49825418395E+02  0.99032959739E+02  0.35901352005E+02  0.17089257692E+03  0.12500106534E+03 0.  0.
          2    1    1    2  501    0  0.35443289155E+02 -0.13414949128E+03 -0.96910400722E+03  0.97898666465E+03  0.00000000000E+00 0. -1.
          1    1    1    2  502    0  0.14382129240E+02  0.35116531537E+02  0.15763277528E+04  0.15767844496E+04  0.00000000000E+00 0. -1.
         22    1    3    3    0    0  0.12691716290E+02 -0.79782303520E+01  0.44207309560E+02  0.46679953304E+02  0.00000000000E+00 0.  1.
         22    1    3    3    0    0 -0.62517134685E+02  0.10701119009E+03 -0.83059575543E+01  0.12421262361E+03  0.00000000000E+00 0.  1.
</event>
<event>
 7    1  0.6140348E-006  0.6852487E+02  0.7818608E-02  0.1421032E+00
          2   -1    0    0  502    0  0.00000000000E+00  0.00000000000E+00  0.52111410294E+03  0.52111410294E+03  0.00000000000E+00 0. -1.
          1   -1    0    0  501    0 -0.00000000000E+00 -0.00000000000E+00 -0.10581023027E+04  0.10581023027E+04  0.00000000000E+00 0. -1.
         25    2    1    2    0    0 -0.13931234053E+02  0.10492068748E+03 -0.17192451842E+03  0.23745511995E+03  0.12499785604E+03 0.  0.
          2    1    1    2  501    0  0.22887232777E+02 -0.37378921547E+02 -0.85046899111E+03  0.85159762450E+03  0.00000000000E+00 0. -1.
          1    1    1    2  502    0 -0.89559987243E+01 -0.67541765931E+02  0.48540530974E+03  0.49016366122E+03  0.00000000000E+00 0. -1.
         22    1    3    3    0    0  0.52701904830E+02  0.59965520144E+02 -0.11035508968E+03  0.13620425910E+03  0.00000000000E+00 0.  1.
         22    1    3    3    0    0 -0.66633138883E+02  0.44955167334E+02 -0.61569428734E+02  0.10125086085E+03  0.00000000000E+00 0.  1.
</event>
<event>
 7    1  0.6140348E-006  0.1001096E+03  0.7818608E-02  0.1290647E+00
          2   -1    0    0  502    0  0.00000000000E+00  0.00000000000E+00  0.42752890678E+03  0.42752890678E+03  0.00000000000E+00 0. -1.
          1   -1    0    0  501    0 -0.00000000000E+00 -0.00000000000E+00 -0.72549821857E+03  0.72549821857E+03  0.00000000000E+00 0. -1.
         25    2    1    2    0    0 -0.27907647330E+02 -0.31208128555E+02 -0.18280867377E+03  0.22538098266E+03  0.12499916828E+03 0.  0.
          2    1    1    2  501    0 -0.43417706014E+02  0.10145505124E+03 -0.50923478823E+03  0.52105498190E+03  0.00000000000E+00 0. -1.
          1    1    1    2  502    0  0.71325353345E+02 -0.70246922682E+02  0.39407415021E+03  0.40659116080E+03  0.00000000000E+00 0. -1.
         22    1    3    3    0    0 -0.36093566163E+02  0.19870752069E+02 -0.65891829601E+01  0.41725407586E+02  0.00000000000E+00 0.  1.
         22    1    3    3    0    0  0.81859188324E+01 -0.51078880624E+02 -0.17621949081E+03  0.18365557507E+03  0.00000000000E+00 0.  1.
</event>
<event>
 7    1  0.6140348E-006  0.5849498E+02  0.7818608E-02  0.1488944E+00
          2   -1    0    0  502    0  0.00000000000E+00  0.00000000000E+00  0.13632680140E+02  0.13632680140E+02  0.00000000000E+00 0. -1.
          1   -1    0    0  501    0 -0.00000000000E+00 -0.00000000000E+00 -0.12408574842E+04  0.12408574842E+04  0.00000000000E+00 0. -1.
         25    2    1    2    0    0  0.31199419746E+02  0.69397259292E+02 -0.83032646545E+03  0.84312296445E+03  0.12499964221E+03 0.  0.
          2    1    1    2  501    0 -0.41786777439E+01 -0.53732608749E+02 -0.35521704834E+03  0.35928234861E+03  0.00000000000E+00 0. -1.
          1    1    1    2  502    0 -0.27020742003E+02 -0.15664650544E+02 -0.41681290254E+02  0.52084851275E+02  0.00000000000E+00 0. -1.
         22    1    3    3    0    0  0.76152561124E+01  0.11287764298E+02 -0.68133339388E+03  0.68146944125E+03  0.00000000000E+00 0. -1.
         22    1    3    3    0    0  0.23584163634E+02  0.58109494995E+02 -0.14899307158E+03  0.16165352319E+03  0.00000000000E+00 0. -1.
</event>
<event>
 7    1  0.6140348E-006  0.1254997E+03  0.7818608E-02  0.1254923E+00
          2   -1    0    0  502    0  0.00000000000E+00  0.00000000000E+00  0.28769666922E+03  0.28769666922E+03  0.00000000000E+00 0. -1.
          1   -1    0    0  501    0 -0.00000000000E+00 -0.00000000000E+00 -0.11018732933E+04  0.11018732933E+04  0.00000000000E+00 0. -1.
         25    2    1    2    0    0 -0.30846545871E+02 -0.13406427132E+03 -0.19005453335E+03  0.26584101926E+03  0.12500393449E+03 0.  0.
          2    1    1    2  501    0 -0.77173679886E+02  0.66598309228E+02 -0.85446394561E+03  0.86052294914E+03  0.00000000000E+00 0. -1.
          1    1    1    2  502    0  0.10802022576E+03  0.67465962095E+02  0.23034185489E+03  0.26320599410E+03  0.00000000000E+00 0. -1.
         22    1    3    3    0    0 -0.30727077743E+02 -0.42899710120E+02  0.24662885409E+01  0.52826328797E+02  0.00000000000E+00 0. -1.
         22    1    3    3    0    0 -0.11946812789E+00 -0.91164561204E+02 -0.19252082189E+03  0.21301469046E+03  0.00000000000E+00 0. -1.
</event>
<event>
 7    1  0.6140348E-006  0.1947663E+03  0.7818608E-02  0.1201486E+00
          2   -1    0    0  502    0  0.00000000000E+00  0.00000000000E+00  0.80409699020E+03  0.80409699020E+03  0.00000000000E+00 0. -1.
          1   -1    0    0  501    0 -0.00000000000E+00 -0.00000000000E+00 -0.26087785153E+03  0.26087785153E+03  0.00000000000E+00 0. -1.
         25    2    1    2    0    0  0.13211203338E+03  0.13826270565E+03  0.22152935430E+03  0.31822951269E+03  0.12499841115E+03 0.  0.
          2    1    1    2  501    0 -0.19570932790E+03 -0.43335769840E+02 -0.15699486721E+03  0.25461248654E+03  0.00000000000E+00 0. -1.
          1    1    1    2  502    0  0.63597294516E+02 -0.94926935806E+02  0.47868465158E+03  0.49213284250E+03  0.00000000000E+00 0. -1.
         22    1    3    3    0    0 -0.19314088572E+02  0.45993400322E+02  0.63138070323E+02  0.80466407989E+02  0.00000000000E+00 0.  1.
         22    1    3    3    0    0  0.15142612195E+03  0.92269305323E+02  0.15839128398E+03  0.23776310470E+03  0.00000000000E+00 0.  1.
</event>
<event>
 7    1  0.6140348E-006  0.1263000E+03  0.7818608E-02  0.1297260E+00
          2   -1    0    0  502    0  0.00000000000E+00  0.00000000000E+00  0.15449197794E+04  0.15449197794E+04  0.00000000000E+00 0. -1.
          1   -1    0    0  501    0 -0.00000000000E+00 -0.00000000000E+00 -0.64339002713E+02  0.64339002713E+02  0.00000000000E+00 0. -1.
         25    2    1    2    0    0 -0.96403447429E+02 -0.74528441975E+02  0.57329634177E+03  0.59928447199E+03  0.12500027819E+03 0.  0.
          2    1    1    2  501    0  0.12826166431E+03  0.14990931208E+02  0.33265185682E+02  0.13335049730E+03  0.00000000000E+00 0. -1.
          1    1    1    2  502    0 -0.31858216885E+02  0.59537510768E+02  0.87401924923E+03  0.87662381282E+03  0.00000000000E+00 0. -1.
         22    1    3    3    0    0 -0.11261832887E+02 -0.81745986858E+02  0.36362716812E+03  0.37287256890E+03  0.00000000000E+00 0. -1.
         22    1    3    3    0    0 -0.85141614542E+02  0.72175448827E+01  0.20966917365E+03  0.22641190309E+03  0.00000000000E+00 0. -1.
</event>
<event>
 7    1  0.6140348E-006  0.3159733E+02  0.7818608E-02  0.1637635E+00
          2   -1    0    0  502    0  0.00000000000E+00  0.00000000000E+00  0.37704917693E+03  0.37704917693E+03  0.00000000000E+00 0. -1.
          1   -1    0    0  501    0 -0.00000000000E+00 -0.00000000000E+00 -0.12140606810E+04  0.12140606810E+04  0.00000000000E+00 0. -1.
         25    2    1    2    0    0 -0.10606606907E+02  0.74323209568E+01 -0.29282357169E+03  0.31865019666E+03  0.12499825673E+03 0.  0.
          2    1    1    2  501    0 -0.21028940796E+02 -0.82041993982E+01 -0.90749566705E+03  0.90777635514E+03  0.00000000000E+00 0. -1.
          1    1    1    2  502    0  0.31635547703E+02  0.77187844142E+00  0.36330773469E+03  0.36468330611E+03  0.00000000000E+00 0. -1.
         22    1    3    3    0    0 -0.15956220876E+02  0.25460851710E+02 -0.29770818743E+03  0.29922068916E+03  0.00000000000E+00 0.  1.
         22    1    3    3    0    0  0.53496139687E+01 -0.18028530753E+02  0.48846157419E+01  0.19429507500E+02  0.00000000000E+00 0.  1.
</event>
<event>
 7    1  0.6140348E-006  0.6656054E+02  0.7818608E-02  0.1438147E+00
          2   -1    0    0  502    0  0.00000000000E+00  0.00000000000E+00  0.13659357433E+04  0.13659357433E+04  0.00000000000E+00 0. -1.
          1   -1    0    0  501    0 -0.00000000000E+00 -0.00000000000E+00 -0.23983772043E+03  0.23983772043E+03  0.00000000000E+00 0. -1.
         25    2    1    2    0    0 -0.24283723223E+02  0.16449189227E+02  0.14915798365E+03  0.19679552408E+03  0.12498039515E+03 0.  0.
          2    1    1    2  501    0  0.63023992535E+02 -0.24795941993E+02 -0.21037182419E+03  0.22100490218E+03  0.00000000000E+00 0. -1.
          1    1    1    2  502    0 -0.38740269312E+02  0.83467527667E+01  0.11873118635E+04  0.11879730375E+04  0.00000000000E+00 0. -1.
         22    1    3    3    0    0 -0.45462588324E+02  0.52057634370E+02  0.13727860411E+03  0.15369534600E+03  0.00000000000E+00 0.  1.
         22    1    3    3    0    0  0.21178865101E+02 -0.35608445144E+02  0.11879379534E+02  0.43100178081E+02  0.00000000000E+00 0.  1.
</event>
<event>
 7    1  0.6140348E-006  0.6628298E+02  0.7818608E-02  0.1428119E+00
          2   -1    0    0  502    0  0.00000000000E+00  0.00000000000E+00  0.41775679783E+03  0.41775679783E+03  0.00000000000E+00 0. -1.
          1   -1    0    0  501    0 -0.00000000000E+00 -0.00000000000E+00 -0.11343979557E+04  0.11343979557E+04  0.00000000000E+00 0. -1.
         25    2    1    2    0    0 -0.52143055489E+01  0.25459993734E+02 -0.40786446929E+03  0.42737743184E+03  0.12499057435E+03 0.  0.
          2    1    1    2  501    0 -0.29057773455E+02  0.31592402044E+02 -0.71341346636E+03  0.71470358055E+03  0.00000000000E+00 0. -1.
          1    1    1    2  502    0  0.34272079003E+02 -0.57052395778E+02  0.40463677776E+03  0.41007374115E+03  0.00000000000E+00 0. -1.
         22    1    3    3    0    0  0.41302335322E+02  0.33311346313E+00 -0.46621270049E+02  0.62285926891E+02  0.00000000000E+00 0. -1.
         22    1    3    3    0    0 -0.46516640871E+02  0.25126880271E+02 -0.36124319924E+03  0.36509150495E+03  0.00000000000E+00 0. -1.
</event>
<event>
 7    1  0.6140348E-006  0.5221080E+02  0.7818608E-02  0.1450104E+00
          2   -1    0    0  502    0  0.00000000000E+00  0.00000000000E+00  0.99550639179E+02  0.99550639179E+02  0.00000000000E+00 0. -1.
          1   -1    0    0  501    0 -0.00000000000E+00 -0.00000000000E+00 -0.38991127229E+03  0.38991127229E+03  0.00000000000E+00 0. -1.
         25    2    1    2    0    0  0.37356605221E+02  0.30691649080E+02  0.15996188560E+02  0.13497693269E+03  0.12500160412E+03 0.  0.
          2    1    1    2  501    0  0.14032868305E+02 -0.50289621525E+02 -0.29336092691E+03  0.29797080539E+03  0.00000000000E+00 0. -1.
          1    1    1    2  502    0 -0.51389473526E+02  0.19597972445E+02 -0.12995894754E+02  0.56514173388E+02  0.00000000000E+00 0. -1.
         22    1    3    3    0    0 -0.35123902270E+01  0.22050576455E+01 -0.51178136572E+02  0.51345893967E+02  0.00000000000E+00 0. -1.
         22    1    3    3    0    0  0.40868995448E+02  0.28486591435E+02  0.67174325132E+02  0.83631038720E+02  0.00000000000E+00 0. -1.
</event>
<event>
 7    1  0.6140348E-006  0.4977252E+02  0.7818608E-02  0.1498340E+00
          2   -1    0    0  502    0  0.00000000000E+00  0.00000000000E+00  0.38643464648E+03  0.38643464648E+03  0.00000000000E+00 0. -1.
          1   -1    0    0  501    0 -0.00000000000E+00 -0.00000000000E+00 -0.81086190712E+02  0.81086190712E+02  0.00000000000E+00 0. -1.
         25    2    1    2    0    0 -0.29559786715E+01 -0.39783165489E+02  0.77081337368E+02  0.15217449671E+03  0.12499642720E+03 0.  0.
          2    1    1    2  501    0  0.37228630062E+02  0.36922256441E+02 -0.26166010119E+02  0.58599351553E+02  0.00000000000E+00 0. -1.
          1    1    1    2  502    0 -0.34272651390E+02  0.28609090489E+01  0.25443312852E+03  0.25674698892E+03  0.00000000000E+00 0. -1.
         22    1    3    3    0    0 -0.40464030827E+02 -0.46560589264E+01  0.90344853031E+02  0.99102013828E+02  0.00000000000E+00 0.  1.
         22    1    3    3    0    0  0.37508052156E+02 -0.35127106563E+02 -0.13263515663E+02  0.53072482887E+02  0.00000000000E+00 0.  1.
</event>
<event>
 7    1  0.6140348E-006  0.1186844E+03  0.7818608E-02  0.1272795E+00
          2   -1    0    0  502    0  0.00000000000E+00  0.00000000000E+00  0.44664040673E+03  0.44664040673E+03  0.00000000000E+00 0. -1.
          1   -1    0    0  501    0 -0.00000000000E+00 -0.00000000000E+00 -0.35047940909E+03  0.35047940909E+03  0.00000000000E+00 0. -1.
         25    2    1    2    0    0 -0.88994165585E+02  0.65695254710E+02  0.78341223853E+02  0.18438643128E+03  0.12500072274E+03 0.  0.
          2    1    1    2  501    0  0.17496171251E+02 -0.12122054179E+03 -0.27778008115E+03  0.30358245872E+03  0.00000000000E+00 0. -1.
          1    1    1    2  502    0  0.71497994334E+02  0.55525287081E+02  0.29559985493E+03  0.30915092582E+03  0.00000000000E+00 0. -1.
         22    1    3    3    0    0  0.49448626754E+01  0.36408786857E+02  0.77740470409E+02  0.85986232425E+02  0.00000000000E+00 0.  1.
         22    1    3    3    0    0 -0.93939028260E+02  0.29286467853E+02  0.60075344380E+00  0.98400198854E+02  0.00000000000E+00 0.  1.
</event>
<event>
 7    1  0.6140348E-006  0.1338763E+03  0.7818608E-02  0.1379464E+00
          2   -1    0    0  502    0  0.00000000000E+00  0.00000000000E+00  0.61847976947E+03  0.61847976947E+03  0.00000000000E+00 0. -1.
          1   -1    0    0  501    0 -0.00000000000E+00 -0.00000000000E+00 -0.92585276298E+03  0.92585276298E+03  0.00000000000E+00 0. -1.
         25    2    1    2    0    0  0.92347312315E+02 -0.59395445153E+02 -0.46072884788E+02  0.17263672210E+03  0.12499952843E+03 0.  0.
          2    1    1    2  501    0  0.31055133840E+02  0.27477015147E+01 -0.80789074457E+03  0.80849206945E+03  0.00000000000E+00 0. -1.
          1    1    1    2  502    0 -0.12340244615E+03  0.56647743639E+02  0.54659063584E+03  0.56320374090E+03  0.00000000000E+00 0. -1.
         22    1    3    3    0    0  0.76384151361E+02 -0.75102043073E+02  0.14461673609E+02  0.10809253192E+03  0.00000000000E+00 0.  1.
         22    1    3    3    0    0  0.15963160954E+02  0.15706597919E+02 -0.60534558397E+02  0.64544190181E+02  0.00000000000E+00 0.  1.
</event>
<event>
 7    1  0.6140348E-006  0.7195015E+02  0.7818608E-02  0.1371908E+00
          2   -1    0    0  502    0  0.00000000000E+00  0.00000000000E+00  0.22721208182E+02  0.22721208182E+02  0.00000000000E+00 0. -1.
          1   -1    0    0  501    0 -0.00000000000E+00 -0.00000000000E+00 -0.20567595587E+04  0.20567595587E+04  0.00000000000E+00 0. -1.
         25    2    1    2    0    0 -0.45149210646E+02 -0.10384183964E+02 -0.75450637364E+03  0.76619243055E+03  0.12499876104E+03 0.  0.
          2    1    1    2  501    0  0.65399627730E+02 -0.47920073166E+02 -0.12338251394E+04  0.12364861177E+04  0.00000000000E+00 0. -1.
          1    1    1    2  502    0 -0.20250417084E+02  0.58304257130E+02 -0.45706837489E+02  0.76802218619E+02  0.00000000000E+00 0. -1.
         22    1    3    3    0    0 -0.59125936262E+02  0.16331840068E+02 -0.70872344621E+03  0.71137298835E+03  0.00000000000E+00 0.  1.
         22    1    3    3    0    0  0.13976725616E+02 -0.26716024032E+02 -0.45782927429E+02  0.54819442199E+02  0.00000000000E+00 0.  1.
</event>
<event>
 7    1  0.6140348E-006  0.9723309E+02  0.7818608E-02  0.1287915E+00
          2   -1    0    0  502    0  0.00000000000E+00  0.00000000000E+00  0.37032946556E+03  0.37032946556E+03  0.00000000000E+00 0. -1.
          1   -1    0    0  501    0 -0.00000000000E+00 -0.00000000000E+00 -0.13112567938E+04  0.13112567938E+04  0.00000000000E+00 0. -1.
         25    2    1    2    0    0 -0.11739670885E+03 -0.33110123748E+02 -0.13951875253E+03  0.22353613498E+03  0.12499861516E+03 0.  0.
          2    1    1    2  501    0  0.77397946418E+02 -0.56282933643E+02 -0.11203406973E+04  0.11244205125E+04  0.00000000000E+00 0. -1.
          1    1    1    2  502    0  0.39998762430E+02  0.89393057391E+02  0.31893212165E+03  0.33362961189E+03  0.00000000000E+00 0. -1.
         22    1    3    3    0    0 -0.23173561754E+02 -0.60332929896E+02 -0.97183746675E+02  0.11671228304E+03  0.00000000000E+00 0. -1.
         22    1    3    3    0    0 -0.94223147094E+02  0.27222806149E+02 -0.42335005856E+02  0.10682385194E+03  0.00000000000E+00 0. -1.
</event>
<event>
 7    1  0.6140348E-006  0.1385055E+03  0.7818608E-02  0.1284083E+00
          2   -1    0    0  502    0  0.00000000000E+00  0.00000000000E+00  0.40360686969E+03  0.40360686969E+03  0.00000000000E+00 0. -1.
          1   -1    0    0  501    0 -0.00000000000E+00 -0.00000000000E+00 -0.10051970478E+04  0.10051970478E+04  0.00000000000E+00 0. -1.
         25    2    1    2    0    0 -0.86449359739E+02 -0.71557327605E+02 -0.36756221317E+02  0.17196104975E+03  0.12500255954E+03 0.  0.
          2    1    1    2  501    0  0.13933129449E+03  0.26225607846E+02 -0.89156630921E+03  0.90276878316E+03  0.00000000000E+00 0. -1.
          1    1    1    2  502    0 -0.52881934753E+02  0.45331719760E+02  0.32673235244E+03  0.33407408456E+03  0.00000000000E+00 0. -1.
         22    1    3    3    0    0 -0.23239777132E+02  0.36164430487E+02 -0.68151709302E+01  0.43524703656E+02  0.00000000000E+00 0.  1.
         22    1    3    3    0    0 -0.63209582608E+02 -0.10772175809E+03 -0.29941050386E+02  0.12843634609E+03  0.00000000000E+00 0.  1.
</event>
<event>
 7    1  0.6140348E-006  0.2405303E+03  0.7818608E-02  0.1219475E+00
          2   -1    0    0  502    0  0.00000000000E+00  0.00000000000E+00  0.14456548007E+04  0.14456548007E+04  0.00000000000E+00 0. -1.
          1   -1    0    0  501    0 -0.00000000000E+00 -0.00000000000E+00 -0.35358742774E+03  0.35358742774E+03  0.00000000000E+00 0. -1.
         25    2    1    2    0    0 -0.25558307394E+03  0.72033175957E+02  0.15673328816E+03  0.33272120742E+03  0.12500636833E+03 0.  0.
          2    1    1    2  501    0  0.20101825141E+03 -0.12545850303E+03 -0.21121774741E+03  0.31742890575E+03  0.00000000000E+00 0. -1.
          1    1    1    2  502    0  0.54564822526E+02  0.53425327077E+02  0.11465518322E+04  0.11490921153E+04  0.00000000000E+00 0. -1.
         22    1    3    3    0    0 -0.16037751722E+03 -0.11484117968E+02  0.12069451530E+03  0.20104725569E+03  0.00000000000E+00 0.  1.
         22    1    3    3    0    0 -0.95205556720E+02  0.83517293925E+02  0.36038772860E+02  0.13167395173E+03  0.00000000000E+00 0.  1.
</event>
<event>
 7    1  0.6140348E-006  0.1539320E+03  0.7818608E-02  0.1408256E+00
          2   -1    0    0  502    0  0.00000000000E+00  0.00000000000E+00  0.12710786411E+04  0.12710786411E+04  0.00000000000E+00 0. -1.
          1   -1    0    0  501    0 -0.00000000000E+00 -0.00000000000E+00 -0.10264036753E+04  0.10264036753E+04  0.00000000000E+00 0. -1.
         25    2    1    2    0    0  0.14708041475E+03 -0.92756903009E+02 -0.47107245464E+03  0.51746729180E+03  0.12500659623E+03 0.  0.
          2    1    1    2  501    0 -0.13352026828E+02  0.16905049276E+02 -0.52717760841E+03  0.52761755858E+03  0.00000000000E+00 0. -1.
          1    1    1    2  502    0 -0.13372838792E+03  0.75851853734E+02  0.12429250289E+04  0.12523974660E+04  0.00000000000E+00 0. -1.
         22    1    3    3    0    0 -0.13676873791E+01  0.20456405819E+02 -0.99968028856E+02  0.10204872317E+03  0.00000000000E+00 0.  1.
         22    1    3    3    0    0  0.14844810213E+03 -0.11321330883E+03 -0.37110442579E+03  0.41541856863E+03  0.00000000000E+00 0.  1.
</event>
<event>
 7    1  0.6140348E-006  0.8197969E+02  0.7818608E-02  0.1347077E+00
          2   -1    0    0  502    0  0.00000000000E+00  0.00000000000E+00  0.43938861158E+03  0.43938861158E+03  0.00000000000E+00 0. -1.
          1   -1    0    0  501    0 -0.00000000000E+00 -0.00000000000E+00 -0.65176490568E+03  0.65176490568E+03  0.00000000000E+00 0. -1.
         25    2    1    2    0    0  0.14382766095E+03  0.16163859331E+02 -0.35977633688E+03  0.40744296562E+03  0.12499236478E+03 0.  0.
          2    1    1    2  501    0 -0.66235642675E+02  0.82740752572E+01 -0.25991596701E+03  0.26835038772E+03  0.00000000000E+00 0. -1.
          1    1    1    2  502    0 -0.77592018278E+02 -0.24437934589E+02  0.40731600978E+03  0.41536016392E+03  0.00000000000E+00 0. -1.
         22    1    3    3    0    0  0.14073974750E+03  0.40164119635E+02 -0.35326624074E+03  0.38238445298E+03  0.00000000000E+00 0. -1.
         22    1    3    3    0    0  0.30879134501E+01 -0.24000260304E+02 -0.65100961349E+01  0.25058512641E+02  0.00000000000E+00 0. -1.
</event>
<event>
 7    1  0.6140348E-006  0.5862302E+02  0.7818608E-02  0.1479143E+00
          2   -1    0    0  502    0  0.00000000000E+00  0.00000000000E+00  0.38433079170E+02  0.38433079170E+02  0.00000000000E+00 0. -1.
          1   -1    0    0  501    0 -0.00000000000E+00 -0.00000000000E+00 -0.14709037448E+04  0.14709037448E+04  0.00000000000E+00 0. -1.
         25    2    1    2    0    0 -0.56731079677E+02 -0.33364268140E+02 -0.24014200086E+03  0.27861025082E+03  0.12499560589E+03 0.  0.
          2    1    1    2  501    0  0.58680251804E+02  0.35450605709E-01 -0.11957290861E+04  0.11971680836E+04  0.00000000000E+00 0. -1.
          1    1    1    2  502    0 -0.19491721270E+01  0.33328817534E+02  0.34004213481E+01  0.33558489470E+02  0.00000000000E+00 0. -1.
         22    1    3    3    0    0 -0.71752315476E+02  0.27061823154E+02 -0.10715446168E+03  0.13176803750E+03  0.00000000000E+00 0. -1.
         22    1    3    3    0    0  0.15021235799E+02 -0.60426091294E+02 -0.13298753918E+03  0.14684221332E+03  0.00000000000E+00 0. -1.
</event>
<event>
 7    1  0.6140348E-006  0.3364445E+02  0.7818608E-02  0.1616713E+00
          2   -1    0    0  502    0  0.00000000000E+00  0.00000000000E+00  0.10844417380E+03  0.10844417380E+03  0.00000000000E+00 0. -1.
          1   -1    0    0  501    0 -0.00000000000E+00 -0.00000000000E+00 -0.54866071482E+03  0.54866071482E+03  0.00000000000E+00 0. -1.
         25    2    1    2    0    0 -0.30970438141E+02  0.48295994348E+02 -0.36905231447E+01  0.13758333963E+03  0.12499553701E+03 0.  0.
          2    1    1    2  501    0  0.17815929897E+02 -0.28293797652E+02 -0.47393231561E+03  0.47511028838E+03  0.00000000000E+00 0. -1.
          1    1    1    2  502    0  0.13154508244E+02 -0.20002196696E+02  0.37406297730E+02  0.44411260617E+02  0.00000000000E+00 0. -1.
         22    1    3    3    0    0 -0.41657941503E+02  0.87078621958E+02  0.40588733978E+01  0.96615448793E+02  0.00000000000E+00 0.  1.
         22    1    3    3    0    0  0.10687503362E+02 -0.38782627610E+02 -0.77493965425E+01  0.40967890832E+02  0.00000000000E+00 0.  1.
</event>
<event>
 7    1  0.6140348E-006  0.1226348E+03  0.7818608E-02  0.1438835E+00
          2   -1    0    0  502    0  0.00000000000E+00  0.00000000000E+00  0.14556884704E+04  0.14556884704E+04  0.00000000000E+00 0. -1.
          1   -1    0    0  501    0 -0.00000000000E+00 -0.00000000000E+00 -0.27518216987E+02  0.27518216987E+02  0.00000000000E+00 0. -1.
         25    2    1    2    0    0 -0.12669831806E+03  0.51047747730E+02  0.82230760192E+03  0.84289430909E+03  0.12499075076E+03 0.  0.
          2    1    1    2  501    0  0.10570511192E+03 -0.55191615563E+02  0.19280775550E+03  0.22670358553E+03  0.00000000000E+00 0. -1.
          1    1    1    2  502    0  0.20993206142E+02  0.41438678329E+01  0.41305489601E+03  0.41360879278E+03  0.00000000000E+00 0. -1.
         22    1    3    3    0    0 -0.12182878573E+03 -0.11534779561E+02  0.54028092901E+03  0.55396641272E+03  0.00000000000E+00 0. -1.
         22    1    3    3    0    0 -0.48695323230E+01  0.62582527291E+02  0.28202667292E+03  0.28892789637E+03  0.00000000000E+00 0. -1.
</event>
<event>
 7    1  0.6140348E-006  0.4475687E+02  0.7818608E-02  0.1569103E+00
          2   -1    0    0  502    0  0.00000000000E+00  0.00000000000E+00  0.63126649276E+03  0.63126649276E+03  0.00000000000E+00 0. -1.
          1   -1    0    0  501    0 -0.00000000000E+00 -0.00000000000E+00 -0.13451510855E+03  0.13451510855E+03  0.00000000000E+00 0. -1.
         25    2    1    2    0    0 -0.25119930836E+02  0.45346449676E+01  0.33007020941E+03  0.35386863530E+03  0.12500037592E+03 0.  0.
          2    1    1    2  501    0 -0.22916058906E+02 -0.72307564551E+01 -0.11941036283E+03  0.12180420496E+03  0.00000000000E+00 0. -1.
          1    1    1    2  502    0  0.48035989742E+02  0.26961114875E+01  0.28609153763E+03  0.29010876104E+03  0.00000000000E+00 0. -1.
         22    1    3    3    0    0 -0.29827467316E+02 -0.53181028646E+02  0.23292589288E+03  0.24077452354E+03  0.00000000000E+00 0. -1.
         22    1    3    3    0    0  0.47075364796E+01  0.57715673613E+02  0.97144316534E+02  0.11309411176E+03  0.00000000000E+00 0. -1.
</event>
<event>
 7    1  0.6140348E-006  0.7110468E+02  0.7818608E-02  0.1410227E+00
          2   -1    0    0  502    0  0.00000000000E+00  0.00000000000E+00  0.11811032864E+04  0.11811032864E+04  0.00000000000E+00 0. -1.
          1   -1    0    0  501    0 -0.00000000000E+00 -0.00000000000E+00 -0.34138405107E+02  0.34138405107E+02  0.00000000000E+00 0. -1.
         25    2    1    2    0    0  0.45232092110E+02  0.47257569600E+02  0.18399904470E+03  0.23186379688E+03  0.12500380720E+03 0.  0.
          2    1    1    2  501    0 -0.13590659051E+02 -0.80540310263E+02  0.16517799799E+03  0.18426941854E+03  0.00000000000E+00 0. -1.
          1    1    1    2  502    0 -0.31641433059E+02  0.33282740663E+02  0.79778783858E+03  0.79910847605E+03  0.00000000000E+00 0. -1.
         22    1    3    3    0    0  0.64213783535E+02  0.78581523154E+02  0.15443940479E+03  0.18479717403E+03  0.00000000000E+00 0.  1.
         22    1    3    3    0    0 -0.18981691426E+02 -0.31323953554E+02  0.29559639909E+02  0.47066622857E+02  0.00000000000E+00 0.  1.
</event>
<event>
 7    1  0.9344440E-006  0.1207431E+03  0.7818608E-02  0.1430090E+00
          2   -1    0    0  502    0  0.00000000000E+00  0.00000000000E+00  0.12825151377E+04  0.12825151377E+04  0.00000000000E+00 0. -1.
          1   -1    0    0  501    0 -0.00000000000E+00 -0.00000000000E+00 -0.17886183820E+04  0.17886183820E+04  0.00000000000E+00 0. -1.
         25    2    1    2    0    0 -0.13034390388E+03 -0.54912408715E+02 -0.10219830849E+04  0.10392689036E+04  0.12500208909E+03 0.  0.
          2    1    1    2  501    0  0.23204400504E+02 -0.64361999909E+00 -0.75495511043E+03  0.75531190723E+03  0.00000000000E+00 0. -1.
          1    1    1    2  502    0  0.10713950338E+03  0.55556028714E+02  0.12708349511E+04  0.12765527088E+04  0.00000000000E+00 0. -1.
         22    1    3    3    0    0 -0.24348676734E+02 -0.73658518096E+02 -0.33223206506E+03  0.34116943063E+03  0.00000000000E+00 0. -1.
         22    1    3    3    0    0 -0.10599522715E+03  0.18746109381E+02 -0.68975101985E+03  0.69809947298E+03  0.00000000000E+00 0. -1.
</event>
<event>
 7    1  0.6140348E-006  0.4657914E+02  0.7818608E-02  0.1510972E+00
          2   -1    0    0  502    0  0.00000000000E+00  0.00000000000E+00  0.65822174326E+03  0.65822174326E+03  0.00000000000E+00 0. -1.
          1   -1    0    0  501    0 -0.00000000000E+00 -0.00000000000E+00 -0.61088447166E+02  0.61088447166E+02  0.00000000000E+00 0. -1.
         25    2    1    2    0    0 -0.11842418246E+02 -0.28998081629E+02  0.17921126880E+03  0.22073396547E+03  0.12500269213E+03 0.  0.
          2    1    1    2  501    0  0.29928704446E+02 -0.15519046927E+02 -0.31770252246E+02  0.46324044460E+02  0.00000000000E+00 0. -1.
          1    1    1    2  502    0 -0.18086286200E+02  0.44517128557E+02  0.44969227954E+03  0.45225218050E+03  0.00000000000E+00 0. -1.
         22    1    3    3    0    0 -0.53472122694E+01 -0.45736884076E+02  0.58190538938E+01  0.46414616580E+02  0.00000000000E+00 0. -1.
         22    1    3    3    0    0 -0.64952059765E+01  0.16738802447E+02  0.17339221490E+03  0.17431934889E+03  0.00000000000E+00 0. -1.
</event>
<event>
 7    1  0.6140348E-006  0.5745682E+02  0.7818608E-02  0.1516568E+00
          2   -1    0    0  502    0  0.00000000000E+00  0.00000000000E+00  0.28531117541E+03  0.28531117541E+03  0.00000000000E+00 0. -1.
          1   -1    0    0  501    0 -0.00000000000E+00 -0.00000000000E+00 -0.17402531357E+04  0.17402531357E+04  0.00000000000E+00 0. -1.
         25    2    1    2    0    0  0.29118092593E+02  0.32067004798E+02 -0.13026619818E+04  0.13093623810E+04  0.12500179925E+03 0.  0.
          2    1    1    2  501    0 -0.41899642582E+02 -0.55073236318E+02 -0.43085989430E+03  0.43638158751E+03  0.00000000000E+00 0. -1.
          1    1    1    2  502    0  0.12781549990E+02  0.23006231520E+02  0.27857991575E+03  0.27982034266E+03  0.00000000000E+00 0. -1.
         22    1    3    3    0    0  0.72607687450E+00  0.57600003069E+02 -0.11672251864E+04  0.11686457647E+04  0.00000000000E+00 0.  1.
         22    1    3    3    0    0  0.28392015718E+02 -0.25532998271E+02 -0.13543679537E+03  0.14071661628E+03  0.00000000000E+00 0.  1.
</event>
<event>
 7    1  0.6140348E-006  0.2247806E+03  0.7818608E-02  0.1210991E+00
          2   -1    0    0  502    0  0.00000000000E+00  0.00000000000E+00  0.60338038378E+03  0.60338038378E+03  0.00000000000E+00 0. -1.
          1   -1    0    0  501    0 -0.00000000000E+00 -0.00000000000E+00 -0.24912300052E+03  0.24912300052E+03  0.00000000000E+00 0. -1.
         25    2    1    2    0    0  0.27567562855E+03 -0.26367218862E+02  0.10522000327E+03  0.32154210164E+03  0.12500316650E+03 0.  0.
          2    1    1    2  501    0 -0.66311680765E+02  0.59947339231E+02 -0.92703720584E+02  0.12878238349E+03  0.00000000000E+00 0. -1.
          1    1    1    2  502    0 -0.20936394778E+03 -0.33580120369E+02  0.34174110057E+03  0.40217889916E+03  0.00000000000E+00 0. -1.
         22    1    3    3    0    0  0.14671787886E+03  0.23100293754E+02  0.10759378982E+03  0.18340169889E+03  0.00000000000E+00 0. -1.
         22    1    3    3    0    0  0.12895774969E+03 -0.49467512616E+02 -0.23737865525E+01  0.13814040275E+03  0.00000000000E+00 0. -1.
</event>
<event>
 7    1  0.6140348E-006  0.9298458E+02  0.7818608E-02  0.1393111E+00
          2   -1    0    0  502    0  0.00000000000E+00  0.00000000000E+00  0.66668915658E+03  0.66668915658E+03  0.00000000000E+00 0. -1.
          1   -1    0    0  501    0 -0.00000000000E+00 -0.00000000000E+00 -0.74243959285E+03  0.74243959285E+03  0.00000000000E+00 0. -1.
         25    2    1    2    0    0 -0.38242955259E+02 -0.63066472128E+02 -0.27985155230E+03  0.31524900214E+03  0.12500055396E+03 0.  0.
          2    1    1    2  501    0  0.78440084618E+02  0.62537775365E+02 -0.43859806328E+03  0.44992452849E+03  0.00000000000E+00 0. -1.
          1    1    1    2  502    0 -0.40197129359E+02  0.52869676389E+00  0.64269917932E+03  0.64395521880E+03  0.00000000000E+00 0. -1.
         22    1    3    3    0    0 -0.11616544329E+02 -0.88240666914E+02 -0.25721454788E+03  0.27217766815E+03  0.00000000000E+00 0.  1.
         22    1    3    3    0    0 -0.26626410930E+02  0.25174194785E+02 -0.22637004416E+02  0.43071333982E+02  0.00000000000E+00 0.  1.
</event>
<event>
 7    1  0.6140348E-006  0.1507570E+03  0.7818608E-02  0.1323698E+00
          2   -1    0    0  502    0  0.00000000000E+00  0.00000000000E+00  0.77049327616E+02  0.77049327616E+02  0.00000000000E+00 0. -1.
          1   -1    0    0  501    0 -0.00000000000E+00 -0.00000000000E+00 -0.27015936183E+04  0.27015936183E+04  0.00000000000E+00 0. -1.
         25    2    1    2    0    0 -0.83723857428E+02 -0.10942077178E+03 -0.73590079904E+03  0.75905010254E+03  0.12499793017E+03 0.  0.
          2    1    1    2  501    0 -0.40000723803E+02  0.19524189026E+02 -0.18641825114E+04  0.18647138353E+04  0.00000000000E+00 0. -1.
          1    1    1    2  502    0  0.12372458123E+03  0.89896582754E+02 -0.24460980300E+02  0.15487900810E+03  0.00000000000E+00 0. -1.
         22    1    3    3    0    0 -0.10619405418E+03 -0.40975827995E+02 -0.43493199259E+03  0.44957984140E+03  0.00000000000E+00 0. -1.
         22    1    3    3    0    0  0.22470196753E+02 -0.68444943785E+02 -0.30096880645E+03  0.30947026114E+03  0.00000000000E+00 0. -1.
</event>
<event>
 7    1  0.6140348E-006  0.8586280E+02  0.7818608E-02  0.1417173E+00
          2   -1    0    0  502    0  0.00000000000E+00  0.00000000000E+00  0.18200856620E+04  0.18200856620E+04  0.00000000000E+00 0. -1.
          1   -1    0    0  501    0 -0.00000000000E+00 -0.00000000000E+00 -0.94106750106E+03  0.94106750106E+03  0.00000000000E+00 0. -1.
         25    2    1    2    0    0 -0.32051767837E+02 -0.39590446950E+02  0.59693577202E+03  0.61200523801E+03  0.12499350435E+03 0.  0.
          2    1    1    2  501    0  0.62132581598E+02  0.59429398476E+02 -0.93128507129E+03  0.93524552665E+03  0.00000000000E+00 0. -1.
          1    1    1    2  502    0 -0.30080813760E+02 -0.19838951526E+02  0.12133674602E+04  0.12139023984E+04  0.00000000000E+00 0. -1.
         22    1    3    3    0    0 -0.30987590956E+02 -0.83418338722E+02  0.44792973699E+03  0.45668358774E+03  0.00000000000E+00 0.  1.
         22    1    3    3    0    0 -0.10641768814E+01  0.43827891772E+02  0.14900603503E+03  0.15532165027E+03  0.00000000000E+00 0.  1.
</event>
<event>
 7    1  0.6140348E-006  0.7171239E+02  0.7818608E-02  0.1372831E+00
          2   -1    0    0  502    0  0.00000000000E+00  0.00000000000E+00  0.14695443047E+04  0.14695443047E+04  0.00000000000E+00 0. -1.
          1   -1    0    0  501    0 -0.00000000000E+00 -0.00000000000E+00 -0.23201831653E+04  0.23201831653E+04  0.00000000000E+00 0. -1.
         25    2    1    2    0    0  0.10380660001E+03 -0.20008717468E+02  0.10179544819E+03  0.19278003642E+03  0.12500268073E+03 0.  0.
          2    1    1    2  501    0 -0.38214022962E+02  0.48130569294E+02 -0.22733123168E+04  0.22741428611E+04  0.00000000000E+00 0. -1.
          1    1    1    2  502    0 -0.65592577045E+02 -0.28121851826E+02  0.13208780080E+04  0.13228045724E+04  0.00000000000E+00 0. -1.
         22    1    3    3    0    0  0.17145697540E+02  0.18100938768E+02  0.94607144100E+02  0.97837266127E+02  0.00000000000E+00 0. -1.
         22    1    3    3    0    0  0.86660902467E+02 -0.38109656237E+02  0.71883040918E+01  0.94942770291E+02  0.00000000000E+00 0. -1.
</event>
<event>
 7    1  0.6140348E-006  0.1192592E+03  0.7818608E-02  0.1258587E+00
          2   -1    0    0  502    0  0.00000000000E+00  0.00000000000E+00  0.23691580458E+04  0.23691580458E+04  0.00000000000E+00 0. -1.
          1   -1    0    0  501    0 -0.00000000000E+00 -0.00000000000E+00 -0.45977421215E+03  0.45977421215E+03  0.00000000000E+00 0. -1.
         25    2    1    2    0    0 -0.13637794198E+03  0.37678106072E+00  0.99353747258E+01  0.18526287404E+03  0.12499814321E+03 0.  0.
          2    1    1    2  501    0  0.55122609203E+02  0.87550014099E+02 -0.36330613476E+03  0.37774972478E+03  0.00000000000E+00 0. -1.
          1    1    1    2  502    0  0.81255332776E+02 -0.87926795159E+02  0.22627545937E+04  0.22659196591E+04  0.00000000000E+00 0. -1.
         22    1    3    3    0    0 -0.97510546502E+02  0.57520194192E+02  0.21379849711E+02  0.11521274839E+03  0.00000000000E+00 0.  1.
         22    1    3    3    0    0 -0.38867395478E+02 -0.57143413131E+02 -0.11444474985E+02  0.70050125647E+02  0.00000000000E+00 0.  1.
</event>
<event>
 7    1  0.6140348E-006  0.9491916E+02  0.7818608E-02  0.1451583E+00
          2   -1    0    0  502    0  0.00000000000E+00  0.00000000000E+00  0.46720301871E+03  0.46720301871E+03  0.00000000000E+00 0. -1.
          1   -1    0    0  501    0 -0.00000000000E+00 -0.00000000000E+00 -0.35874637008E+03  0.35874637008E+03  0.00000000000E+00 0. -1.
         25    2    1    2    0    0  0.56062899393E+02  0.83585297602E+02  0.23582441835E+03  0.28525127082E+03  0.12500232218E+03 0.  0.
          2    1    1    2  501    0  0.13462780763E+02 -0.21245566837E+02 -0.32297044032E+03  0.32394833832E+03  0.00000000000E+00 0. -1.
          1    1    1    2  502    0 -0.69525680156E+02 -0.62339730765E+02  0.19560267060E+03  0.21674977965E+03  0.00000000000E+00 0. -1.
         22    1    3    3    0    0  0.78732680820E+02  0.96451149572E+02  0.22474527541E+03  0.25692819639E+03  0.00000000000E+00 0. -1.
         22    1    3    3    0    0 -0.22669781427E+02 -0.12865851970E+02  0.11079142945E+02  0.28323074432E+02  0.00000000000E+00 0. -1.
</event>
<event>
 7    1  0.6140348E-006  0.5636335E+02  0.7818608E-02  0.1419863E+00
          2   -1    0    0  502    0  0.00000000000E+00  0.00000000000E+00  0.15831069921E+04  0.15831069921E+04  0.00000000000E+00 0. -1.
          1   -1    0    0  501    0 -0.00000000000E+00 -0.00000000000E+00 -0.37573992800E+02  0.37573992800E+02  0.00000000000E+00 0. -1.
         25    2    1    2    0    0  0.56937315574E+01  0.84105872626E+01  0.15645430525E+03  0.20050216897E+03  0.12498005271E+03 0.  0.
          2    1    1    2  501    0  0.51798850396E+02 -0.14413973338E+02  0.33459814781E+02  0.63328056460E+02  0.00000000000E+00 0. -1.
          1    1    1    2  502    0 -0.57492581953E+02  0.60033860759E+01  0.13556188792E+04  0.13568507594E+04  0.00000000000E+00 0. -1.
         22    1    3    3    0    0 -0.34654784324E+02 -0.21503367727E+01  0.15492310637E+03  0.15876632802E+03  0.00000000000E+00 0.  1.
         22    1    3    3    0    0  0.40348515881E+02  0.10560924035E+02  0.15311988757E+01  0.41735840956E+02  0.00000000000E+00 0.  1.
</event>
<event>
 7    1  0.6140348E-006  0.2788942E+02  0.7818608E-02  0.1681117E+00
          2   -1    0    0  502    0  0.00000000000E+00  0.00000000000E+00  0.24203472187E+03  0.24203472187E+03  0.00000000000E+00 0. -1.
          1   -1    0    0  501    0 -0.00000000000E+00 -0.00000000000E+00 -0.13459989117E+04  0.13459989117E+04  0.00000000000E+00 0. -1.
         25    2    1    2    0    0 -0.16463444739E+02  0.17522665724E+02 -0.27675878391E+03  0.30462820699E+03  0.12499932480E+03 0.  0.
          2    1    1    2  501    0  0.17162640459E+02  0.10389666067E+02 -0.10543551938E+04  0.10545460521E+04  0.00000000000E+00 0. -1.
          1    1    1    2  502    0 -0.69919572011E+00 -0.27912331791E+02  0.22714978788E+03  0.22885937445E+03  0.00000000000E+00 0. -1.
         22    1    3    3    0    0  0.36430682148E+02  0.51588791810E+02 -0.11759734269E+03  0.13348308151E+03  0.00000000000E+00 0.  1.
         22    1    3    3    0    0 -0.52894126887E+02 -0.34066126086E+02 -0.15916144122E+03  0.17114512548E+03  0.00000000000E+00 0.  1.
</event>
<event>
 7    1  0.6140348E-006  0.1361689E+03  0.7818608E-02  0.1396678E+00
          2   -1    0    0  502    0  0.00000000000E+00  0.00000000000E+00  0.46137389844E+03  0.46137389844E+03  0.00000000000E+00 0. -1.
          1   -1    0    0  501    0 -0.00000000000E+00 -0.00000000000E+00 -0.12716814054E+04  0.12716814054E+04  0.00000000000E+00 0. -1.
         25    2    1    2    0    0  0.11626674913E+03  0.35202626184E+02 -0.11543958737E+03  0.20905972860E+03  0.12498995938E+03 0.  0.
          2    1    1    2  501    0  0.19928121033E+02 -0.17741499008E+02 -0.10978954798E+04  0.10982196390E+04  0.00000000000E+00 0. -1.
          1    1    1    2  502    0 -0.13619487017E+03 -0.17461127176E+02  0.40302756022E+03  0.42577593629E+03  0.00000000000E+00 0. -1.
         22    1    3    3    0    0  0.84153413343E+02 -0.35010432436E+02 -0.89155639754E+02  0.12750002140E+03  0.00000000000E+00 0.  1.
         22    1    3    3    0    0  0.32113335789E+02  0.70213058620E+02 -0.26283947613E+02  0.81559707199E+02  0.00000000000E+00 0.  1.
</event>
<event>
 7    1  0.6140348E-006  0.6730906E+02  0.7818608E-02  0.1465149E+00
          2   -1    0    0  502    0  0.00000000000E+00  0.00000000000E+00  0.14071136715E+03  0.14071136715E+03  0.00000000000E+00 0. -1.
          1   -1    0    0  501    0 -0.00000000000E+00 -0.00000000000E+00 -0.56737561796E+03  0.56737561796E+03  0.00000000000E+00 0. -1.
         25    2    1    2    0    0  0.51617405499E+02 -0.61098384071E+02 -0.23411695571E+02  0.15023375110E+03  0.12499881357E+03 0.  0.
          2    1    1    2  501    0 -0.59951951586E+02  0.30064715315E+02 -0.47475147832E+03  0.47946542083E+03  0.00000000000E+00 0. -1.
          1    1    1    2  502    0  0.83345460876E+01  0.31033668756E+02  0.71498923078E+02  0.78387813187E+02  0.00000000000E+00 0. -1.
         22    1    3    3    0    0  0.56620498945E+02 -0.95928475921E+02 -0.27704100894E+02  0.11478532397E+03  0.00000000000E+00 0.  1.
         22    1    3    3    0    0 -0.50030934459E+01  0.34830091850E+02  0.42924053228E+01  0.35448427127E+02  0.00000000000E+00 0.  1.
</event>
<event>
 7    1  0.6140348E-006  0.6005629E+02  0.7818608E-02  0.1417202E+00
          2   -1    0    0  502    0  0.00000000000E+00  0.00000000000E+00  0.19936332289E+03  0.19936332289E+03  0.00000000000E+00 0. -1.
          1   -1    0    0  501    0 -0.00000000000E+00 -0.00000000000E+00 -0.16124120142E+03  0.16124120142E+03  0.00000000000E+00 0. -1.
         25    2    1    2    0    0 -0.23662264998E+02  0.12226524887E+02  0.60364341108E+02  0.14134321959E+03  0.12499864540E+03 0.  0.
          2    1    1    2  501    0 -0.16614536230E+02  0.48753124155E+02 -0.10004092744E+03  0.11252154057E+03  0.00000000000E+00 0. -1.
          1    1    1    2  502    0  0.40276801228E+02 -0.60979649042E+02  0.77798707801E+02  0.10673976415E+03  0.00000000000E+00 0. -1.
         22    1    3    3    0    0 -0.71914290658E+02  0.21551754679E+02  0.52410801826E+02  0.91558918073E+02  0.00000000000E+00 0.  1.
         22    1    3    3    0    0  0.48252025660E+02 -0.93252297919E+01  0.79535392824E+01  0.49784301522E+02  0.00000000000E+00 0.  1.
</event>
<event>
 7    1  0.6140348E-006  0.2277403E+03  0.7818608E-02  0.1163901E+00
          2   -1    0    0  502    0  0.00000000000E+00  0.00000000000E+00  0.76633951140E+03  0.76633951140E+03  0.00000000000E+00 0. -1.
          1   -1    0    0  501    0 -0.00000000000E+00 -0.00000000000E+00 -0.39608979523E+03  0.39608979523E+03  0.00000000000E+00 0. -1.
         25    2    1    2    0    0 -0.32128204266E+03  0.15619005061E+03  0.18852410085E+03  0.42282645501E+03  0.12499356628E+03 0.  0.
          2    1    1    2  501    0  0.18060778916E+03 -0.10766208406E+03 -0.22413479784E+03  0.30732182717E+03  0.00000000000E+00 0. -1.
          1    1    1    2  502    0  0.14067425350E+03 -0.48527966544E+02  0.40586041316E+03  0.43228102445E+03  0.00000000000E+00 0. -1.
         22    1    3    3    0    0 -0.39518296291E+02  0.72448878158E+02  0.23875792211E+02  0.85910355265E+02  0.00000000000E+00 0.  1.
         22    1    3    3    0    0 -0.28176374636E+03  0.83741172450E+02  0.16464830864E+03  0.33691609974E+03  0.00000000000E+00 0.  1.
</event>
<event>
 7    1  0.6140348E-006  0.1042522E+03  0.7818608E-02  0.1291165E+00
          2   -1    0    0  502    0  0.00000000000E+00  0.00000000000E+00  0.20168190645E+04  0.20168190645E+04  0.00000000000E+00 0. -1.
          1   -1    0    0  501    0 -0.00000000000E+00 -0.00000000000E+00 -0.52592562618E+03  0.52592562618E+03  0.00000000000E+00 0. -1.
         25    2    1    2    0    0  0.58916999664E+02 -0.21113806033E+02  0.71858792726E+01  0.13998082719E+03  0.12500395780E+03 0.  0.
          2    1    1    2  501    0 -0.35008946569E+02  0.10432500134E+03 -0.45195871509E+03  0.46516235057E+03  0.00000000000E+00 0. -1.
          1    1    1    2  502    0 -0.23908053095E+02 -0.83211195310E+02  0.19356662741E+04  0.19376015129E+04  0.00000000000E+00 0. -1.
         22    1    3    3    0    0  0.94375213812E+02 -0.36442009669E+02  0.52567584023E+01  0.10130318139E+03  0.00000000000E+00 0. -1.
         22    1    3    3    0    0 -0.35458214148E+02  0.15328203636E+02  0.19291208703E+01  0.38677645800E+02  0.00000000000E+00 0. -1.
</event>
<event>
 7    1  0.6140348E-006  0.4149393E+02  0.7818608E-02  0.1560668E+00
          2   -1    0    0  502    0  0.00000000000E+00  0.00000000000E+00  0.61560324619E+02  0.61560324619E+02  0.00000000000E+00 0. -1.
          1   -1    0    0  501    0 -0.00000000000E+00 -0.00000000000E+00 -0.11243147072E+04  0.11243147072E+04  0.00000000000E+00 0. -1.
         25    2    1    2    0    0 -0.28286252845E+02 -0.37824359151E+02 -0.69070765621E+02  0.15043483761E+03  0.12501630077E+03 0.  0.
          2    1    1    2  501    0  0.27050545736E+02 -0.39227925353E+01 -0.99329695857E+03  0.99367296845E+03  0.00000000000E+00 0. -1.
          1    1    1    2  502    0  0.12357071090E+01  0.41747151687E+02 -0.38665842482E+00  0.41767225797E+02  0.00000000000E+00 0. -1.
         22    1    3    3    0    0 -0.40654039261E+02  0.38210002365E+02 -0.20890352816E+02  0.59574843934E+02  0.00000000000E+00 0.  1.
         22    1    3    3    0    0  0.12367786416E+02 -0.76034361517E+02 -0.48180412805E+02  0.90859993672E+02  0.00000000000E+00 0.  1.
</event>
<event>
 7    1  0.6140348E-006  0.1266257E+03  0.7818608E-02  0.1302113E+00
          2   -1    0    0  502    0  0.00000000000E+00  0.00000000000E+00  0.99800938892E+02  0.99800938892E+02  0.00000000000E+00 0. -1.
          1   -1    0    0  501    0 -0.00000000000E+00 -0.00000000000E+00 -0.69745978565E+03  0.69745978565E+03  0.00000000000E+00 0. -1.
         25    2    1    2    0    0  0.10445793999E+03 -0.60173869679E+02 -0.28195803032E+03  0.33114478198E+03  0.12499671975E+03 0.  0.
          2    1    1    2  501    0 -0.38025885459E+02 -0.51979281288E+02 -0.32885515672E+03  0.33510226462E+03  0.00000000000E+00 0. -1.
          1    1    1    2  502    0 -0.66432054529E+02  0.11215315097E+03  0.13154340291E+02  0.13101367795E+03  0.00000000000E+00 0. -1.
         22    1    3    3    0    0  0.50815743253E+00 -0.39022952167E+02 -0.11589863543E+02  0.40710857971E+02  0.00000000000E+00 0. -1.
         22    1    3    3    0    0  0.10394978255E+03 -0.21150917512E+02 -0.27036816678E+03  0.29043392401E+03  0.00000000000E+00 0. -1.
</event>
<event>
 7    1  0.6140348E-006  0.6868760E+02  0.7818608E-02  0.1497329E+00
          2   -1    0    0  502    0  0.00000000000E+00  0.00000000000E+00  0.28800711480E+03  0.28800711480E+03  0.00000000000E+00 0. -1.
          1   -1    0    0  501    0 -0.00000000000E+00 -0.00000000000E+00 -0.23493943264E+03  0.23493943264E+03  0.00000000000E+00 0. -1.
         25    2    1    2    0    0  0.84794633261E+02  0.36435946819E+02  0.81513551648E+02  0.17546390911E+03  0.12500166498E+03 0.  0.
          2    1    1    2  501    0 -0.63451265497E+02 -0.23236124936E+02 -0.18083169716E+03  0.19304425216E+03  0.00000000000E+00 0. -1.
          1    1    1    2  502    0 -0.21343367764E+02 -0.13199821884E+02  0.15238582767E+03  0.15443838616E+03  0.00000000000E+00 0. -1.
         22    1    3    3    0    0  0.11248127196E+03  0.93854859779E+01  0.76681764455E+02  0.13645591555E+03  0.00000000000E+00 0. -1.
         22    1    3    3    0    0 -0.27686638701E+02  0.27050460841E+02  0.48317871932E+01  0.39007993562E+02  0.00000000000E+00 0. -1.
</event>
<event>
 7    1  0.6140348E-006  0.1483799E+03  0.7818608E-02  0.1250496E+00
          2   -1    0    0  502    0  0.00000000000E+00  0.00000000000E+00  0.62558149033E+03  0.62558149033E+03  0.00000000000E+00 0. -1.
          1   -1    0    0  501    0 -0.00000000000E+00 -0.00000000000E+00 -0.92334690900E+03  0.92334690900E+03  0.00000000000E+00 0. -1.
         25    2    1    2    0    0  0.17754509047E+03 -0.15485249840E+03  0.25985839423E+03  0.37236240408E+03  0.12500327800E+03 0.  0.
          2    1    1    2  501    0 -0.11772970921E+03  0.87473474797E+02 -0.85415137449E+03  0.86665244692E+03  0.00000000000E+00 0. -1.
          1    1    1    2  502    0 -0.59815381257E+02  0.67379023604E+02  0.29652756159E+03  0.30991354833E+03  0.00000000000E+00 0. -1.
         22    1    3    3    0    0  0.16770991953E+03 -0.10304614295E+03  0.25086314814E+03  0.31886900724E+03  0.00000000000E+00 0.  1.
         22    1    3    3    0    0  0.98351709371E+01 -0.51806355454E+02  0.89952460886E+01  0.53493396836E+02  0.00000000000E+00 0.  1.
</event>
<event>
 7    1  0.6140348E-006  0.1158106E+03  0.7818608E-02  0.1323122E+00
          2   -1    0    0  502    0  0.00000000000E+00  0.00000000000E+00  0.37984279086E+04  0.37984279086E+04  0.00000000000E+00 0. -1.
          1   -1    0    0  501    0 -0.00000000000E+00 -0.00000000000E+00 -0.15969064054E+04  0.15969064054E+04  0.00000000000E+00 0. -1.
         25    2    1    2    0    0 -0.72433868175E+02 -0.12353692195E+03  0.22614446576E+02  0.19142468317E+03  0.12499583909E+03 0.  0.
          2    1    1    2  501    0  0.92652653869E+02  0.68919354493E+02 -0.15100670707E+04  0.15144758003E+04  0.00000000000E+00 0. -1.
          1    1    1    2  502    0 -0.20218785694E+02  0.54617567456E+02  0.36889741273E+04  0.36894338305E+04  0.00000000000E+00 0. -1.
         22    1    3    3    0    0  0.91829288096E+01  0.20272978661E+02  0.13033694320E+02  0.25791413938E+02  0.00000000000E+00 0.  1.
         22    1    3    3    0    0 -0.81616796985E+02 -0.14380990061E+03  0.95807522565E+01  0.16563326923E+03  0.00000000000E+00 0.  1.
</event>
<event>
 7    1  0.6140348E-006  0.8789963E+02  0.7818608E-02  0.1366306E+00
          2   -1    0    0  502    0  0.00000000000E+00  0.00000000000E+00  0.14992746277E+04  0.14992746277E+04  0.00000000000E+00 0. -1.
          1   -1    0    0  501    0 -0.00000000000E+00 -0.00000000000E+00 -0.20562606164E+02  0.20562606164E+02  0.00000000000E+00 0. -1.
         25    2    1    2    0    0 -0.61267244120E+02 -0.22008462503E+02  0.74002033739E+03  0.75331940358E+03  0.12498790515E+03 0.  0.
          2    1    1    2  501    0 -0.12769441517E+02 -0.51359364649E+02  0.60575417180E+02  0.80437703475E+02  0.00000000000E+00 0. -1.
          1    1    1    2  502    0  0.74036685637E+02  0.73367827152E+02  0.67811626692E+03  0.68608012676E+03  0.00000000000E+00 0. -1.
         22    1    3    3    0    0  0.98428387345E+01 -0.68546607561E+00  0.28767870936E+00  0.98708711436E+01  0.00000000000E+00 0.  1.
         22    1    3    3    0    0 -0.71110082854E+02 -0.21322996427E+02  0.73973265868E+03  0.74344853244E+03  0.00000000000E+00 0.  1.
</event>
<event>
 7    1  0.6140348E-006  0.3064217E+03  0.7818608E-02  0.1141550E+00
          2   -1    0    0  502    0  0.00000000000E+00  0.00000000000E+00  0.40706131579E+03  0.40706131579E+03  0.00000000000E+00 0. -1.
          1   -1    0    0  501    0 -0.00000000000E+00 -0.00000000000E+00 -0.29308922900E+04  0.29308922900E+04  0.00000000000E+00 0. -1.
         25    2    1    2    0    0 -0.11257321037E+03  0.23367756566E+03 -0.58523108885E+03  0.65222838101E+03  0.12501400424E+03 0.  0.
          2    1    1    2  501    0  0.25449247507E+03 -0.20959631038E+03 -0.22860160756E+04  0.23096680565E+04  0.00000000000E+00 0. -1.
          1    1    1    2  502    0 -0.14191926470E+03 -0.24081255275E+02  0.34741619027E+03  0.37605716827E+03  0.00000000000E+00 0. -1.
         22    1    3    3    0    0  0.23105305207E+00 -0.45359242569E+01 -0.99416949844E+02  0.99520640626E+02  0.00000000000E+00 0.  1.
         22    1    3    3    0    0 -0.11280426342E+03  0.23821348992E+03 -0.48581413901E+03  0.55270774039E+03  0.00000000000E+00 0.  1.
</event>
<event>
 7    1  0.6140348E-006  0.1107767E+03  0.7818608E-02  0.1335533E+00
          2   -1    0    0  502    0  0.00000000000E+00  0.00000000000E+00  0.13934735498E+03  0.13934735498E+03  0.00000000000E+00 0. -1.
          1   -1    0    0  501    0 -0.00000000000E+00 -0.00000000000E+00 -0.97156641789E+03  0.97156641789E+03  0.00000000000E+00 0. -1.
         25    2    1    2    0    0 -0.27083487566E+02  0.10265832078E+03 -0.22601301608E+03  0.27924569041E+03  0.12499610413E+03 0.  0.
          2    1    1    2  501    0 -0.50410938835E+02 -0.20929873136E+02 -0.68945571720E+03  0.69161297582E+03  0.00000000000E+00 0. -1.
          1    1    1    2  502    0  0.77494426401E+02 -0.81728447648E+02  0.83249670368E+02  0.14005510663E+03  0.00000000000E+00 0. -1.
         22    1    3    3    0    0  0.14530210699E+02  0.11810774166E+03 -0.15347839972E+03  0.19420655201E+03  0.00000000000E+00 0.  1.
         22    1    3    3    0    0 -0.41613698265E+02 -0.15449420878E+02 -0.72534616363E+02  0.85039138399E+02  0.00000000000E+00 0.  1.
</event>
<event>
 7    1  0.6140348E-006  0.1016605E+03  0.7818608E-02  0.1308882E+00
          2   -1    0    0  502    0  0.00000000000E+00  0.00000000000E+00  0.15925507513E+03  0.15925507513E+03  0.00000000000E+00 0. -1.
          1   -1    0    0  501    0 -0.00000000000E+00 -0.00000000000E+00 -0.23180083361E+03  0.23180083361E+03  0.00000000000E+00 0. -1.
         25    2    1    2    0    0  0.16193227745E+03  0.22325800899E+01 -0.51775849906E+02  0.21102536069E+03  0.12499566923E+03 0.  0.
          2    1    1    2  501    0 -0.75089942276E+02 -0.69131533464E+01 -0.47410547888E+02  0.89073291010E+02  0.00000000000E+00 0. -1.
          1    1    1    2  502    0 -0.86842335174E+02  0.46805732564E+01  0.26640639319E+02  0.90957257038E+02  0.00000000000E+00 0. -1.
         22    1    3    3    0    0  0.12717695907E+03  0.42475904217E+02 -0.74282753094E+02  0.15328440483E+03  0.00000000000E+00 0.  1.
         22    1    3    3    0    0  0.34755318381E+02 -0.40243324127E+02  0.22506903188E+02  0.57740955861E+02  0.00000000000E+00 0.  1.
</event>
<event>
 7    1  0.6140348E-006  0.2523230E+03  0.7818608E-02  0.1256887E+00
          2   -1    0    0  502    0  0.00000000000E+00  0.00000000000E+00  0.95412587607E+03  0.95412587607E+03  0.00000000000E+00 0. -1.
          1   -1    0    0  501    0 -0.00000000000E+00 -0.00000000000E+00 -0.19103176155E+03  0.19103176155E+03  0.00000000000E+00 0. -1.
         25    2    1    2    0    0 -0.48900373853E+02 -0.25281148283E+03  0.63272835329E+03  0.69446052093E+03  0.12500141459E+03 0.  0.
          2    1    1    2  501    0  0.49301390343E+02  0.64800388823E+01 -0.10110812906E+03  0.11267418407E+03  0.00000000000E+00 0. -1.
          1    1    1    2  502    0 -0.40101649008E+00  0.24633144395E+03  0.23147389030E+03  0.33802293263E+03  0.00000000000E+00 0. -1.
         22    1    3    3    0    0 -0.49323207455E+02 -0.21455708804E+02  0.97100890495E+02  0.11100319441E+03  0.00000000000E+00 0. -1.
         22    1    3    3    0    0  0.42283360286E+00 -0.23135577403E+03  0.53562746280E+03  0.58345732652E+03  0.00000000000E+00 0. -1.
</event>
<event>
 7    1  0.6140348E-006  0.6791951E+02  0.7818608E-02  0.1451796E+00
          2   -1    0    0  502    0  0.00000000000E+00  0.00000000000E+00  0.17949311917E+04  0.17949311917E+04  0.00000000000E+00 0. -1.
          1   -1    0    0  501    0 -0.00000000000E+00 -0.00000000000E+00 -0.46610664891E+03  0.46610664891E+03  0.00000000000E+00 0. -1.
         25    2    1    2    0    0  0.33206751154E+02 -0.31666216166E+01  0.36348109049E+03  0.38581696272E+03  0.12499403889E+03 0.  0.
          2    1    1    2  501    0 -0.68156140491E+02 -0.33517262702E-01 -0.45216761250E+03  0.45727542073E+03  0.00000000000E+00 0. -1.
          1    1    1    2  502    0  0.34949389337E+02  0.32001388793E+01  0.14175110648E+04  0.14179454572E+04  0.00000000000E+00 0. -1.
         22    1    3    3    0    0 -0.29681164715E+02  0.31955967812E+02  0.23040959079E+03  0.23450103400E+03  0.00000000000E+00 0. -1.
         22    1    3    3    0    0  0.62887915870E+02 -0.35122589428E+02  0.13307149970E+03  0.15131592872E+03  0.00000000000E+00 0. -1.
</event>
<event>
 7    1  0.6140348E-006  0.9355093E+02  0.7818608E-02  0.1305403E+00
          2   -1    0    0  502    0  0.00000000000E+00  0.00000000000E+00  0.26285623435E+03  0.26285623435E+03  0.00000000000E+00 0. -1.
          1   -1    0    0  501    0 -0.00000000000E+00 -0.00000000000E+00 -0.64379382268E+03  0.64379382268E+03  0.00000000000E+00 0. -1.
         25    2    1    2    0    0 -0.88165259621E+02 -0.23329886251E+02  0.60883061350E+02  0.16628220177E+03  0.12500250746E+03 0.  0.
          2    1    1    2  501    0  0.43999475812E+01  0.84469379735E+02 -0.56957456091E+03  0.57582081943E+03  0.00000000000E+00 0. -1.
          1    1    1    2  502    0  0.83765312040E+02 -0.61139493484E+02  0.12775391123E+03  0.16454703582E+03  0.00000000000E+00 0. -1.
         22    1    3    3    0    0  0.18025001095E+02 -0.32676669989E+02  0.45070352011E+02  0.58514972925E+02  0.00000000000E+00 0. -1.
         22    1    3    3    0    0 -0.10619026072E+03  0.93467837379E+01  0.15812709338E+02  0.10776722885E+03  0.00000000000E+00 0. -1.
</event>
<event>
 7    1  0.6140348E-006  0.1918601E+03  0.7818608E-02  0.1189776E+00
          2   -1    0    0  502    0  0.00000000000E+00  0.00000000000E+00  0.12282055482E+04  0.12282055482E+04  0.00000000000E+00 0. -1.
          1   -1    0    0  501    0 -0.00000000000E+00 -0.00000000000E+00 -0.13600071549E+04  0.13600071549E+04  0.00000000000E+00 0. -1.
         25    2    1    2    0    0 -0.13140599976E+03  0.82002924926E+01  0.21914383220E+03  0.28457943557E+03  0.12500661737E+03 0.  0.
          2    1    1    2  501    0  0.13507101251E+03 -0.13999704971E+03 -0.13156531498E+04  0.13299573538E+04  0.00000000000E+00 0. -1.
          1    1    1    2  502    0 -0.36650127533E+01  0.13179675722E+03  0.96470771087E+03  0.97367591371E+03  0.00000000000E+00 0. -1.
         22    1    3    3    0    0 -0.12557866483E+03 -0.40852159359E+02  0.15524758286E+03  0.20381538697E+03  0.00000000000E+00 0. -1.
         22    1    3    3    0    0 -0.58273349321E+01  0.49052451851E+02  0.63896249348E+02  0.80764048597E+02  0.00000000000E+00 0. -1.
</event>
<event>
 7    1  0.6140348E-006  0.9527883E+02  0.7818608E-02  0.1308232E+00
          2   -1    0    0  502    0  0.00000000000E+00  0.00000000000E+00  0.28474410542E+03  0.28474410542E+03  0.00000000000E+00 0. -1.
          1   -1    0    0  501    0 -0.00000000000E+00 -0.00000000000E+00 -0.83114251404E+03  0.83114251404E+03  0.00000000000E+00 0. -1.
         25    2    1    2    0    0  0.17138970923E+02  0.11656442485E+03 -0.34559808202E+03  0.38593266817E+03  0.12499992239E+03 0.  0.
          2    1    1    2  501    0 -0.71442382257E+02 -0.38032469041E+02 -0.45305869930E+03  0.46023110249E+03  0.00000000000E+00 0. -1.
          1    1    1    2  502    0  0.54303411334E+02 -0.78531955808E+02  0.25225837271E+03  0.26972284881E+03  0.00000000000E+00 0. -1.
         22    1    3    3    0    0  0.59337832205E+02  0.10463550414E+03 -0.29721160539E+03  0.32063110492E+03  0.00000000000E+00 0. -1.
         22    1    3    3    0    0 -0.42198861282E+02  0.11928920706E+02 -0.48386476627E+02  0.65301563251E+02  0.00000000000E+00 0. -1.
</event>
<event>
 7    1  0.6140348E-006  0.3389314E+02  0.7818608E-02  0.1607383E+00
          2   -1    0    0  502    0  0.00000000000E+00  0.00000000000E+00  0.24675556340E+03  0.24675556340E+03  0.00000000000E+00 0. -1.
          1   -1    0    0  501    0 -0.00000000000E+00 -0.00000000000E+00 -0.49567013817E+03  0.49567013817E+03  0.00000000000E+00 0. -1.
         25    2    1    2    0    0  0.90833095049E+01 -0.38528846218E+01 -0.89437509843E+02  0.15401771627E+03  0.12500015011E+03 0.  0.
          2    1    1    2  501    0 -0.27066356926E+02  0.21384710584E+02 -0.37240743954E+03  0.37400159699E+03  0.00000000000E+00 0. -1.
          1    1    1    2  502    0  0.17983047421E+02 -0.17531825962E+02  0.21293037462E+03  0.21440638831E+03  0.00000000000E+00 0. -1.
         22    1    3    3    0    0 -0.65385364215E+01  0.17291892097E+02 -0.11551697180E+03  0.11698689143E+03  0.00000000000E+00 0. -1.
         22    1    3    3    0    0  0.15621845926E+02 -0.21144776718E+02  0.26079461961E+02  0.37030824846E+02  0.00000000000E+00 0. -1.
</event>
<event>
 7    1  0.6140348E-006  0.4538822E+02  0.7818608E-02  0.1545039E+00
          2   -1    0    0  502    0  0.00000000000E+00  0.00000000000E+00  0.11742119891E+04  0.11742119891E+04  0.00000000000E+00 0. -1.
          1   -1    0    0  501    0 -0.00000000000E+00 -0.00000000000E+00 -0.33552102741E+02  0.33552102741E+02  0.00000000000E+00 0. -1.
         25    2    1    2    0    0 -0.60662367643E+02  0.34402885512E+02  0.25039586953E+03  0.28841898403E+03  0.12499574988E+03 0.  0.
          2    1    1    2  501    0  0.38752663168E+02 -0.17590923803E+02  0.17293266039E+02  0.45937637653E+02  0.00000000000E+00 0. -1.
          1    1    1    2  502    0  0.21909704475E+02 -0.16811961709E+02  0.87297075083E+03  0.87340747021E+03  0.00000000000E+00 0. -1.
         22    1    3    3    0    0 -0.75402418744E+02  0.29400998563E+02  0.68989709497E+02  0.10634624340E+03  0.00000000000E+00 0.  1.
         22    1    3    3    0    0  0.14740051101E+02  0.50018869496E+01  0.18140616004E+03  0.18207274063E+03  0.00000000000E+00 0.  1.
</event>
<event>
 7    1  0.9358467E-006  0.6551765E+02  0.7818608E-02  0.1439780E+00
          2   -1    0    0  502    0  0.00000000000E+00  0.00000000000E+00  0.16854820988E+04  0.16854820988E+04  0.00000000000E+00 0. -1.
          1   -1    0    0  501    0 -0.00000000000E+00 -0.00000000000E+00 -0.48170745377E+03  0.48170745377E+03  0.00000000000E+00 0. -1.
         25    2    1    2    0    0  0.73861648229E+01 -0.49321129863E+02 -0.26063305632E+03  0.29332848827E+03  0.12499953081E+03 0.  0.
          2    1    1    2  501    0  0.39609073200E+02  0.35839696576E+01 -0.20214421102E+03  0.20601943008E+03  0.00000000000E+00 0. -1.
          1    1    1    2  502    0 -0.46995238022E+02  0.45737160206E+02  0.16665519124E+04  0.16678416343E+04  0.00000000000E+00 0. -1.
         22    1    3    3    0    0  0.19436556246E+02 -0.43071088831E+02 -0.27172202984E+03  0.27580021739E+03  0.00000000000E+00 0. -1.
         22    1    3    3    0    0 -0.12050391423E+02 -0.62500410320E+01  0.11088973521E+02  0.17528270882E+02  0.00000000000E+00 0. -1.
</event>
<event>
 7    1  0.6140348E-006  0.2290088E+02  0.7818608E-02  0.1711859E+00
          2   -1    0    0  502    0  0.00000000000E+00  0.00000000000E+00  0.18543739548E+04  0.18543739548E+04  0.00000000000E+00 0. -1.
          1   -1    0    0  501    0 -0.00000000000E+00 -0.00000000000E+00 -0.12840664397E+04  0.12840664397E+04  0.00000000000E+00 0. -1.
         25    2    1    2    0    0 -0.16406627600E+02 -0.88712442783E+01  0.11440049560E+04  0.11509656030E+04  0.12500641373E+03 0.  0.
          2    1    1    2  501    0  0.11103591025E+01  0.22875127494E+02 -0.12803315818E+04  0.12805363969E+04  0.00000000000E+00 0. -1.
          1    1    1    2  502    0  0.15296268498E+02 -0.14003883216E+02  0.70663414098E+03  0.70693839461E+03  0.00000000000E+00 0. -1.
         22    1    3    3    0    0 -0.18210063365E+02  0.29941720054E+02  0.95268210293E+02  0.10150933405E+03  0.00000000000E+00 0.  1.
         22    1    3    3    0    0  0.18034357649E+01 -0.38812964333E+02  0.10487367457E+04  0.10494562689E+04  0.00000000000E+00 0.  1.
</event>
<event>
 7    1  0.6140348E-006  0.1007210E+03  0.7818608E-02  0.1441478E+00
          2   -1    0    0  502    0  0.00000000000E+00  0.00000000000E+00  0.41488211874E+03  0.41488211874E+03  0.00000000000E+00 0. -1.
          1   -1    0    0  501    0 -0.00000000000E+00 -0.00000000000E+00 -0.90256928822E+03  0.90256928822E+03  0.00000000000E+00 0. -1.
         25    2    1    2    0    0 -0.24951822946E+02  0.94527879467E+02  0.29631590526E+02  0.16143381135E+03  0.12499892330E+03 0.  0.
          2    1    1    2  501    0  0.24595288183E+02  0.68990159063E+01 -0.82841282084E+03  0.82880656751E+03  0.00000000000E+00 0. -1.
          1    1    1    2  502    0  0.35653476354E+00 -0.10142689537E+03  0.31109406083E+03  0.32721102809E+03  0.00000000000E+00 0. -1.
         22    1    3    3    0    0  0.31196843591E+02  0.82762351064E+02 -0.13750684532E+02  0.89509391288E+02  0.00000000000E+00 0. -1.
         22    1    3    3    0    0 -0.56148666538E+02  0.11765528403E+02  0.43382275058E+02  0.71924420066E+02  0.00000000000E+00 0. -1.
</event>
<event>
 7    1  0.6140348E-006  0.6437709E+02  0.7818608E-02  0.1404501E+00
          2   -1    0    0  502    0  0.00000000000E+00  0.00000000000E+00  0.60631533491E+03  0.60631533491E+03  0.00000000000E+00 0. -1.
          1   -1    0    0  501    0 -0.00000000000E+00 -0.00000000000E+00 -0.12653336745E+03  0.12653336745E+03  0.00000000000E+00 0. -1.
         25    2    1    2    0    0  0.71628302716E+02  0.38667909195E+02  0.12896162466E+03  0.19718032850E+03  0.12499264123E+03 0.  0.
          2    1    1    2  501    0 -0.48498189137E+02  0.21497001965E+02 -0.82224686785E+02  0.97852412131E+02  0.00000000000E+00 0. -1.
          1    1    1    2  502    0 -0.23130113578E+02 -0.60164911160E+02  0.43304502959E+03  0.43781596172E+03  0.00000000000E+00 0. -1.
         22    1    3    3    0    0 -0.31074194258E+02  0.34283323569E+02  0.36814406098E+02  0.59129115671E+02  0.00000000000E+00 0. -1.
         22    1    3    3    0    0  0.10270249697E+03  0.43845856253E+01  0.92147218560E+02  0.13805121283E+03  0.00000000000E+00 0. -1.
</event>
<event>
 7    1  0.6140348E-006  0.5814361E+02  0.7818608E-02  0.1536190E+00
          2   -1    0    0  502    0  0.00000000000E+00  0.00000000000E+00  0.15041780059E+04  0.15041780059E+04  0.00000000000E+00 0. -1.
          1   -1    0    0  501    0 -0.00000000000E+00 -0.00000000000E+00 -0.87120133038E+03  0.87120133038E+03  0.00000000000E+00 0. -1.
         25    2    1    2    0    0 -0.67180147481E+02  0.28755774451E+02 -0.20906637411E+02  0.14629948860E+03  0.12500554426E+03 0.  0.
          2    1    1    2  501    0  0.45484228763E+02 -0.35878704074E+02 -0.78644234724E+03  0.78857318113E+03  0.00000000000E+00 0. -1.
          1    1    1    2  502    0  0.21695918718E+02  0.71229296238E+01  0.14403256602E+04  0.14405066666E+04  0.00000000000E+00 0. -1.
         22    1    3    3    0    0 -0.71015955089E+02  0.64547885266E+02  0.13005300351E+02  0.96844376227E+02  0.00000000000E+00 0. -1.
         22    1    3    3    0    0  0.38358076081E+01 -0.35792110815E+02 -0.33911937762E+02  0.49455112369E+02  0.00000000000E+00 0. -1.
</event>
<event>
 7    1  0.6140348E-006  0.3056856E+02  0.7818608E-02  0.1659308E+00
          2   -1    0    0  502    0  0.00000000000E+00  0.00000000000E+00  0.66008560961E+03  0.66008560961E+03  0.00000000000E+00 0. -1.
          1   -1    0    0  501    0 -0.00000000000E+00 -0.00000000000E+00 -0.17562700296E+02  0.17562700296E+02  0.00000000000E+00 0. -1.
         25    2    1    2    0    0  0.11426658552E+02 -0.12819166982E+01  0.28053764681E+03  0.30734399301E+03  0.12500698750E+03 0.  0.
          2    1    1    2  501    0  0.19984436380E+02  0.51601264979E+01  0.27803379995E+02  0.34627049283E+02  0.00000000000E+00 0. -1.
          1    1    1    2  502    0 -0.31411094933E+02 -0.38782097997E+01  0.33418188251E+03  0.33567726762E+03  0.00000000000E+00 0. -1.
         22    1    3    3    0    0 -0.22539778561E+02  0.45179114178E+02  0.55352999704E+02  0.74920948684E+02  0.00000000000E+00 0. -1.
         22    1    3    3    0    0  0.33966437113E+02 -0.46461030877E+02  0.22518464711E+03  0.23242304433E+03  0.00000000000E+00 0. -1.
</event>
<event>
 7    1  0.6140348E-006  0.8345316E+02  0.7818608E-02  0.1364267E+00
          2   -1    0    0  502    0  0.00000000000E+00  0.00000000000E+00  0.17997724863E+04  0.17997724863E+04  0.00000000000E+00 0. -1.
          1   -1    0    0  501    0 -0.00000000000E+00 -0.00000000000E+00 -0.24953572201E+03  0.24953572201E+03  0.00000000000E+00 0. -1.
         25    2    1    2    0    0 -0.72539558622E+01  0.30301051991E+02  0.11364580868E+03  0.17178889015E+03  0.12500111729E+03 0.  0.
          2    1    1    2  501    0  0.38583696171E+02 -0.77557315826E+02 -0.21144867528E+03  0.22850466325E+03  0.00000000000E+00 0. -1.
          1    1    1    2  502    0 -0.31329740309E+02  0.47256263835E+02  0.16480396308E+04  0.16490146549E+04  0.00000000000E+00 0. -1.
         22    1    3    3    0    0 -0.49628574374E+02  0.43407823821E+02  0.21208564836E+02  0.69260651063E+02  0.00000000000E+00 0.  1.
         22    1    3    3    0    0  0.42374618512E+02 -0.13106771830E+02  0.92437243840E+02  0.10252823909E+03  0.00000000000E+00 0.  1.
</event>
<event>
 7    1  0.6140348E-006  0.4156985E+02  0.7818608E-02  0.1574733E+00
          2   -1    0    0  502    0  0.00000000000E+00  0.00000000000E+00  0.57170805887E+03  0.57170805887E+03  0.00000000000E+00 0. -1.
          1   -1    0    0  501    0 -0.00000000000E+00 -0.00000000000E+00 -0.52353769440E+03  0.52353769440E+03  0.00000000000E+00 0. -1.
         25    2    1    2    0    0 -0.31515153261E+02  0.53672526693E+02  0.80492951020E+00  0.13964825053E+03  0.12500816356E+03 0.  0.
          2    1    1    2  501    0  0.18140298179E+01 -0.24913025157E+02 -0.45291919770E+03  0.45360748359E+03  0.00000000000E+00 0. -1.
          1    1    1    2  502    0  0.29701123443E+02 -0.28759501536E+02  0.50028463265E+03  0.50199001915E+03  0.00000000000E+00 0. -1.
         22    1    3    3    0    0  0.37353259301E+02  0.15922375658E+02  0.35362628617E+02  0.53845181119E+02  0.00000000000E+00 0. -1.
         22    1    3    3    0    0 -0.68868412562E+02  0.37750151035E+02 -0.34557699107E+02  0.85803069406E+02  0.00000000000E+00 0. -1.
</event>
<event>
 7    1  0.6140348E-006  0.5983488E+02  0.7818608E-02  0.1447686E+00
          2   -1    0    0  502    0  0.00000000000E+00  0.00000000000E+00  0.61329726479E+03  0.61329726479E+03  0.00000000000E+00 0. -1.
          1   -1    0    0  501    0 -0.00000000000E+00 -0.00000000000E+00 -0.10527300150E+04  0.10527300150E+04  0.00000000000E+00 0. -1.
         25    2    1    2    0    0  0.10695054011E+02 -0.16074291423E+02  0.19138418599E+03  0.22940168770E+03  0.12499784256E+03 0.  0.
          2    1    1    2  501    0 -0.40812124734E+02  0.43986678500E+02 -0.10318011197E+04  0.10335443910E+04  0.00000000000E+00 0. -1.
          1    1    1    2  502    0  0.30117070723E+02 -0.27912387077E+02  0.40098418350E+03  0.40308120115E+03  0.00000000000E+00 0. -1.
         22    1    3    3    0    0 -0.38006706809E+02 -0.10516862635E+02  0.17237288008E+03  0.17682625357E+03  0.00000000000E+00 0.  1.
         22    1    3    3    0    0  0.48701760821E+02 -0.55574287879E+01  0.19011305910E+02  0.52575434132E+02  0.00000000000E+00 0.  1.
</event>
<event>
 7    1  0.6140348E-006  0.1265444E+03  0.7818608E-02  0.1338325E+00
          2   -1    0    0  502    0  0.00000000000E+00  0.00000000000E+00  0.70943824849E+03  0.70943824849E+03  0.00000000000E+00 0. -1.
          1   -1    0    0  501    0 -0.00000000000E+00 -0.00000000000E+00 -0.89338307727E+03  0.89338307727E+03  0.00000000000E+00 0. -1.
         25    2    1    2    0    0  0.78411340335E+01 -0.85520391896E+02  0.73044866630E+02  0.16831819228E+03  0.12498096055E+03 0.  0.
          2    1    1    2  501    0 -0.35130050094E+02  0.12333700610E+03 -0.83994846863E+03  0.84968203903E+03  0.00000000000E+00 0. -1.
          1    1    1    2  502    0  0.27288916060E+02 -0.37816614206E+02  0.58295877322E+03  0.58482109446E+03  0.00000000000E+00 0. -1.
         22    1    3    3    0    0 -0.78698948537E+01 -0.74144309789E+02 -0.16777628027E+02  0.76425144562E+02  0.00000000000E+00 0.  1.
         22    1    3    3    0    0  0.15711028887E+02 -0.11376082106E+02  0.89822494657E+02  0.91893047719E+02  0.00000000000E+00 0.  1.
</event>
<event>
 7    1  0.6140348E-006  0.9604704E+02  0.7818608E-02  0.1289566E+00
          2   -1    0    0  502    0  0.00000000000E+00  0.00000000000E+00  0.44085281547E+03  0.44085281547E+03  0.00000000000E+00 0. -1.
          1   -1    0    0  501    0 -0.00000000000E+00 -0.00000000000E+00 -0.89656457497E+03  0.89656457497E+03  0.00000000000E+00 0. -1.
         25    2    1    2    0    0  0.35823906645E+02  0.41571074891E+02  0.11686266085E+03  0.17970536592E+03  0.12500252191E+03 0.  0.
          2    1    1    2  501    0 -0.90336660211E+02  0.36708768634E+02 -0.85452066242E+03  0.86006616512E+03  0.00000000000E+00 0. -1.
          1    1    1    2  502    0  0.54512753565E+02 -0.78279843525E+02  0.28194624208E+03  0.29764585941E+03  0.00000000000E+00 0. -1.
         22    1    3    3    0    0 -0.34082077819E+02 -0.22838626286E+02  0.41971325632E+02  0.58692274231E+02  0.00000000000E+00 0.  1.
         22    1    3    3    0    0  0.69905984464E+02  0.64409701176E+02  0.74891335214E+02  0.12101309169E+03  0.00000000000E+00 0.  1.
</event>
<event>
 7    1  0.6140348E-006  0.5560730E+02  0.7818608E-02  0.1492879E+00
          2   -1    0    0  502    0  0.00000000000E+00  0.00000000000E+00  0.13595011961E+04  0.13595011961E+04  0.00000000000E+00 0. -1.
          1   -1    0    0  501    0 -0.00000000000E+00 -0.00000000000E+00 -0.12860099964E+03  0.12860099964E+03  0.00000000000E+00 0. -1.
         25    2    1    2    0    0 -0.61238652342E+02  0.54041485559E+02  0.41608272494E+03  0.44206410328E+03  0.12500073085E+03 0.  0.
          2    1    1    2  501    0  0.49642584658E+02 -0.24251230314E+02 -0.10871707369E+03  0.12195044278E+03  0.00000000000E+00 0. -1.
          1    1    1    2  502    0  0.11596067684E+02 -0.29790255245E+02  0.92353454523E+03  0.92408764970E+03  0.00000000000E+00 0. -1.
         22    1    3    3    0    0 -0.24534976499E+02  0.90078898083E+02  0.21288401631E+03  0.23245596863E+03  0.00000000000E+00 0.  1.
         22    1    3    3    0    0 -0.36703675842E+02 -0.36037412524E+02  0.20319870863E+03  0.20960813465E+03  0.00000000000E+00 0.  1.
</event>
<event>
 7    1  0.6140348E-006  0.4003158E+02  0.7818608E-02  0.1519839E+00
          2   -1    0    0  502    0  0.00000000000E+00  0.00000000000E+00  0.58978683404E+03  0.58978683404E+03  0.00000000000E+00 0. -1.
          1   -1    0    0  501    0 -0.00000000000E+00 -0.00000000000E+00 -0.73661117064E+02  0.73661117064E+02  0.00000000000E+00 0. -1.
         25    2    1    2    0    0  0.10713277777E+02  0.10749042922E+02  0.24520997452E+03  0.27565214027E+03  0.12500341830E+03 0.  0.
          2    1    1    2  501    0  0.31377142828E+02 -0.19523529489E+02 -0.51022114853E+02  0.62999599204E+02  0.00000000000E+00 0. -1.
          1    1    1    2  502    0 -0.42090420605E+02  0.87744865678E+01  0.32193785731E+03  0.32479621164E+03  0.00000000000E+00 0. -1.
         22    1    3    3    0    0  0.44389987080E+01 -0.48761269939E+02  0.44332270590E+02  0.66050862003E+02  0.00000000000E+00 0. -1.
         22    1    3    3    0    0  0.62742790687E+01  0.59510312861E+02  0.20087770393E+03  0.20960127826E+03  0.00000000000E+00 0. -1.
</event>
<event>
 7    1  0.6140348E-006  0.4380244E+02  0.7818608E-02  0.1485263E+00
          2   -1    0    0  502    0  0.00000000000E+00  0.00000000000E+00  0.15962848321E+04  0.15962848321E+04  0.00000000000E+00 0. -1.
          1   -1    0    0  501    0 -0.00000000000E+00 -0.00000000000E+00 -0.15426288999E+04  0.15426288999E+04  0.00000000000E+00 0. -1.
         25    2    1    2    0    0 -0.16258038942E+02  0.16057421893E+02 -0.38091851441E+02  0.13265789702E+03  0.12499985547E+03 0.  0.
          2    1    1    2  501    0 -0.22770192711E+02 -0.36236845159E+02 -0.14566281183E+04  0.14572566917E+04  0.00000000000E+00 0. -1.
          1    1    1    2  502    0  0.39028231653E+02  0.20179423266E+02  0.15483759019E+04  0.15489991432E+04  0.00000000000E+00 0. -1.
         22    1    3    3    0    0  0.31533438784E+02  0.48570173739E+02 -0.46473648518E+02  0.74251057535E+02  0.00000000000E+00 0.  1.
         22    1    3    3    0    0 -0.47791477726E+02 -0.32512751846E+02  0.83817970769E+01  0.58406839480E+02  0.00000000000E+00 0.  1.
</event>
<event>
 7    1  0.6140348E-006  0.2908477E+02  0.7818608E-02  0.1630233E+00
          2   -1    0    0  502    0  0.00000000000E+00  0.00000000000E+00  0.48280013608E+03  0.48280013608E+03  0.00000000000E+00 0. -1.
          1   -1    0    0  501    0 -0.00000000000E+00 -0.00000000000E+00 -0.89502192181E+02  0.89502192181E+02  0.00000000000E+00 0. -1.
         25    2    1    2    0    0  0.62064574763E+01 -0.26826838617E+02  0.12802161092E+03  0.18103607402E+03  0.12500531129E+03 0.  0.
          2    1    1    2  501    0  0.18997113291E+02  0.22389522447E+02 -0.59041682049E+02  0.65940133819E+02  0.00000000000E+00 0. -1.
          1    1    1    2  502    0 -0.25203570767E+02  0.44373161701E+01  0.32431801503E+03  0.32532612042E+03  0.00000000000E+00 0. -1.
         22    1    3    3    0    0  0.32959256216E+02 -0.53300978203E+02  0.18672584213E+02  0.65390918704E+02  0.00000000000E+00 0.  1.
         22    1    3    3    0    0 -0.26752798739E+02  0.26474139586E+02  0.10934902671E+03  0.11564515532E+03  0.00000000000E+00 0.  1.
</event>
<event>
 7    1  0.6140348E-006  0.1030248E+03  0.7818608E-02  0.1281464E+00
          2   -1    0    0  502    0  0.00000000000E+00  0.00000000000E+00  0.69614122141E+03  0.69614122141E+03  0.00000000000E+00 0. -1.
          1   -1    0    0  501    0 -0.00000000000E+00 -0.00000000000E+00 -0.48925854540E+03  0.48925854540E+03  0.00000000000E+00 0. -1.
         25    2    1    2    0    0  0.42001153894E+01  0.67804682322E+02  0.14209532800E+03  0.20108889480E+03  0.12502217988E+03 0.  0.
          2    1    1    2  501    0 -0.96736669351E+02 -0.42277304450E+02 -0.44919867599E+03  0.46143775765E+03  0.00000000000E+00 0. -1.
          1    1    1    2  502    0  0.92536553961E+02 -0.25527377872E+02  0.51398602401E+03  0.52287311436E+03  0.00000000000E+00 0. -1.
         22    1    3    3    0    0 -0.11624028978E+01 -0.23003290784E+02  0.96737317003E+02  0.99441495706E+02  0.00000000000E+00 0. -1.
         22    1    3    3    0    0  0.53625182872E+01  0.90807973106E+02  0.45358010993E+02  0.10164739910E+03  0.00000000000E+00 0. -1.
</event>
<event>
 7    1  0.6140348E-006  0.1168514E+03  0.7818608E-02  0.1252296E+00
          2   -1    0    0  502    0  0.00000000000E+00  0.00000000000E+00  0.32072927158E+03  0.32072927158E+03  0.00000000000E+00 0. -1.
          1   -1    0    0  501    0 -0.00000000000E+00 -0.00000000000E+00 -0.26956740092E+03  0.26956740092E+03  0.00000000000E+00 0. -1.
         25    2    1    2    0    0 -0.21315771111E+02  0.48734805953E+02  0.97738896882E+02  0.16735175932E+03  0.12499710387E+03 0.  0.
          2    1    1    2  501    0 -0.88735112878E+02 -0.88016490038E+02 -0.19648959539E+03  0.23287117442E+03  0.00000000000E+00 0. -1.
          1    1    1    2  502    0  0.11005088399E+03  0.39281684086E+02  0.14991256917E+03  0.19007373876E+03  0.00000000000E+00 0. -1.
         22    1    3    3    0    0 -0.44159849604E+02  0.71373775436E+02  0.24611623890E+02  0.87464508045E+02  0.00000000000E+00 0.  1.
         22    1    3    3    0    0  0.22844078493E+02 -0.22638969483E+02  0.73127272992E+02  0.79887251278E+02  0.00000000000E+00 0.  1.
</event>
<event>
 7    1  0.6140348E-006  0.8241517E+02  0.7818608E-02  0.1425996E+00
          2   -1    0    0  502    0  0.00000000000E+00  0.00000000000E+00  0.20437157090E+03  0.20437157090E+03  0.00000000000E+00 0. -1.
          1   -1    0    0  501    0 -0.00000000000E+00 -0.00000000000E+00 -0.99798997224E+03  0.99798997224E+03  0.00000000000E+00 0. -1.
         25    2    1    2    0    0 -0.75531706110E+02 -0.18530850216E+02 -0.28807978866E+02  0.15001033506E+03  0.12499907975E+03 0.  0.
          2    1    1    2  501    0  0.98272040348E+01 -0.33679407396E+02 -0.89596123472E+03  0.89664787433E+03  0.00000000000E+00 0. -1.
          1    1    1    2  502    0  0.65704502075E+02  0.52210257612E+02  0.13115081224E+03  0.15570333376E+03  0.00000000000E+00 0. -1.
         22    1    3    3    0    0 -0.53841676809E+02 -0.14193742746E+02 -0.78138343165E+02  0.95947846080E+02  0.00000000000E+00 0.  1.
         22    1    3    3    0    0 -0.21690029300E+02 -0.43371074699E+01  0.49330364300E+02  0.54062488975E+02  0.00000000000E+00 0.  1.
</event>
<event>
 7    1  0.6140348E-006  0.8800871E+02  0.7818608E-02  0.1352849E+00
          2   -1    0    0  502    0  0.00000000000E+00  0.00000000000E+00  0.10397252925E+04  0.10397252925E+04  0.00000000000E+00 0. -1.
          1   -1    0    0  501    0 -0.00000000000E+00 -0.00000000000E+00 -0.18102165538E+03  0.18102165538E+03  0.00000000000E+00 0. -1.
         25    2    1    2    0    0 -0.34696415285E+02  0.11361725240E+03  0.73976333158E+02  0.18764408391E+03  0.12500033233E+03 0.  0.
          2    1    1    2  501    0  0.52146548666E+02 -0.28003608991E+02 -0.11489622015E+03  0.12924629999E+03  0.00000000000E+00 0. -1.
          1    1    1    2  502    0 -0.17450133381E+02 -0.85613643410E+02  0.89962352407E+03  0.90385656393E+03  0.00000000000E+00 0. -1.
         22    1    3    3    0    0 -0.39457286754E+01  0.13290681455E+03  0.72194195050E+02  0.15130033684E+03  0.00000000000E+00 0. -1.
         22    1    3    3    0    0 -0.30750686610E+02 -0.19289562152E+02  0.17821381074E+01  0.36343747071E+02  0.00000000000E+00 0. -1.
</event>
<event>
 7    1  0.6140348E-006  0.6825706E+02  0.7818608E-02  0.1403970E+00
          2   -1    0    0  502    0  0.00000000000E+00  0.00000000000E+00  0.63281640885E+02  0.63281640885E+02  0.00000000000E+00 0. -1.
          1   -1    0    0  501    0 -0.00000000000E+00 -0.00000000000E+00 -0.13364878914E+04  0.13364878914E+04  0.00000000000E+00 0. -1.
         25    2    1    2    0    0 -0.92935050631E+02  0.61079473481E+02 -0.46148403539E+03  0.49087681353E+03  0.12499962172E+03 0.  0.
          2    1    1    2  501    0  0.29890855714E+02 -0.40384240425E+02 -0.83654139761E+03  0.83804884108E+03  0.00000000000E+00 0. -1.
          1    1    1    2  502    0  0.63044194917E+02 -0.20695233056E+02  0.24819182482E+02  0.70843877668E+02  0.00000000000E+00 0. -1.
         22    1    3    3    0    0  0.41543360793E+01  0.58616941281E+02 -0.26822350355E+03  0.27458523662E+03  0.00000000000E+00 0.  1.
         22    1    3    3    0    0 -0.97089386710E+02  0.24625322002E+01 -0.19326053184E+03  0.21629157691E+03  0.00000000000E+00 0.  1.
</event>
<event>
 7    1  0.6140348E-006  0.1042141E+03  0.7818608E-02  0.1327977E+00
          2   -1    0    0  502    0  0.00000000000E+00  0.00000000000E+00  0.26596809037E+03  0.26596809037E+03  0.00000000000E+00 0. -1.
          1   -1    0    0  501    0 -0.00000000000E+00 -0.00000000000E+00 -0.78410328849E+03  0.78410328849E+03  0.00000000000E+00 0. -1.
         25    2    1    2    0    0 -0.91095223598E+02 -0.11614821337E+03 -0.18644710547E+03  0.26864622939E+03  0.12497810286E+03 0.  0.
          2    1    1    2  501    0  0.42817908762E+01  0.61848546925E+02 -0.54304389807E+03  0.54657136014E+03  0.00000000000E+00 0. -1.
          1    1    1    2  502    0  0.86813432722E+02  0.54299666446E+02  0.21135580543E+03  0.23485378934E+03  0.00000000000E+00 0. -1.
         22    1    3    3    0    0 -0.68013289255E+01 -0.30863126336E+02 -0.13415587081E+03  0.13782811149E+03  0.00000000000E+00 0.  1.
         22    1    3    3    0    0 -0.84293894673E+02 -0.85285087034E+02 -0.52291234660E+02  0.13081811790E+03  0.00000000000E+00 0.  1.
</event>
<event>
 7    1  0.6140348E-006  0.1277787E+03  0.7818608E-02  0.1390856E+00
          2   -1    0    0  502    0  0.00000000000E+00  0.00000000000E+00  0.14902424967E+04  0.14902424967E+04  0.00000000000E+00 0. -1.
          1   -1    0    0  501    0 -0.00000000000E+00 -0.00000000000E+00 -0.29747754988E+03  0.29747754988E+03  0.00000000000E+00 0. -1.
         25    2    1    2    0    0  0.11265855700E+03  0.95808787719E+02 -0.21359588827E+03  0.28830198675E+03  0.12499423109E+03 0.  0.
          2    1    1    2  501    0 -0.36314514965E+01 -0.29565094378E+02 -0.38644462413E+02  0.48792178889E+02  0.00000000000E+00 0. -1.
          1    1    1    2  502    0 -0.10902710550E+03 -0.66243693342E+02  0.14450052975E+04  0.14506258809E+04  0.00000000000E+00 0. -1.
         22    1    3    3    0    0  0.64223029823E+02 -0.16224359414E+02 -0.10905634440E+03  0.12759746726E+03  0.00000000000E+00 0.  1.
         22    1    3    3    0    0  0.48435527173E+02  0.11203314713E+03 -0.10453954388E+03  0.16070451949E+03  0.00000000000E+00 0.  1.
</event>
<event>
 7    1  0.6140348E-006  0.8844776E+02  0.7818608E-02  0.1442721E+00
          2   -1    0    0  502    0  0.00000000000E+00  0.00000000000E+00  0.15302477842E+04  0.15302477842E+04  0.00000000000E+00 0. -1.
          1   -1    0    0  501    0 -0.00000000000E+00 -0.00000000000E+00 -0.17956114012E+04  0.17956114012E+04  0.00000000000E+00 0. -1.
         25    2    1    2    0    0 -0.14106653341E+02  0.11565675625E+03 -0.86967281575E+02  0.19173684940E+03  0.12499691363E+03 0.  0.
          2    1    1    2  501    0  0.13004060547E+02 -0.86856792634E+02 -0.16549543588E+04  0.16572830591E+04  0.00000000000E+00 0. -1.
          1    1    1    2  502    0  0.11025927941E+01 -0.28799963615E+02  0.14765580233E+04  0.14768392769E+04  0.00000000000E+00 0. -1.
         22    1    3    3    0    0  0.52714058764E+02  0.69723777792E+02 -0.61022844468E+02  0.10660189833E+03  0.00000000000E+00 0.  1.
         22    1    3    3    0    0 -0.66820712106E+02  0.45932978457E+02 -0.25944437107E+02  0.85134951066E+02  0.00000000000E+00 0.  1.
</event>
<event>
 7    1  0.6140348E-006  0.7071534E+02  0.7818608E-02  0.1457035E+00
          2   -1    0    0  502    0  0.00000000000E+00  0.00000000000E+00  0.77997380087E+03  0.77997380087E+03  0.00000000000E+00 0. -1.
          1   -1    0    0  501    0 -0.00000000000E+00 -0.00000000000E+00 -0.51364537846E+03  0.51364537846E+03  0.00000000000E+00 0. -1.
         25    2    1    2    0    0 -0.53966603545E+02 -0.11249816412E+02 -0.22591916293E+03  0.26401410998E+03  0.12500011770E+03 0.  0.
          2    1    1    2  501    0  0.63207048806E+02  0.42345506219E+02 -0.26293767805E+03  0.27372339223E+03  0.00000000000E+00 0. -1.
          1    1    1    2  502    0 -0.92404452616E+01 -0.31095689807E+02  0.75518526339E+03  0.75588167711E+03  0.00000000000E+00 0. -1.
         22    1    3    3    0    0 -0.41032865855E+02  0.53298566367E+02 -0.14388805671E+03  0.15883389475E+03  0.00000000000E+00 0. -1.
         22    1    3    3    0    0 -0.12933737690E+02 -0.64548382779E+02 -0.82031106216E+02  0.10518021524E+03  0.00000000000E+00 0. -1.
</event>
<event>
 7    1  0.6140348E-006  0.8845167E+02  0.7818608E-02  0.1329445E+00
          2   -1    0    0  502    0  0.00000000000E+00  0.00000000000E+00  0.16390984406E+04  0.16390984406E+04  0.00000000000E+00 0. -1.
          1   -1    0    0  501    0 -0.00000000000E+00 -0.00000000000E+00 -0.21153518616E+03  0.21153518616E+03  0.00000000000E+00 0. -1.
         25    2    1    2    0    0 -0.10228255886E+03 -0.54342333198E+02  0.10531819341E+03  0.20032857121E+03  0.12499921422E+03 0.  0.
          2    1    1    2  501    0  0.66990817444E+02 -0.26672398692E+02 -0.15472094405E+03  0.17069785295E+03  0.00000000000E+00 0. -1.
          1    1    1    2  502    0  0.35291741420E+02  0.81014731890E+02  0.14769660051E+04  0.14796072026E+04  0.00000000000E+00 0. -1.
         22    1    3    3    0    0 -0.12189462877E+01 -0.37604944374E+02  0.88961547330E+02  0.96590758226E+02  0.00000000000E+00 0. -1.
         22    1    3    3    0    0 -0.10106361258E+03 -0.16737388824E+02  0.16356646082E+02  0.10373781298E+03  0.00000000000E+00 0. -1.
</event>
<event>
 7    1  0.6140348E-006  0.6344216E+02  0.7818608E-02  0.1391322E+00
          2   -1    0    0  502    0  0.00000000000E+00  0.00000000000E+00  0.70241939967E+03  0.70241939967E+03  0.00000000000E+00 0. -1.
          1   -1    0    0  501    0 -0.00000000000E+00 -0.00000000000E+00 -0.20128085854E+03  0.20128085854E+03  0.00000000000E+00 0. -1.
         25    2    1    2    0    0  0.60248515320E+01 -0.80239454181E+02  0.57371305325E+02  0.15936998185E+03  0.12503061864E+03 0.  0.
          2    1    1    2  501    0  0.43510121008E+02  0.46790942276E+02 -0.14189959328E+03  0.15562139147E+03  0.00000000000E+00 0. -1.
          1    1    1    2  502    0 -0.49534972540E+02  0.33448511905E+02  0.58566682909E+03  0.58870888489E+03  0.00000000000E+00 0. -1.
         22    1    3    3    0    0 -0.27566979268E+02 -0.89856586064E+02  0.74988108344E+02  0.12023876579E+03  0.00000000000E+00 0. -1.
         22    1    3    3    0    0  0.33591830800E+02  0.96171318833E+01 -0.17616803019E+02  0.39131216065E+02  0.00000000000E+00 0. -1.
</event>
<event>
 7    1  0.6140348E-006  0.5077961E+02  0.7818608E-02  0.1572677E+00
          2   -1    0    0  502    0  0.00000000000E+00  0.00000000000E+00  0.19396785828E+03  0.19396785828E+03  0.00000000000E+00 0. -1.
          1   -1    0    0  501    0 -0.00000000000E+00 -0.00000000000E+00 -0.12342668467E+03  0.12342668467E+03  0.00000000000E+00 0. -1.
         25    2    1    2    0    0  0.43727953937E+02  0.35916032775E+01  0.72027244460E+02  0.15079066417E+03  0.12499946754E+03 0.  0.
          2    1    1    2  501    0 -0.45469121069E+02 -0.24230316462E+02 -0.74572126873E+02  0.90639678469E+02  0.00000000000E+00 0. -1.
          1    1    1    2  502    0  0.17411671320E+01  0.20638713184E+02  0.73086056016E+02  0.75964200311E+02  0.00000000000E+00 0. -1.
         22    1    3    3    0    0 -0.19360301167E+02  0.45410804025E+02  0.53641321669E+02  0.72899614360E+02  0.00000000000E+00 0. -1.
         22    1    3    3    0    0  0.63088255104E+02 -0.41819200747E+02  0.18385922791E+02  0.77891049807E+02  0.00000000000E+00 0. -1.
</event>
<event>
 7    1  0.6140348E-006  0.9707450E+02  0.7818608E-02  0.1365120E+00
          2   -1    0    0  502    0  0.00000000000E+00  0.00000000000E+00  0.36154699183E+03  0.36154699183E+03  0.00000000000E+00 0. -1.
          1   -1    0    0  501    0 -0.00000000000E+00 -0.00000000000E+00 -0.11975185451E+03  0.11975185451E+03  0.00000000000E+00 0. -1.
         25    2    1    2    0    0 -0.12135473750E+02  0.12292310936E+03  0.21092657930E+02  0.17699163026E+03  0.12499510560E+03 0.  0.
          2    1    1    2  501    0  0.36815864525E+02 -0.31414044456E+02 -0.14667843535E+02  0.50570700052E+02  0.00000000000E+00 0. -1.
          1    1    1    2  502    0 -0.24680390775E+02 -0.91509064908E+02  0.23537032293E+03  0.25373651602E+03  0.00000000000E+00 0. -1.
         22    1    3    3    0    0  0.50070008872E+01  0.85655244445E+02 -0.46750106821E+02  0.97711122431E+02  0.00000000000E+00 0. -1.
         22    1    3    3    0    0 -0.17142474637E+02  0.37267864920E+02  0.67842764752E+02  0.79280507828E+02  0.00000000000E+00 0. -1.
</event>
<event>
 7    1  0.6140348E-006  0.2376347E+03  0.7818608E-02  0.1211409E+00
          2   -1    0    0  502    0  0.00000000000E+00  0.00000000000E+00  0.60399178833E+03  0.60399178833E+03  0.00000000000E+00 0. -1.
          1   -1    0    0  501    0 -0.00000000000E+00 -0.00000000000E+00 -0.77605527920E+03  0.77605527920E+03  0.00000000000E+00 0. -1.
         25    2    1    2    0    0 -0.43449470897E+02  0.21992685783E+03  0.51029025079E+02  0.26169608489E+03  0.12500080051E+03 0.  0.
          2    1    1    2  501    0  0.12638556316E+03 -0.20550610429E+03 -0.64473039094E+03  0.68839185533E+03  0.00000000000E+00 0. -1.
          1    1    1    2  502    0 -0.82936092267E+02 -0.14420753544E+02  0.42163787499E+03  0.42995912731E+03  0.00000000000E+00 0. -1.
         22    1    3    3    0    0 -0.23821441991E+02  0.88186966753E+01  0.42492064487E+02  0.49505616388E+02  0.00000000000E+00 0. -1.
         22    1    3    3    0    0 -0.19628028906E+02  0.21110816116E+03  0.85369605912E+01  0.21219046850E+03  0.00000000000E+00 0. -1.
</event>
<event>
 7    1  0.6140348E-006  0.3015056E+02  0.7818608E-02  0.1643401E+00
          2   -1    0    0  502    0  0.00000000000E+00  0.00000000000E+00  0.29749389890E+03  0.29749389890E+03  0.00000000000E+00 0. -1.
          1   -1    0    0  501    0 -0.00000000000E+00 -0.00000000000E+00 -0.12410354907E+04  0.12410354907E+04  0.00000000000E+00 0. -1.
         25    2    1    2    0    0  0.87880747155E+01 -0.14222798412E+02 -0.58800317435E+03  0.60137511197E+03  0.12499909601E+03 0.  0.
          2    1    1    2  501    0  0.20964528263E+02  0.91871971024E+01 -0.64536011259E+03  0.64576589485E+03  0.00000000000E+00 0. -1.
          1    1    1    2  502    0 -0.29752602978E+02  0.50356013097E+01  0.28982169512E+03  0.29138838279E+03  0.00000000000E+00 0. -1.
         22    1    3    3    0    0  0.55733993758E+01 -0.35357346119E+02 -0.42980064696E+02  0.55932912194E+02  0.00000000000E+00 0.  1.
         22    1    3    3    0    0  0.32146753397E+01  0.21134547707E+02 -0.54502310965E+03  0.54544219978E+03  0.00000000000E+00 0.  1.
</event>
<event>
 7    1  0.6140348E-006  0.6170289E+02  0.7818608E-02  0.1543043E+00
          2   -1    0    0  502    0  0.00000000000E+00  0.00000000000E+00  0.36379258713E+03  0.36379258713E+03  0.00000000000E+00 0. -1.
          1   -1    0    0  501    0 -0.00000000000E+00 -0.00000000000E+00 -0.16898689593E+03  0.16898689593E+03  0.00000000000E+00 0. -1.
         25    2    1    2    0    0 -0.49983766955E+02  0.46370550637E+02  0.29548870366E+03  0.32800500587E+03  0.12500041986E+03 0.  0.
          2    1    1    2  501    0  0.55608955001E+02 -0.26575509235E+02 -0.14410009746E+03  0.15672731624E+03  0.00000000000E+00 0. -1.
          1    1    1    2  502    0 -0.56251880464E+01 -0.19795041403E+02  0.43417085006E+02  0.48047160948E+02  0.00000000000E+00 0. -1.
         22    1    3    3    0    0  0.25923134043E+02  0.58069624284E+02  0.16143064222E+03  0.17350487714E+03  0.00000000000E+00 0.  1.
         22    1    3    3    0    0 -0.75906900998E+02 -0.11699073647E+02  0.13405806143E+03  0.15450012873E+03  0.00000000000E+00 0.  1.
</event>
<event>
 7    1  0.6140348E-006  0.4955541E+02  0.7818608E-02  0.1473944E+00
          2   -1    0    0  502    0  0.00000000000E+00  0.00000000000E+00  0.20868825184E+02  0.20868825184E+02  0.00000000000E+00 0. -1.
          1   -1    0    0  501    0 -0.00000000000E+00 -0.00000000000E+00 -0.84200717040E+03  0.84200717040E+03  0.00000000000E+00 0. -1.
         25    2    1    2    0    0 -0.47369767848E+02  0.30297347032E+01 -0.61555348746E+03  0.62990803501E+03  0.12499984975E+03 0.  0.
          2    1    1    2  501    0  0.42804595048E+02 -0.43753850783E+02 -0.79142501224E+02  0.10005082866E+03  0.00000000000E+00 0. -1.
          1    1    1    2  502    0  0.45651728005E+01  0.40724116080E+02 -0.12644235653E+03  0.13291713192E+03  0.00000000000E+00 0. -1.
         22    1    3    3    0    0 -0.60233807503E+02 -0.30609448467E+02 -0.55757831194E+03  0.56165703400E+03  0.00000000000E+00 0.  1.
         22    1    3    3    0    0  0.12864039655E+02  0.33639183170E+02 -0.57975175526E+02  0.68251001002E+02  0.00000000000E+00 0.  1.
</event>
<event>
 7    1  0.6140348E-006  0.1060923E+03  0.7818608E-02  0.1342869E+00
          2   -1    0    0  502    0  0.00000000000E+00  0.00000000000E+00  0.94235068683E+03  0.94235068683E+03  0.00000000000E+00 0. -1.
          1   -1    0    0  501    0 -0.00000000000E+00 -0.00000000000E+00 -0.56105398047E+03  0.56105398047E+03  0.00000000000E+00 0. -1.
         25    2    1    2    0    0  0.26039708256E+02 -0.75790486677E+02 -0.80152068220E+02  0.16873710011E+03  0.12500236252E+03 0.  0.
          2    1    1    2  501    0  0.53328788928E+02  0.40143706876E+01 -0.43176604207E+03  0.43506550080E+03  0.00000000000E+00 0. -1.
          1    1    1    2  502    0 -0.79368497184E+02  0.71776115990E+02  0.89321481665E+03  0.89960206639E+03  0.00000000000E+00 0. -1.
         22    1    3    3    0    0  0.73247494909E+02 -0.56915385882E+02 -0.30432280535E+02  0.97625203504E+02  0.00000000000E+00 0.  1.
         22    1    3    3    0    0 -0.47207786654E+02 -0.18875100795E+02 -0.49719787685E+02  0.71111896601E+02  0.00000000000E+00 0.  1.
</event>
<event>
 7    1  0.6140348E-006  0.3529103E+02  0.7818608E-02  0.1568160E+00
          2   -1    0    0  502    0  0.00000000000E+00  0.00000000000E+00  0.55664645849E+03  0.55664645849E+03  0.00000000000E+00 0. -1.
          1   -1    0    0  501    0 -0.00000000000E+00 -0.00000000000E+00 -0.15138602941E+04  0.15138602941E+04  0.00000000000E+00 0. -1.
         25    2    1    2    0    0 -0.19694773047E+02 -0.12895125746E+02 -0.34787157651E+02  0.13186865679E+03  0.12500011181E+03 0.  0.
          2    1    1    2  501    0 -0.12364586679E+02  0.28051561948E+02 -0.14297491512E+04  0.14300777631E+04  0.00000000000E+00 0. -1.
          1    1    1    2  502    0  0.32059359726E+02 -0.15156436202E+02  0.50732247326E+03  0.50856033269E+03  0.00000000000E+00 0. -1.
         22    1    3    3    0    0 -0.67889337484E+02 -0.16518260514E+02 -0.44135429474E+02  0.82642308833E+02  0.00000000000E+00 0. -1.
         22    1    3    3    0    0  0.48194564437E+02  0.36231347683E+01  0.93482718227E+01  0.49226347954E+02  0.00000000000E+00 0. -1.
</event>
<event>
 7    1  0.6140348E-006  0.4893335E+02  0.7818608E-02  0.1470468E+00
          2   -1    0    0  502    0  0.00000000000E+00  0.00000000000E+00  0.51284807424E+03  0.51284807424E+03  0.00000000000E+00 0. -1.
          1   -1    0    0  501    0 -0.00000000000E+00 -0.00000000000E+00 -0.41256297343E+02  0.41256297343E+02  0.00000000000E+00 0. -1.
         25    2    1    2    0    0  0.29276854317E+02  0.32006146648E+02  0.38246799929E+03  0.40470683772E+03  0.12499730554E+03 0.  0.
          2    1    1    2  501    0 -0.50092535621E+02  0.50968072410E+01 -0.31928455222E+00  0.50352174845E+02  0.00000000000E+00 0. -1.
          1    1    1    2  502    0  0.20815681304E+02 -0.37102953889E+02  0.89443062157E+02  0.99045359020E+02  0.00000000000E+00 0. -1.
         22    1    3    3    0    0  0.69287921706E+02 -0.14659840720E+02  0.20803822341E+03  0.21976266613E+03  0.00000000000E+00 0.  1.
         22    1    3    3    0    0 -0.40011067389E+02  0.46665987368E+02  0.17442977588E+03  0.18494417159E+03  0.00000000000E+00 0.  1.
</event>
<event>
 7    1  0.6140348E-006  0.5932790E+02  0.7818608E-02  0.1548800E+00
          2   -1    0    0  502    0  0.00000000000E+00  0.00000000000E+00  0.11051302256E+03  0.11051302256E+03  0.00000000000E+00 0. -1.
          1   -1    0    0  501    0 -0.00000000000E+00 -0.00000000000E+00 -0.15524049639E+04  0.15524049639E+04  0.00000000000E+00 0. -1.
         25    2    1    2    0    0  0.44206003567E+02 -0.65379790580E+02 -0.22929562699E+03  0.27281875266E+03  0.12499959792E+03 0.  0.
          2    1    1    2  501    0 -0.90377676344E+01  0.18535479505E+02 -0.12915913204E+04  0.12917559306E+04  0.00000000000E+00 0. -1.
          1    1    1    2  502    0 -0.35168235933E+02  0.46844311074E+02  0.78995006078E+02  0.98343303198E+02  0.00000000000E+00 0. -1.
         22    1    3    3    0    0  0.60723811719E+01 -0.37345055994E+02  0.86168155230E+00  0.37845336772E+02  0.00000000000E+00 0.  1.
         22    1    3    3    0    0  0.38133622396E+02 -0.28034734586E+02 -0.23015730854E+03  0.23497341589E+03  0.00000000000E+00 0.  1.
</event>
<event>
 7    1  0.6140348E-006  0.8475299E+02  0.7818608E-02  0.1396285E+00
          2   -1    0    0  502    0  0.00000000000E+00  0.00000000000E+00  0.21748666106E+03  0.21748666106E+03  0.00000000000E+00 0. -1.
          1   -1    0    0  501    0 -0.00000000000E+00 -0.00000000000E+00 -0.12580422591E+04  0.12580422591E+04  0.00000000000E+00 0. -1.
         25    2    1    2    0    0  0.44520272820E+02  0.57011631910E+02 -0.79363297465E+03  0.80666551438E+03  0.12499429094E+03 0.  0.
          2    1    1    2  501    0  0.34488364958E+02 -0.25685218190E+02 -0.44826202037E+03  0.45031990480E+03  0.00000000000E+00 0. -1.
          1    1    1    2  502    0 -0.79008637778E+02 -0.31326413720E+02  0.20133939698E+03  0.21854350097E+03  0.00000000000E+00 0. -1.
         22    1    3    3    0    0 -0.24467911604E+02  0.26502166372E+02 -0.66692485539E+02  0.75821706312E+02  0.00000000000E+00 0. -1.
         22    1    3    3    0    0  0.68988184424E+02  0.30509465537E+02 -0.72694048911E+03  0.73084380807E+03  0.00000000000E+00 0. -1.
</event>
<event>
 7    1  0.6140348E-006  0.6124404E+02  0.7818608E-02  0.1504737E+00
          2   -1    0    0  502    0  0.00000000000E+00  0.00000000000E+00  0.28448881250E+02  0.28448881250E+02  0.00000000000E+00 0. -1.
          1   -1    0    0  501    0 -0.00000000000E+00 -0.00000000000E+00 -0.71110320649E+03  0.71110320649E+03  0.00000000000E+00 0. -1.
         25    2    1    2    0    0 -0.65991151438E+02 -0.36378825229E+02 -0.40455642185E+03  0.43007720293E+03  0.12498900363E+03 0.  0.
          2    1    1    2  501    0  0.40006216801E+02  0.42733130283E+02 -0.27655231920E+03  0.28267968279E+03  0.00000000000E+00 0. -1.
          1    1    1    2  502    0  0.25984934636E+02 -0.63543050539E+01 -0.15455841894E+01  0.26795202019E+02  0.00000000000E+00 0. -1.
         22    1    3    3    0    0 -0.53278218549E+02 -0.82202059467E+02 -0.25635903753E+03  0.27443706615E+03  0.00000000000E+00 0. -1.
         22    1    3    3    0    0 -0.12712932888E+02  0.45823234238E+02 -0.14819738432E+03  0.15564013678E+03  0.00000000000E+00 0. -1.
</event>
<event>
 7    1  0.6140348E-006  0.4792422E+02  0.7818608E-02  0.1483872E+00
          2   -1    0    0  502    0  0.00000000000E+00  0.00000000000E+00  0.50922243137E+03  0.50922243137E+03  0.00000000000E+00 0. -1.
          1   -1    0    0  501    0 -0.00000000000E+00 -0.00000000000E+00 -0.26797061774E+02  0.26797061774E+02  0.00000000000E+00 0. -1.
         25    2    1    2    0    0 -0.17223511799E+02 -0.51544506347E+02  0.22094290447E+03  0.25960438345E+03  0.12500073351E+03 0.  0.
          2    1    1    2  501    0 -0.26596654552E+02  0.29203863342E+02  0.96949873280E+02  0.10468775285E+03  0.00000000000E+00 0. -1.
          1    1    1    2  502    0  0.43820166351E+02  0.22340643005E+02  0.16453259185E+03  0.17172735684E+03  0.00000000000E+00 0. -1.
         22    1    3    3    0    0  0.36214636296E+02 -0.51313427976E+02  0.18456605692E+03  0.19495947564E+03  0.00000000000E+00 0. -1.
         22    1    3    3    0    0 -0.53438148095E+02 -0.23107837048E+00  0.36376847551E+02  0.64644907818E+02  0.00000000000E+00 0. -1.
</event>
<event>
 7    1  0.6140348E-006  0.7268849E+02  0.7818608E-02  0.1387402E+00
          2   -1    0    0  502    0  0.00000000000E+00  0.00000000000E+00  0.32454632101E+04  0.32454632101E+04  0.00000000000E+00 0. -1.
          1   -1    0    0  501    0 -0.00000000000E+00 -0.00000000000E+00 -0.47359467633E+02  0.47359467633E+02  0.00000000000E+00 0. -1.
         25    2    1    2    0    0  0.11741656477E+03  0.16136956336E+02  0.27811936980E+03  0.32714181244E+03  0.12499732216E+03 0.  0.
          2    1    1    2  501    0 -0.63578176063E+02 -0.16052226562E+02  0.24971139695E+02  0.70167059699E+02  0.00000000000E+00 0. -1.
          1    1    1    2  502    0 -0.53838388709E+02 -0.84729773688E-01  0.28950132330E+04  0.28955138056E+04  0.00000000000E+00 0. -1.
         22    1    3    3    0    0  0.79565299592E+01 -0.26274599656E+02  0.15351526848E+03  0.15595062876E+03  0.00000000000E+00 0.  1.
         22    1    3    3    0    0  0.10946003481E+03  0.42411555992E+02  0.12460410132E+03  0.17119118368E+03  0.00000000000E+00 0.  1.
</event>
<event>
 7    1  0.6140348E-006  0.1400757E+03  0.7818608E-02  0.1291878E+00
          2   -1    0    0  502    0  0.00000000000E+00  0.00000000000E+00  0.21606609909E+03  0.21606609909E+03  0.00000000000E+00 0. -1.
          1   -1    0    0  501    0 -0.00000000000E+00 -0.00000000000E+00 -0.38189897219E+03  0.38189897219E+03  0.00000000000E+00 0. -1.
         25    2    1    2    0    0 -0.15255225502E+02  0.93523989910E+02  0.32757397120E+02  0.16024214790E+03  0.12500016122E+03 0.  0.
          2    1    1    2  501    0  0.64335585499E+02 -0.13461115757E+03 -0.29000192410E+03  0.32612934135E+03  0.00000000000E+00 0. -1.
          1    1    1    2  502    0 -0.49080359996E+02  0.41087167663E+02  0.91411653880E+02  0.11159358202E+03  0.00000000000E+00 0. -1.
         22    1    3    3    0    0 -0.61786444187E+02  0.18778103665E+02 -0.42900658911E+01  0.64719290230E+02  0.00000000000E+00 0. -1.
         22    1    3    3    0    0  0.46531218685E+02  0.74745886245E+02  0.37047463011E+02  0.95522857675E+02  0.00000000000E+00 0. -1.
</event>
<event>
 7    1  0.6140348E-006  0.1587762E+03  0.7818608E-02  0.1266831E+00
          2   -1    0    0  502    0  0.00000000000E+00  0.00000000000E+00  0.95716948662E+03  0.95716948662E+03  0.00000000000E+00 0. -1.
          1   -1    0    0  501    0 -0.00000000000E+00 -0.00000000000E+00 -0.36864815335E+03  0.36864815335E+03  0.00000000000E+00 0. -1.
         25    2    1    2    0    0  0.61130878443E+02  0.18859154626E+03  0.10922456280E+03  0.25857152130E+03  0.12500188354E+03 0.  0.
          2    1    1    2  501    0  0.23933913831E+01 -0.15537094482E+03 -0.27161375865E+03  0.31292154401E+03  0.00000000000E+00 0. -1.
          1    1    1    2  502    0 -0.63524269826E+02 -0.33220601441E+02  0.75091052910E+03  0.75432457466E+03  0.00000000000E+00 0. -1.
         22    1    3    3    0    0  0.32501991498E+02 -0.46181495046E+01 -0.35713817595E+01  0.33022136876E+02  0.00000000000E+00 0.  1.
         22    1    3    3    0    0  0.28628886945E+02  0.19320969577E+03  0.11279594456E+03  0.22554938443E+03  0.00000000000E+00 0.  1.
</event>
<event>
 7    1  0.6140348E-006  0.1062247E+03  0.7818608E-02  0.1276694E+00
          2   -1    0    0  502    0  0.00000000000E+00  0.00000000000E+00  0.12454867142E+04  0.12454867142E+04  0.00000000000E+00 0. -1.
          1   -1    0    0  501    0 -0.00000000000E+00 -0.00000000000E+00 -0.13316810489E+04  0.13316810489E+04  0.00000000000E+00 0. -1.
         25    2    1    2    0    0  0.18196844725E+02  0.61462456360E+02  0.49873831607E+03  0.51814328201E+03  0.12499517624E+03 0.  0.
          2    1    1    2  501    0 -0.10511771905E+03 -0.17445478189E+02 -0.13165968439E+04  0.13209017105E+04  0.00000000000E+00 0. -1.
          1    1    1    2  502    0  0.86920874321E+02 -0.44016978171E+02  0.73166419313E+03  0.73812277046E+03  0.00000000000E+00 0. -1.
         22    1    3    3    0    0 -0.33877401332E+02 -0.25834276196E+01  0.31362446883E+03  0.31545944251E+03  0.00000000000E+00 0.  1.
         22    1    3    3    0    0  0.52074246057E+02  0.64045883979E+02  0.18511384723E+03  0.20268383950E+03  0.00000000000E+00 0.  1.
</event>
<event>
 7    1  0.6140348E-006  0.7679554E+02  0.7818608E-02  0.1364618E+00
          2   -1    0    0  502    0  0.00000000000E+00  0.00000000000E+00  0.39565242946E+03  0.39565242946E+03  0.00000000000E+00 0. -1.
          1   -1    0    0  501    0 -0.00000000000E+00 -0.00000000000E+00 -0.37221586684E+03  0.37221586684E+03  0.00000000000E+00 0. -1.
         25    2    1    2    0    0  0.78147234244E+02 -0.98220419658E+02 -0.16714788390E+03  0.24357824326E+03  0.12505080743E+03 0.  0.
          2    1    1    2  501    0 -0.28519997416E+02  0.62009845362E+02 -0.15706504265E+03  0.17125431030E+03  0.00000000000E+00 0. -1.
          1    1    1    2  502    0 -0.49627236828E+02  0.36210574296E+02  0.34764948917E+03  0.35303574273E+03  0.00000000000E+00 0. -1.
         22    1    3    3    0    0 -0.78470480532E+01 -0.30017354224E+02 -0.12030766189E+03  0.12424391827E+03  0.00000000000E+00 0.  1.
         22    1    3    3    0    0  0.85994282297E+02 -0.68203065435E+02 -0.46840222012E+02  0.11933432499E+03  0.00000000000E+00 0.  1.
</event>
<event>
 7    1  0.6140348E-006  0.5402033E+02  0.7818608E-02  0.1445476E+00
          2   -1    0    0  502    0  0.00000000000E+00  0.00000000000E+00  0.75620888710E+03  0.75620888710E+03  0.00000000000E+00 0. -1.
          1   -1    0    0  501    0 -0.00000000000E+00 -0.00000000000E+00 -0.48094041496E+03  0.48094041496E+03  0.00000000000E+00 0. -1.
         25    2    1    2    0    0 -0.40100463429E+02  0.88730330984E+02 -0.64366938859E+02  0.17101422658E+03  0.12498657557E+03 0.  0.
          2    1    1    2  501    0  0.13893041222E+02 -0.50642942191E+02 -0.36058557378E+03  0.36438946226E+03  0.00000000000E+00 0. -1.
          1    1    1    2  502    0  0.26207422207E+02 -0.38087388793E+02  0.70022098477E+03  0.70174561322E+03  0.00000000000E+00 0. -1.
         22    1    3    3    0    0 -0.56924068359E+02 -0.68119634362E+01 -0.43032990923E+02  0.71683964121E+02  0.00000000000E+00 0.  1.
         22    1    3    3    0    0  0.16823604930E+02  0.95542294420E+02 -0.21333947935E+02  0.99330262460E+02  0.00000000000E+00 0.  1.
</event>
<event>
 7    1  0.6140348E-006  0.8132735E+02  0.7818608E-02  0.1351445E+00
          2   -1    0    0  502    0  0.00000000000E+00  0.00000000000E+00  0.20813846243E+04  0.20813846243E+04  0.00000000000E+00 0. -1.
          1   -1    0    0  501    0 -0.00000000000E+00 -0.00000000000E+00 -0.51886760292E+03  0.51886760292E+03  0.00000000000E+00 0. -1.
         25    2    1    2    0    0 -0.66483079086E+02 -0.13169419992E+02  0.10547849835E+04  0.10643249719E+04  0.12499140389E+03 0.  0.
          2    1    1    2  501    0  0.63043669647E+02 -0.51561387214E+02 -0.50983423379E+03  0.51629838938E+03  0.00000000000E+00 0. -1.
          1    1    1    2  502    0  0.34394094390E+01  0.64730807206E+02  0.10175662717E+04  0.10196288659E+04  0.00000000000E+00 0. -1.
         22    1    3    3    0    0  0.11315181242E+02 -0.12013430763E+02  0.73589588206E+03  0.73608090932E+03  0.00000000000E+00 0.  1.
         22    1    3    3    0    0 -0.77798260327E+02 -0.11559892282E+01  0.31888910142E+03  0.32824406259E+03  0.00000000000E+00 0.  1.
</event>
<event>
 7    1  0.6140348E-006  0.7492024E+02  0.7818608E-02  0.1445639E+00
          2   -1    0    0  502    0  0.00000000000E+00  0.00000000000E+00  0.10150294942E+04  0.10150294942E+04  0.00000000000E+00 0. -1.
          1   -1    0    0  501    0 -0.00000000000E+00 -0.00000000000E+00 -0.28121742115E+03  0.28121742115E+03  0.00000000000E+00 0. -1.
         25    2    1    2    0    0 -0.47413280921E+02  0.74736637501E+02  0.53771027421E+03  0.55909748211E+03  0.12499628525E+03 0.  0.
          2    1    1    2  501    0  0.60471746788E+02 -0.44108853447E+02 -0.26473429668E+03  0.27511210615E+03  0.00000000000E+00 0. -1.
          1    1    1    2  502    0 -0.13058465867E+02 -0.30627784054E+02  0.46083609551E+03  0.46203732708E+03  0.00000000000E+00 0. -1.
         22    1    3    3    0    0 -0.51877389722E+02  0.15975001034E+02  0.45101290795E+03  0.45426766048E+03  0.00000000000E+00 0. -1.
         22    1    3    3    0    0  0.44641088004E+01  0.58761636467E+02  0.86697366262E+02  0.10482982164E+03  0.00000000000E+00 0. -1.
</event>
<event>
 7    1  0.6140348E-006  0.1706705E+03  0.7818608E-02  0.1215061E+00
          2   -1    0    0  502    0  0.00000000000E+00  0.00000000000E+00  0.16882400663E+04  0.16882400663E+04  0.00000000000E+00 0. -1.
          1   -1    0    0  501    0 -0.00000000000E+00 -0.00000000000E+00 -0.15145966745E+03  0.15145966745E+03  0.00000000000E+00 0. -1.
         25    2    1    2    0    0 -0.28998267198E+02 -0.93805670270E+02  0.14096560158E+03  0.21245730969E+03  0.12500561723E+03 0.  0.
          2    1    1    2  501    0  0.67538315935E+02  0.19976625187E+03 -0.15488445210E+02  0.21144235962E+03  0.00000000000E+00 0. -1.
          1    1    1    2  502    0 -0.38540048737E+02 -0.10596058160E+03  0.14113032425E+04  0.14158000645E+04  0.00000000000E+00 0. -1.
         22    1    3    3    0    0  0.12898569275E+02 -0.11068232071E+03  0.82866930601E+02  0.13886640125E+03  0.00000000000E+00 0. -1.
         22    1    3    3    0    0 -0.41896836473E+02  0.16876650444E+02  0.58098670979E+02  0.73590908448E+02  0.00000000000E+00 0. -1.
</event>
<event>
 7    1  0.6140348E-006  0.8301427E+02  0.7818608E-02  0.1362967E+00
          2   -1    0    0  502    0  0.00000000000E+00  0.00000000000E+00  0.77958627437E+03  0.77958627437E+03  0.00000000000E+00 0. -1.
          1   -1    0    0  501    0 -0.00000000000E+00 -0.00000000000E+00 -0.62296808405E+02  0.62296808405E+02  0.00000000000E+00 0. -1.
         25    2    1    2    0    0 -0.52400393674E+02  0.26163393966E+02  0.85179007541E+02  0.16220355324E+03  0.12499681963E+03 0.  0.
          2    1    1    2  501    0  0.85232661906E+02 -0.73515062725E+02  0.12071834189E+03  0.16505147431E+03  0.00000000000E+00 0. -1.
          1    1    1    2  502    0 -0.32832268232E+02  0.47351668758E+02  0.51139211654E+03  0.51462805523E+03  0.00000000000E+00 0. -1.
         22    1    3    3    0    0 -0.88959907659E+02  0.13793195926E+01  0.35666275773E+02  0.95853278091E+02  0.00000000000E+00 0. -1.
         22    1    3    3    0    0  0.36559513985E+02  0.24784074374E+02  0.49512731767E+02  0.66350275150E+02  0.00000000000E+00 0. -1.
</event>
<event>
 7    1  0.6140348E-006  0.9583365E+02  0.7818608E-02  0.1429527E+00
          2   -1    0    0  502    0  0.00000000000E+00  0.00000000000E+00  0.63769444828E+03  0.63769444828E+03  0.00000000000E+00 0. -1.
          1   -1    0    0  501    0 -0.00000000000E+00 -0.00000000000E+00 -0.74885858853E+03  0.74885858853E+03  0.00000000000E+00 0. -1.
         25    2    1    2    0    0  0.11334470579E+03 -0.37426304020E+02  0.16756016670E+01  0.17284174084E+03  0.12499483658E+03 0.  0.
          2    1    1    2  501    0 -0.19902651088E+02  0.21601171140E+02 -0.65886647471E+03  0.65952085457E+03  0.00000000000E+00 0. -1.
          1    1    1    2  502    0 -0.93442054703E+02  0.15825132880E+02  0.54602673280E+03  0.55419044141E+03  0.00000000000E+00 0. -1.
         22    1    3    3    0    0  0.90774182653E+02 -0.57606525873E+02  0.47808479992E+02  0.11766101656E+03  0.00000000000E+00 0. -1.
         22    1    3    3    0    0  0.22570523138E+02  0.20180221853E+02 -0.46132878325E+02  0.55180724273E+02  0.00000000000E+00 0. -1.
</event>
<event>
 7    1  0.6140348E-006  0.1271460E+03  0.7818608E-02  0.1388936E+00
          2   -1    0    0  502    0  0.00000000000E+00  0.00000000000E+00  0.54983096310E+02  0.54983096310E+02  0.00000000000E+00 0. -1.
          1   -1    0    0  501    0 -0.00000000000E+00 -0.00000000000E+00 -0.88025334492E+03  0.88025334492E+03  0.00000000000E+00 0. -1.
         25    2    1    2    0    0  0.48342776166E+01 -0.11965149381E+03 -0.56311392108E+03  0.58911953001E+03  0.12499872924E+03 0.  0.
          2    1    1    2  501    0  0.30068682242E+02 -0.44827641562E+01 -0.20120622637E+03  0.20348996623E+03  0.00000000000E+00 0. -1.
          1    1    1    2  502    0 -0.34902959858E+02  0.12413425796E+03 -0.60950101165E+02  0.14262694500E+03  0.00000000000E+00 0. -1.
         22    1    3    3    0    0  0.31698394541E+02 -0.11858757311E+03 -0.29304287750E+03  0.31771359550E+03  0.00000000000E+00 0.  1.
         22    1    3    3    0    0 -0.26864116924E+02 -0.10639206997E+01 -0.27007104359E+03  0.27140593451E+03  0.00000000000E+00 0.  1.
</event>
<event>
 7    1  0.6140348E-006  0.4301765E+02  0.7818608E-02  0.1498911E+00
          2   -1    0    0  502    0  0.00000000000E+00  0.00000000000E+00  0.92000543232E+03  0.92000543232E+03  0.00000000000E+00 0. -1.
          1   -1    0    0  501    0 -0.00000000000E+00 -0.00000000000E+00 -0.27047681725E+03  0.27047681725E+03  0.00000000000E+00 0. -1.
         25    2    1    2    0    0 -0.27871115050E+02 -0.33632332537E+01  0.15915419364E+03  0.20430877129E+03  0.12499562505E+03 0.  0.
          2    1    1    2  501    0  0.30110062372E+01  0.39521629855E+02 -0.24565758636E+03  0.24883463409E+03  0.00000000000E+00 0. -1.
          1    1    1    2  502    0  0.24860108813E+02 -0.36158396601E+02  0.73603200779E+03  0.73733884418E+03  0.00000000000E+00 0. -1.
         22    1    3    3    0    0  0.35959509537E+02  0.16216936241E+02  0.12131107381E+03  0.12756352133E+03  0.00000000000E+00 0. -1.
         22    1    3    3    0    0 -0.63830624587E+02 -0.19580169495E+02  0.37843119834E+02  0.76745249959E+02  0.00000000000E+00 0. -1.
</event>
<event>
 7    1  0.7606145E-006  0.1303100E+03  0.7818608E-02  0.1275644E+00
          2   -1    0    0  502    0  0.00000000000E+00  0.00000000000E+00  0.18629031336E+04  0.18629031336E+04  0.00000000000E+00 0. -1.
          1   -1    0    0  501    0 -0.00000000000E+00 -0.00000000000E+00 -0.88450184303E+03  0.88450184303E+03  0.00000000000E+00 0. -1.
         25    2    1    2    0    0 -0.30875507435E+02  0.19767102199E+03 -0.19517024575E+03  0.30617487074E+03  0.12499798700E+03 0.  0.
          2    1    1    2  501    0 -0.19020588455E+02 -0.77937597362E+02 -0.62895073588E+03  0.63404659138E+03  0.00000000000E+00 0. -1.
          1    1    1    2  502    0  0.49896095891E+02 -0.11973342463E+03  0.18025222722E+04  0.18071835145E+04  0.00000000000E+00 0. -1.
         22    1    3    3    0    0 -0.67855912447E+02  0.18454389088E+03 -0.16054852223E+03  0.25384385064E+03  0.00000000000E+00 0.  1.
         22    1    3    3    0    0  0.36980405012E+02  0.13127131114E+02 -0.34621723517E+02  0.52331020106E+02  0.00000000000E+00 0.  1.
</event>
<event>
 7    1  0.6140348E-006  0.8014214E+02  0.7818608E-02  0.1329150E+00
          2   -1    0    0  502    0  0.00000000000E+00  0.00000000000E+00  0.16024388556E+04  0.16024388556E+04  0.00000000000E+00 0. -1.
          1   -1    0    0  501    0 -0.00000000000E+00 -0.00000000000E+00 -0.20277328049E+02  0.20277328049E+02  0.00000000000E+00 0. -1.
         25    2    1    2    0    0  0.71670803288E+02 -0.47539079232E+02  0.38177042297E+03  0.41081611224E+03  0.12499821650E+03 0.  0.
          2    1    1    2  501    0 -0.70547240382E+02 -0.37273394231E+02  0.48841070140E+03  0.49488506978E+03  0.00000000000E+00 0. -1.
          1    1    1    2  502    0 -0.11235629062E+01  0.84812473462E+02  0.71198040321E+03  0.71701500166E+03  0.00000000000E+00 0. -1.
         22    1    3    3    0    0  0.72381291869E+02 -0.25448441671E+02  0.90235523761E+02  0.11844460454E+03  0.00000000000E+00 0.  1.
         22    1    3    3    0    0 -0.71048858094E+00 -0.22090637560E+02  0.29153489921E+03  0.29237150770E+03  0.00000000000E+00 0.  1.
</event>
<event>
 7    1  0.6140348E-006  0.9691779E+02  0.7818608E-02  0.1358665E+00
          2   -1    0    0  502    0  0.00000000000E+00  0.00000000000E+00  0.38064530133E+02  0.38064530133E+02  0.00000000000E+00 0. -1.
          1   -1    0    0  501    0 -0.00000000000E+00 -0.00000000000E+00 -0.95047724353E+03  0.95047724353E+03  0.00000000000E+00 0. -1.
         25    2    1    2    0    0 -0.50200154784E+02  0.48946858861E+02 -0.16418041471E+03  0.21793669245E+03  0.12500137123E+03 0.  0.
          2    1    1    2  501    0  0.97484122140E+02 -0.29388772557E+02 -0.66610329029E+03  0.67384007551E+03  0.00000000000E+00 0. -1.
          1    1    1    2  502    0 -0.47283967356E+02 -0.19558086303E+02 -0.82129008393E+02  0.96765005702E+02  0.00000000000E+00 0. -1.
         22    1    3    3    0    0  0.17548839409E+02  0.68295805566E+02 -0.10177299580E+03  0.12381446401E+03  0.00000000000E+00 0.  1.
         22    1    3    3    0    0 -0.67748994193E+02 -0.19348946705E+02 -0.62407418902E+02  0.94122228441E+02  0.00000000000E+00 0.  1.
</event>
<event>
 7    1  0.6140348E-006  0.8013635E+02  0.7818608E-02  0.1354351E+00
          2   -1    0    0  502    0  0.00000000000E+00  0.00000000000E+00  0.14902970116E+04  0.14902970116E+04  0.00000000000E+00 0. -1.
          1   -1    0    0  501    0 -0.00000000000E+00 -0.00000000000E+00 -0.88355163903E+03  0.88355163903E+03  0.00000000000E+00 0. -1.
         25    2    1    2    0    0 -0.77063770475E+02 -0.39519724076E+02  0.40308543549E+01  0.15212123540E+03  0.12499595658E+03 0.  0.
          2    1    1    2  501    0  0.51424684728E+00  0.64179226234E+02 -0.80708647550E+03  0.80963437208E+03  0.00000000000E+00 0. -1.
          1    1    1    2  502    0  0.76549523627E+02 -0.24659502158E+02  0.14098009937E+04  0.14120930431E+04  0.00000000000E+00 0. -1.
         22    1    3    3    0    0 -0.37576205138E+02 -0.42139718112E+02 -0.56452679632E+02  0.79841293030E+02  0.00000000000E+00 0. -1.
         22    1    3    3    0    0 -0.39487565337E+02  0.26199940352E+01  0.60483533987E+02  0.72279942367E+02  0.00000000000E+00 0. -1.
</event>
<event>
 7    1  0.6140348E-006  0.4080904E+02  0.7818608E-02  0.1574883E+00
          2   -1    0    0  502    0  0.00000000000E+00  0.00000000000E+00  0.17300001338E+04  0.17300001338E+04  0.00000000000E+00 0. -1.
          1   -1    0    0  501    0 -0.00000000000E+00 -0.00000000000E+00 -0.17694598793E+03  0.17694598793E+03  0.00000000000E+00 0. -1.
         25    2    1    2    0    0 -0.50773490763E+02 -0.11946530011E+01  0.18369185234E+03  0.22791931583E+03  0.12500057341E+03 0.  0.
          2    1    1    2  501    0  0.15865350733E+02 -0.19862400305E+02 -0.15351420172E+03  0.15560473782E+03  0.00000000000E+00 0. -1.
          1    1    1    2  502    0  0.34908140030E+02  0.21057053306E+02  0.15228764952E+04  0.15234220680E+04  0.00000000000E+00 0. -1.
         22    1    3    3    0    0 -0.21590553918E+02  0.38157626074E+01 -0.15300491434E+02  0.26736063676E+02  0.00000000000E+00 0.  1.
         22    1    3    3    0    0 -0.29182936845E+02 -0.50104156085E+01  0.19899234377E+03  0.20118325216E+03  0.00000000000E+00 0.  1.
</event>
<event>
 7    1  0.6140348E-006  0.9931231E+02  0.7818608E-02  0.1322487E+00
          2   -1    0    0  502    0  0.00000000000E+00  0.00000000000E+00  0.11650005652E+04  0.11650005652E+04  0.00000000000E+00 0. -1.
          1   -1    0    0  501    0 -0.00000000000E+00 -0.00000000000E+00 -0.40437172086E+03  0.40437172086E+03  0.00000000000E+00 0. -1.
         25    2    1    2    0    0  0.10871938938E+03 -0.10914186159E+03 -0.35841264265E+03  0.40965400052E+03  0.12499970462E+03 0.  0.
          2    1    1    2  501    0 -0.19898085368E+02  0.65336968974E+02  0.46528054709E+02  0.82642078816E+02  0.00000000000E+00 0. -1.
          1    1    1    2  502    0 -0.88821304012E+02  0.43804892619E+02  0.10725134323E+04  0.10770762068E+04  0.00000000000E+00 0. -1.
         22    1    3    3    0    0  0.66575738943E+02 -0.79016900017E+02 -0.92303328869E+02  0.13854928374E+03  0.00000000000E+00 0.  1.
         22    1    3    3    0    0  0.42143650437E+02 -0.30124961576E+02 -0.26610931378E+03  0.27110471679E+03  0.00000000000E+00 0.  1.
</event>
<event>
 7    1  0.6140348E-006  0.4342841E+02  0.7818608E-02  0.1509879E+00
          2   -1    0    0  502    0  0.00000000000E+00  0.00000000000E+00  0.91661016764E+03  0.91661016764E+03  0.00000000000E+00 0. -1.
          1   -1    0    0  501    0 -0.00000000000E+00 -0.00000000000E+00 -0.84846702259E+02  0.84846702259E+02  0.00000000000E+00 0. -1.
         25    2    1    2    0    0 -0.19539179032E+00  0.14506101975E+02  0.97754947428E+02  0.15934379053E+03  0.12499579457E+03 0.  0.
          2    1    1    2  501    0 -0.33780324019E+02  0.13633227418E+02 -0.47221041196E+02  0.59638929503E+02  0.00000000000E+00 0. -1.
          1    1    1    2  502    0  0.33975715809E+02 -0.28139329394E+02  0.78122955915E+03  0.78247414987E+03  0.00000000000E+00 0. -1.
         22    1    3    3    0    0  0.40162449265E+02  0.39651127291E+02  0.96481857137E+02  0.11177648672E+03  0.00000000000E+00 0. -1.
         22    1    3    3    0    0 -0.40357841055E+02 -0.25145025316E+02  0.12730902911E+01  0.47567303809E+02  0.00000000000E+00 0. -1.
</event>
<event>
 7    1  0.6140348E-006  0.1129037E+03  0.7818608E-02  0.1349303E+00
          2   -1    0    0  502    0  0.00000000000E+00  0.00000000000E+00  0.23206859901E+04  0.23206859901E+04  0.00000000000E+00 0. -1.
          1   -1    0    0  501    0 -0.00000000000E+00 -0.00000000000E+00 -0.10582599564E+03  0.10582599564E+03  0.00000000000E+00 0. -1.
         25    2    1    2    0    0  0.10736974298E+02  0.14726646922E+03  0.53183552375E+03  0.56593002250E+03  0.12500028191E+03 0.  0.
          2    1    1    2  501    0  0.18101522725E+02 -0.10945522148E+03 -0.53666243741E+02  0.12324031951E+03  0.00000000000E+00 0. -1.
          1    1    1    2  502    0 -0.28838497023E+02 -0.37811247738E+02  0.17366907145E+04  0.17373416438E+04  0.00000000000E+00 0. -1.
         22    1    3    3    0    0 -0.29829160711E+02  0.10204747940E+03  0.18133727096E+03  0.21020626232E+03  0.00000000000E+00 0. -1.
         22    1    3    3    0    0  0.40566135009E+02  0.45218989823E+02  0.35049825279E+03  0.35572376018E+03  0.00000000000E+00 0. -1.
</event>
<event>
 7    1  0.6140348E-006  0.7577952E+02  0.7818608E-02  0.1379137E+00
          2   -1    0    0  502    0  0.00000000000E+00  0.00000000000E+00  0.21198380794E+04  0.21198380794E+04  0.00000000000E+00 0. -1.
          1   -1    0    0  501    0 -0.00000000000E+00 -0.00000000000E+00 -0.49808972670E+03  0.49808972670E+03  0.00000000000E+00 0. -1.
         25    2    1    2    0    0 -0.37604473051E+02 -0.43546320692E+02  0.14072214370E+03  0.19680822404E+03  0.12498150616E+03 0.  0.
          2    1    1    2  501    0  0.44364018506E+02 -0.32888604253E+02 -0.46766690556E+03  0.47091629934E+03  0.00000000000E+00 0. -1.
          1    1    1    2  502    0 -0.67595454551E+01  0.76434924945E+02  0.19486931145E+04  0.19502032827E+04  0.00000000000E+00 0. -1.
         22    1    3    3    0    0 -0.51514744192E+02 -0.49436055900E+02  0.18634768509E+02  0.73789884737E+02  0.00000000000E+00 0.  1.
         22    1    3    3    0    0  0.13910271141E+02  0.58897352080E+01  0.12208737519E+03  0.12301833930E+03  0.00000000000E+00 0.  1.
</event>
<event>
 7    1  0.6140348E-006  0.9121812E+02  0.7818608E-02  0.1389842E+00
          2   -1    0    0  502    0  0.00000000000E+00  0.00000000000E+00  0.17922679468E+04  0.17922679468E+04  0.00000000000E+00 0. -1.
          1   -1    0    0  501    0 -0.00000000000E+00 -0.00000000000E+00 -0.68595953381E+03  0.68595953381E+03  0.00000000000E+00 0. -1.
         25    2    1    2    0    0  0.15111209367E+02 -0.11488614832E+03  0.86886585131E+02  0.19131637572E+03  0.12500200485E+03 0.  0.
          2    1    1    2  501    0  0.18029871072E+02  0.88975845842E+02 -0.63022389398E+03  0.63672908991E+03  0.00000000000E+00 0. -1.
          1    1    1    2  502    0 -0.33141080439E+02  0.25910302478E+02  0.16496457219E+04  0.16501820150E+04  0.00000000000E+00 0. -1.
         22    1    3    3    0    0  0.59368925477E+02 -0.25626529056E+02  0.59786191916E+02  0.88066889621E+02  0.00000000000E+00 0.  1.
         22    1    3    3    0    0 -0.44257716110E+02 -0.89259619265E+02  0.27100393216E+02  0.10324948610E+03  0.00000000000E+00 0.  1.
</event>
<event>
 7    1  0.6140348E-006  0.9048952E+02  0.7818608E-02  0.1364267E+00
          2   -1    0    0  502    0  0.00000000000E+00  0.00000000000E+00  0.21623500362E+03  0.21623500362E+03  0.00000000000E+00 0. -1.
          1   -1    0    0  501    0 -0.00000000000E+00 -0.00000000000E+00 -0.36056901114E+03  0.36056901114E+03  0.00000000000E+00 0. -1.
         25    2    1    2    0    0 -0.70724043170E+02 -0.99604231552E+02 -0.84052350918E+02  0.19394466595E+03  0.12500736991E+03 0.  0.
          2    1    1    2  501    0  0.72522114623E+02  0.47345601933E+02 -0.20845454834E+03  0.22573072864E+03  0.00000000000E+00 0. -1.
          1    1    1    2  502    0 -0.17980714525E+01  0.52258629619E+02  0.14817289173E+03  0.15712862016E+03  0.00000000000E+00 0. -1.
         22    1    3    3    0    0 -0.23437442933E+02 -0.11737954850E+01  0.28638416575E+02  0.37024997381E+02  0.00000000000E+00 0. -1.
         22    1    3    3    0    0 -0.47286600237E+02 -0.98430436067E+02 -0.11269076749E+03  0.15691966857E+03  0.00000000000E+00 0. -1.
</event>
<event>
 7    1  0.6140348E-006  0.1079982E+03  0.7818608E-02  0.1310662E+00
          2   -1    0    0  502    0  0.00000000000E+00  0.00000000000E+00  0.45308238768E+03  0.45308238768E+03  0.00000000000E+00 0. -1.
          1   -1    0    0  501    0 -0.00000000000E+00 -0.00000000000E+00 -0.15023571334E+04  0.15023571334E+04  0.00000000000E+00 0. -1.
         25    2    1    2    0    0 -0.10635339494E+03  0.12854919521E+03 -0.10189858430E+04  0.10400926906E+04  0.12499886675E+03 0.  0.
          2    1    1    2  501    0  0.17613325101E+02 -0.67587348542E+02 -0.46361488010E+03  0.46884649509E+03  0.00000000000E+00 0. -1.
          1    1    1    2  502    0  0.88740069839E+02 -0.60961846668E+02  0.43332597741E+03  0.44650033533E+03  0.00000000000E+00 0. -1.
         22    1    3    3    0    0  0.28474616617E+02  0.19351605943E+02 -0.14255140872E+03  0.14664989796E+03  0.00000000000E+00 0.  1.
         22    1    3    3    0    0 -0.13482801156E+03  0.10919758927E+03 -0.87643443428E+03  0.89344279268E+03  0.00000000000E+00 0.  1.
</event>
<event>
 7    1  0.6140348E-006  0.4266211E+02  0.7818608E-02  0.1597261E+00
          2   -1    0    0  502    0  0.00000000000E+00  0.00000000000E+00  0.12806816441E+03  0.12806816441E+03  0.00000000000E+00 0. -1.
          1   -1    0    0  501    0 -0.00000000000E+00 -0.00000000000E+00 -0.15690921265E+04  0.15690921265E+04  0.00000000000E+00 0. -1.
         25    2    1    2    0    0 -0.40764825725E+02  0.41392839984E+02 -0.22911221931E+03  0.26738140283E+03  0.12500106930E+03 0.  0.
          2    1    1    2  501    0  0.35989422995E+01 -0.20893990454E+02 -0.13166223126E+04  0.13167930078E+04  0.00000000000E+00 0. -1.
          1    1    1    2  502    0  0.37165883425E+02 -0.20498849530E+02  0.10471056981E+03  0.11298588033E+03  0.00000000000E+00 0. -1.
         22    1    3    3    0    0 -0.48175577314E+02 -0.13372560251E+02 -0.24959904061E+02  0.55881199235E+02  0.00000000000E+00 0. -1.
         22    1    3    3    0    0  0.74107515896E+01  0.54765400235E+02 -0.20415231525E+03  0.21150020360E+03  0.00000000000E+00 0. -1.
</event>
<event>
 7    1  0.6140348E-006  0.2853195E+02  0.7818608E-02  0.1670734E+00
          2   -1    0    0  502    0  0.00000000000E+00  0.00000000000E+00  0.28035161980E+03  0.28035161980E+03  0.00000000000E+00 0. -1.
          1   -1    0    0  501    0 -0.00000000000E+00 -0.00000000000E+00 -0.25996391001E+03  0.25996391001E+03  0.00000000000E+00 0. -1.
         25    2    1    2    0    0 -0.13962180095E+01  0.17042591195E+02  0.20617763393E+01  0.12617778899E+03  0.12499673666E+03 0.  0.
          2    1    1    2  501    0  0.22103636487E+02 -0.18466024139E+02 -0.19635478287E+03  0.19845595368E+03  0.00000000000E+00 0. -1.
          1    1    1    2  502    0 -0.20707418477E+02  0.14234329442E+01  0.21468071632E+03  0.21568178714E+03  0.00000000000E+00 0. -1.
         22    1    3    3    0    0 -0.20690820211E+02  0.62637610467E+02 -0.24038422097E+02  0.70209871265E+02  0.00000000000E+00 0. -1.
         22    1    3    3    0    0  0.19294602201E+02 -0.45595019272E+02  0.26100198436E+02  0.55967917730E+02  0.00000000000E+00 0. -1.
</event>
<event>
 7    1  0.6140348E-006  0.7157456E+02  0.7818608E-02  0.1494972E+00
          2   -1    0    0  502    0  0.00000000000E+00  0.00000000000E+00  0.66970633903E+03  0.66970633903E+03  0.00000000000E+00 0. -1.
          1   -1    0    0  501    0 -0.00000000000E+00 -0.00000000000E+00 -0.52450491060E+02  0.52450491060E+02  0.00000000000E+00 0. -1.
         25    2    1    2    0    0 -0.71740313851E+01 -0.51850328949E+02  0.86719840383E+02  0.16088735319E+03  0.12499794543E+03 0.  0.
          2    1    1    2  501    0  0.12781961948E+02 -0.20876220583E+02 -0.12440924186E+01  0.24510057181E+02  0.00000000000E+00 0. -1.
          1    1    1    2  502    0 -0.56079305628E+01  0.72726549532E+02  0.53178010001E+03  0.53675941972E+03  0.00000000000E+00 0. -1.
         22    1    3    3    0    0  0.12363731975E+02  0.13920241590E+02  0.90283970070E+02  0.92183676678E+02  0.00000000000E+00 0.  1.
         22    1    3    3    0    0 -0.19537763361E+02 -0.65770570540E+02 -0.35641296866E+01  0.68703676515E+02  0.00000000000E+00 0.  1.
</event>
<event>
 7    1  0.6140348E-006  0.1282750E+03  0.7818608E-02  0.1309924E+00
          2   -1    0    0  502    0  0.00000000000E+00  0.00000000000E+00  0.41177613715E+03  0.41177613715E+03  0.00000000000E+00 0. -1.
          1   -1    0    0  501    0 -0.00000000000E+00 -0.00000000000E+00 -0.65627359311E+03  0.65627359311E+03  0.00000000000E+00 0. -1.
         25    2    1    2    0    0  0.64308106280E+02  0.16423972821E+03 -0.15310106027E+03  0.26490989938E+03  0.12500839683E+03 0.  0.
          2    1    1    2  501    0 -0.43575162934E+02 -0.40071655482E+02 -0.43406283548E+03  0.43808113124E+03  0.00000000000E+00 0. -1.
          1    1    1    2  502    0 -0.20732943346E+02 -0.12416807273E+03  0.34266643980E+03  0.36505869965E+03  0.00000000000E+00 0. -1.
         22    1    3    3    0    0  0.49894001861E+02  0.11418227988E+03 -0.25643868148E+02  0.12721875819E+03  0.00000000000E+00 0. -1.
         22    1    3    3    0    0  0.14414104419E+02  0.50057448327E+02 -0.12745719212E+03  0.13769114119E+03  0.00000000000E+00 0. -1.
</event>
<event>
 7    1  0.6140348E-006  0.3059059E+03  0.7818608E-02  0.1196646E+00
          2   -1    0    0  502    0  0.00000000000E+00  0.00000000000E+00  0.24227091784E+04  0.24227091784E+04  0.00000000000E+00 0. -1.
          1   -1    0    0  501    0 -0.00000000000E+00 -0.00000000000E+00 -0.40762688143E+03  0.40762688143E+03  0.00000000000E+00 0. -1.
         25    2    1    2    0    0 -0.12869605181E+03  0.25043722263E+03 -0.72766156647E+02  0.31654685693E+03  0.12500209137E+03 0.  0.
          2    1    1    2  501    0  0.97304681915E+02 -0.32039802758E+03 -0.80254175456E+02  0.34433098885E+03  0.00000000000E+00 0. -1.
          1    1    1    2  502    0  0.31391369898E+02  0.69960804952E+02  0.21681026291E+04  0.21694582141E+04  0.00000000000E+00 0. -1.
         22    1    3    3    0    0 -0.79713461242E+02  0.68965066705E+02  0.19438268133E+02  0.10718331305E+03  0.00000000000E+00 0.  1.
         22    1    3    3    0    0 -0.48982590571E+02  0.18147215593E+03 -0.92204424780E+02  0.20936354388E+03  0.00000000000E+00 0.  1.
</event>
<event>
 7    1  0.6140348E-006  0.6519282E+02  0.7818608E-02  0.1406915E+00
          2   -1    0    0  502    0  0.00000000000E+00  0.00000000000E+00  0.87619423258E+03  0.87619423258E+03  0.00000000000E+00 0. -1.
          1   -1    0    0  501    0 -0.00000000000E+00 -0.00000000000E+00 -0.46320126575E+03  0.46320126575E+03  0.00000000000E+00 0. -1.
         25    2    1    2    0    0  0.96163365026E+02  0.59726902259E+02  0.19516909722E+03  0.25793442690E+03  0.12499798575E+03 0.  0.
          2    1    1    2  501    0 -0.60632737858E+02 -0.22582423362E+02 -0.42836863456E+03  0.43322740198E+03  0.00000000000E+00 0. -1.
          1    1    1    2  502    0 -0.35530627168E+02 -0.37144478898E+02  0.64619250416E+03  0.64823366946E+03  0.00000000000E+00 0. -1.
         22    1    3    3    0    0  0.93778292590E+02  0.27260788819E+02  0.51076627690E+02  0.11021043809E+03  0.00000000000E+00 0.  1.
         22    1    3    3    0    0  0.23850724358E+01  0.32466113441E+02  0.14409246953E+03  0.14772398881E+03  0.00000000000E+00 0.  1.
</event>
<event>
 7    1  0.6140348E-006  0.1454877E+03  0.7818608E-02  0.1234638E+00
          2   -1    0    0  502    0  0.00000000000E+00  0.00000000000E+00  0.64864958744E+03  0.64864958744E+03  0.00000000000E+00 0. -1.
          1   -1    0    0  501    0 -0.00000000000E+00 -0.00000000000E+00 -0.45950513682E+03  0.45950513682E+03  0.00000000000E+00 0. -1.
         25    2    1    2    0    0 -0.96607614716E+01  0.12659380348E+03 -0.97112309529E+02  0.20291592102E+03  0.12499899580E+03 0.  0.
          2    1    1    2  501    0  0.11680763175E+03 -0.11409718323E+03 -0.28252571702E+03  0.32631728553E+03  0.00000000000E+00 0. -1.
          1    1    1    2  502    0 -0.10714687028E+03 -0.12496620249E+02  0.56878247717E+03  0.57892151771E+03  0.00000000000E+00 0. -1.
         22    1    3    3    0    0  0.41795989938E+02  0.85987629937E+02 -0.13320148501E+02  0.96530842911E+02  0.00000000000E+00 0.  1.
         22    1    3    3    0    0 -0.51456751409E+02  0.40606173543E+02 -0.83792161028E+02  0.10638507811E+03  0.00000000000E+00 0.  1.
</event>
<event>
 7    1  0.6140348E-006  0.9188497E+02  0.7818608E-02  0.1303993E+00
          2   -1    0    0  502    0  0.00000000000E+00  0.00000000000E+00  0.26996148575E+04  0.26996148575E+04  0.00000000000E+00 0. -1.
          1   -1    0    0  501    0 -0.00000000000E+00 -0.00000000000E+00 -0.12787779005E+03  0.12787779005E+03  0.00000000000E+00 0. -1.
         25    2    1    2    0    0 -0.98073071099E+02  0.18651939046E+02  0.30985474456E+02  0.16294563232E+03  0.12499982943E+03 0.  0.
          2    1    1    2  501    0  0.37229574183E+02 -0.87506258373E+02 -0.24057492772E+02  0.98092555308E+02  0.00000000000E+00 0. -1.
          1    1    1    2  502    0  0.60843496916E+02  0.68854319327E+02  0.25648090858E+04  0.25664544600E+04  0.00000000000E+00 0. -1.
         22    1    3    3    0    0 -0.47678361439E+02 -0.52265738519E+02  0.46283861866E+00  0.70747069141E+02  0.00000000000E+00 0. -1.
         22    1    3    3    0    0 -0.50394709660E+02  0.70917677565E+02  0.30522635837E+02  0.92198563174E+02  0.00000000000E+00 0. -1.
</event>
<event>
 7    1  0.6140348E-006  0.5329035E+02  0.7818608E-02  0.1439425E+00
          2   -1    0    0  502    0  0.00000000000E+00  0.00000000000E+00  0.12489049527E+04  0.12489049527E+04  0.00000000000E+00 0. -1.
          1   -1    0    0  501    0 -0.00000000000E+00 -0.00000000000E+00 -0.65772316645E+03  0.65772316645E+03  0.00000000000E+00 0. -1.
         25    2    1    2    0    0 -0.16803545192E+02  0.46056462199E+02 -0.11521777793E+03  0.17692830655E+03  0.12499972987E+03 0.  0.
          2    1    1    2  501    0 -0.35234836616E+02 -0.34089091764E+02 -0.50988859685E+03  0.51224012054E+03  0.00000000000E+00 0. -1.
          1    1    1    2  502    0  0.52038381808E+02 -0.11967370435E+02  0.12162881610E+04  0.12174596920E+04  0.00000000000E+00 0. -1.
         22    1    3    3    0    0 -0.45613910043E+02  0.16376002156E+02  0.60121293689E+01  0.48835928737E+02  0.00000000000E+00 0.  1.
         22    1    3    3    0    0  0.28810364851E+02  0.29680460043E+02 -0.12122990730E+03  0.12809237782E+03  0.00000000000E+00 0.  1.
</event>
<event>
 7    1  0.6140348E-006  0.9811429E+02  0.7818608E-02  0.1319132E+00
          2   -1    0    0  502    0  0.00000000000E+00  0.00000000000E+00  0.18159347214E+04  0.18159347214E+04  0.00000000000E+00 0. -1.
          1   -1    0    0  501    0 -0.00000000000E+00 -0.00000000000E+00 -0.12228389568E+03  0.12228389568E+03  0.00000000000E+00 0. -1.
         25    2    1    2    0    0 -0.48153064117E+01  0.31531670186E+02  0.66823065448E+03  0.68056869355E+03  0.12499642256E+03 0.  0.
          2    1    1    2  501    0  0.48387930292E+02 -0.87885579192E+02 -0.93097391032E+02  0.13686632546E+03  0.00000000000E+00 0. -1.
          1    1    1    2  502    0 -0.43572623880E+02  0.56353909007E+02  0.11185175622E+04  0.11207835981E+04  0.00000000000E+00 0. -1.
         22    1    3    3    0    0  0.49022365198E+02 -0.30586240556E+00  0.47370107104E+03  0.47623102644E+03  0.00000000000E+00 0. -1.
         22    1    3    3    0    0 -0.53837671609E+02  0.31837532591E+02  0.19452958344E+03  0.20433766711E+03  0.00000000000E+00 0. -1.
</event>
<event>
 7    1  0.6140348E-006  0.5392351E+02  0.7818608E-02  0.1426134E+00
          2   -1    0    0  502    0  0.00000000000E+00  0.00000000000E+00  0.17407813396E+04  0.17407813396E+04  0.00000000000E+00 0. -1.
          1   -1    0    0  501    0 -0.00000000000E+00 -0.00000000000E+00 -0.12744307033E+03  0.12744307033E+03  0.00000000000E+00 0. -1.
         25    2    1    2    0    0  0.66054295836E+01 -0.15831372957E+02  0.19424812457E+03  0.23162978980E+03  0.12500304618E+03 0.  0.
          2    1    1    2  501    0  0.47376205568E+02  0.25753455760E+02 -0.10154222913E+03  0.11497203849E+03  0.00000000000E+00 0. -1.
          1    1    1    2  502    0 -0.53981635152E+02 -0.99220828032E+01  0.15206323739E+04  0.15216225817E+04  0.00000000000E+00 0. -1.
         22    1    3    3    0    0  0.49736770523E+02  0.31157171499E+02  0.12114424794E+03  0.13461220036E+03  0.00000000000E+00 0. -1.
         22    1    3    3    0    0 -0.43131340939E+02 -0.46988544457E+02  0.73103876626E+02  0.97017589431E+02  0.00000000000E+00 0. -1.
</event>
<event>
 7    1  0.6140348E-006  0.2699198E+02  0.7818608E-02  0.1647184E+00
          2   -1    0    0  502    0  0.00000000000E+00  0.00000000000E+00  0.33701314436E+02  0.33701314436E+02  0.00000000000E+00 0. -1.
          1   -1    0    0  501    0 -0.00000000000E+00 -0.00000000000E+00 -0.17095412370E+04  0.17095412370E+04  0.00000000000E+00 0. -1.
         25    2    1    2    0    0 -0.14979720381E+02  0.30858591514E+02 -0.11352435938E+04  0.11426164577E+04  0.12497082689E+03 0.  0.
          2    1    1    2  501    0 -0.94640501672E+01 -0.25500534504E+02 -0.56501075995E+03  0.56566509912E+03  0.00000000000E+00 0. -1.
          1    1    1    2  502    0  0.24443770548E+02 -0.53580570104E+01  0.24414431160E+02  0.34960994586E+02  0.00000000000E+00 0. -1.
         22    1    3    3    0    0 -0.51308113719E+02 -0.10655605984E+02 -0.87612461853E+03  0.87769038486E+03  0.00000000000E+00 0.  1.
         22    1    3    3    0    0  0.36328393338E+02  0.41514197498E+02 -0.25911897523E+03  0.26492607286E+03  0.00000000000E+00 0.  1.
</event>
<event>
 7    1  0.6140348E-006  0.1245802E+03  0.7818608E-02  0.1311565E+00
          2   -1    0    0  502    0  0.00000000000E+00  0.00000000000E+00  0.87881380463E+03  0.87881380463E+03  0.00000000000E+00 0. -1.
          1   -1    0    0  501    0 -0.00000000000E+00 -0.00000000000E+00 -0.15455958082E+04  0.15455958082E+04  0.00000000000E+00 0. -1.
         25    2    1    2    0    0 -0.16008031507E+02 -0.10709876416E+03  0.79804546077E+02  0.18363065818E+03  0.12500020276E+03 0.  0.
          2    1    1    2  501    0 -0.43140008540E+02  0.11749558508E+03 -0.14898474144E+04  0.14950958467E+04  0.00000000000E+00 0. -1.
          1    1    1    2  502    0  0.59148040047E+02 -0.10396820918E+02  0.74326086468E+03  0.74568310795E+03  0.00000000000E+00 0. -1.
         22    1    3    3    0    0  0.52143149678E+02 -0.31600927298E+02  0.46257839488E+02  0.76533093355E+02  0.00000000000E+00 0. -1.
         22    1    3    3    0    0 -0.68151181185E+02 -0.75497836866E+02  0.33546706589E+02  0.10709756482E+03  0.00000000000E+00 0. -1.
</event>
<event>
 7    1  0.6140348E-006  0.6114139E+02  0.7818608E-02  0.1400879E+00
          2   -1    0    0  502    0  0.00000000000E+00  0.00000000000E+00  0.35802813191E+03  0.35802813191E+03  0.00000000000E+00 0. -1.
          1   -1    0    0  501    0 -0.00000000000E+00 -0.00000000000E+00 -0.83498703523E+02  0.83498703523E+02  0.00000000000E+00 0. -1.
         25    2    1    2    0    0 -0.28055061244E+02  0.32136140196E+02  0.16520626010E+03  0.21152239186E+03  0.12501518273E+03 0.  0.
          2    1    1    2  501    0 -0.21324322303E+02 -0.61547423543E+02 -0.35507615095E+02  0.74186270941E+02  0.00000000000E+00 0. -1.
          1    1    1    2  502    0  0.49379383546E+02  0.29411283347E+02  0.14483078338E+03  0.15581817263E+03  0.00000000000E+00 0. -1.
         22    1    3    3    0    0  0.34361834202E+02  0.53714568778E+02  0.10079396326E+03  0.11927033821E+03  0.00000000000E+00 0.  1.
         22    1    3    3    0    0 -0.62416895446E+02 -0.21578428582E+02  0.64412296849E+02  0.92252053650E+02  0.00000000000E+00 0.  1.
</event>
<event>
 7    1  0.6140348E-006  0.2332983E+03  0.7818608E-02  0.1275293E+00
          2   -1    0    0  502    0  0.00000000000E+00  0.00000000000E+00  0.24439414097E+04  0.24439414097E+04  0.00000000000E+00 0. -1.
          1   -1    0    0  501    0 -0.00000000000E+00 -0.00000000000E+00 -0.36281293150E+03  0.36281293150E+03  0.00000000000E+00 0. -1.
         25    2    1    2    0    0 -0.13697500260E+03  0.13396268699E+03  0.77385083586E+02  0.24149467047E+03  0.12499228720E+03 0.  0.
          2    1    1    2  501    0 -0.34803294944E+02  0.28464310221E+02 -0.27279681530E+03  0.27647710345E+03  0.00000000000E+00 0. -1.
          1    1    1    2  502    0  0.17177829754E+03 -0.16242699721E+03  0.22765402099E+04  0.22887825673E+04  0.00000000000E+00 0. -1.
         22    1    3    3    0    0 -0.77891201982E+02  0.12699777682E+03  0.98235778653E+02  0.17845375555E+03  0.00000000000E+00 0.  1.
         22    1    3    3    0    0 -0.59083800616E+02  0.69649101770E+01 -0.20850695067E+02  0.63040914919E+02  0.00000000000E+00 0.  1.
</event>
<event>
 7    1  0.6140348E-006  0.1455066E+03  0.7818608E-02  0.1282563E+00
          2   -1    0    0  502    0  0.00000000000E+00  0.00000000000E+00  0.93340596151E+03  0.93340596151E+03  0.00000000000E+00 0. -1.
          1   -1    0    0  501    0 -0.00000000000E+00 -0.00000000000E+00 -0.13424180717E+04  0.13424180717E+04  0.00000000000E+00 0. -1.
         25    2    1    2    0    0 -0.54295018290E+02 -0.15692969839E+03 -0.18058920384E+03  0.27533629013E+03  0.12499093116E+03 0.  0.
          2    1    1    2  501    0 -0.44548913849E+02  0.50394021968E+02 -0.11074689676E+04  0.11095096563E+04  0.00000000000E+00 0. -1.
          1    1    1    2  502    0  0.98843932138E+02  0.10653567643E+03  0.87904606128E+03  0.89097808678E+03  0.00000000000E+00 0. -1.
         22    1    3    3    0    0 -0.64855628979E+02 -0.12477572830E+03 -0.65047728112E+02  0.15494012365E+03  0.00000000000E+00 0.  1.
         22    1    3    3    0    0  0.10560610689E+02 -0.32153970094E+02 -0.11554147573E+03  0.12039616649E+03  0.00000000000E+00 0.  1.
</event>
<event>
 7    1  0.6140348E-006  0.6588818E+02  0.7818608E-02  0.1384484E+00
          2   -1    0    0  502    0  0.00000000000E+00  0.00000000000E+00  0.11675436223E+04  0.11675436223E+04  0.00000000000E+00 0. -1.
          1   -1    0    0  501    0 -0.00000000000E+00 -0.00000000000E+00 -0.21139111871E+03  0.21139111871E+03  0.00000000000E+00 0. -1.
         25    2    1    2    0    0 -0.68674256741E+00  0.36436301106E+02  0.35347531227E+03  0.37669306246E+03  0.12499916510E+03 0.  0.
          2    1    1    2  501    0 -0.59737725129E+02 -0.29573810362E+02 -0.19302946911E+03  0.20421454897E+03  0.00000000000E+00 0. -1.
          1    1    1    2  502    0  0.60424467697E+02 -0.68624907443E+01  0.79570666042E+03  0.79802712956E+03  0.00000000000E+00 0. -1.
         22    1    3    3    0    0  0.90426400187E+01  0.82394097099E+02  0.23839458889E+03  0.25239361440E+03  0.00000000000E+00 0. -1.
         22    1    3    3    0    0 -0.97293825861E+01 -0.45957795992E+02  0.11508072337E+03  0.12429944807E+03  0.00000000000E+00 0. -1.
</event>
<event>
 7    1  0.6140348E-006  0.2541028E+03  0.7818608E-02  0.1295114E+00
          2   -1    0    0  502    0  0.00000000000E+00  0.00000000000E+00  0.21978946764E+04  0.21978946764E+04  0.00000000000E+00 0. -1.
          1   -1    0    0  501    0 -0.00000000000E+00 -0.00000000000E+00 -0.21498025639E+03  0.21498025639E+03  0.00000000000E+00 0. -1.
         25    2    1    2    0    0 -0.14258598452E+03  0.23397126538E+03  0.42933157342E+03  0.52442785477E+03  0.12500263563E+03 0.  0.
          2    1    1    2  501    0  0.33120041083E+02 -0.86750389679E+01 -0.15645719823E+03  0.16015944649E+03  0.00000000000E+00 0. -1.
          1    1    1    2  502    0  0.10946594344E+03 -0.22529622642E+03  0.17100400448E+04  0.17282876315E+04  0.00000000000E+00 0. -1.
         22    1    3    3    0    0 -0.11412874464E+03  0.24516716151E+03  0.38049708036E+03  0.46680867129E+03  0.00000000000E+00 0. -1.
         22    1    3    3    0    0 -0.28457239885E+02 -0.11195896122E+02  0.48834493063E+02  0.57619183477E+02  0.00000000000E+00 0. -1.
</event>
<event>
 7    1  0.6140348E-006  0.1136083E+03  0.7818608E-02  0.1293120E+00
          2   -1    0    0  502    0  0.00000000000E+00  0.00000000000E+00  0.58980718540E+02  0.58980718540E+02  0.00000000000E+00 0. -1.
          1   -1    0    0  501    0 -0.00000000000E+00 -0.00000000000E+00 -0.23286289305E+04  0.23286289305E+04  0.00000000000E+00 0. -1.
         25    2    1    2    0    0  0.22704314524E+02 -0.72772714604E+02 -0.12272942407E+03  0.19104710790E+03  0.12500052806E+03 0.  0.
          2    1    1    2  501    0  0.47920090231E+02  0.10590858737E+03 -0.21046077182E+04  0.21078156019E+04  0.00000000000E+00 0. -1.
          1    1    1    2  502    0 -0.70624404755E+02 -0.33135872769E+02 -0.42311069663E+02  0.88746939255E+02  0.00000000000E+00 0. -1.
         22    1    3    3    0    0  0.60281664644E+02 -0.12805124759E+02 -0.17193519430E+02  0.63980211181E+02  0.00000000000E+00 0. -1.
         22    1    3    3    0    0 -0.37577350120E+02 -0.59967589846E+02 -0.10553590464E+03  0.12706689672E+03  0.00000000000E+00 0. -1.
</event>
<event>
 7    1  0.6140348E-006  0.2024375E+03  0.7818608E-02  0.1199727E+00
          2   -1    0    0  502    0  0.00000000000E+00  0.00000000000E+00  0.47783452651E+04  0.47783452651E+04  0.00000000000E+00 0. -1.
          1   -1    0    0  501    0 -0.00000000000E+00 -0.00000000000E+00 -0.79998904252E+03  0.79998904252E+03  0.00000000000E+00 0. -1.
         25    2    1    2    0    0 -0.18636866425E+03  0.12600627350E+03  0.24560216376E+03  0.35574997551E+03  0.12500704883E+03 0.  0.
          2    1    1    2  501    0 -0.15757053579E+02 -0.11093541906E+03 -0.73839267970E+03  0.74684583508E+03  0.00000000000E+00 0. -1.
          1    1    1    2  502    0  0.20212571783E+03 -0.15070854440E+02  0.44711467386E+04  0.44757384971E+04  0.00000000000E+00 0. -1.
         22    1    3    3    0    0 -0.16370494711E+03  0.12802569359E+03  0.14699925488E+03  0.25455582661E+03  0.00000000000E+00 0. -1.
         22    1    3    3    0    0 -0.22663717143E+02 -0.20194200889E+01  0.98602908877E+02  0.10119414890E+03  0.00000000000E+00 0. -1.
</event>
<event>
 7    1  0.6140348E-006  0.1592110E+03  0.7818608E-02  0.1274057E+00
          2   -1    0    0  502    0  0.00000000000E+00  0.00000000000E+00  0.10929251302E+04  0.10929251302E+04  0.00000000000E+00 0. -1.
          1   -1    0    0  501    0 -0.00000000000E+00 -0.00000000000E+00 -0.64168358522E+03  0.64168358522E+03  0.00000000000E+00 0. -1.
         25    2    1    2    0    0  0.63166177716E+02 -0.18521985881E+03 -0.14897403772E+03  0.27588933452E+03  0.12500119553E+03 0.  0.
          2    1    1    2  501    0 -0.89404726853E+02  0.12393089181E+03 -0.41452282367E+03  0.44179321234E+03  0.00000000000E+00 0. -1.
          1    1    1    2  502    0  0.26238549137E+02  0.61288966996E+02  0.10147384064E+04  0.10169261686E+04  0.00000000000E+00 0. -1.
         22    1    3    3    0    0  0.53805419821E+02 -0.14763268640E+03 -0.17026305195E+03  0.23168931817E+03  0.00000000000E+00 0. -1.
         22    1    3    3    0    0  0.93607578950E+01 -0.37587172408E+02  0.21289014232E+02  0.44200016346E+02  0.00000000000E+00 0. -1.
</event>
<event>
 7    1  0.6140348E-006  0.6526963E+02  0.7818608E-02  0.1528510E+00
          2   -1    0    0  502    0  0.00000000000E+00  0.00000000000E+00  0.21833640824E+04  0.21833640824E+04  0.00000000000E+00 0. -1.
          1   -1    0    0  501    0 -0.00000000000E+00 -0.00000000000E+00 -0.41879764928E+03  0.41879764928E+03  0.00000000000E+00 0. -1.
         25    2    1    2    0    0  0.45538082828E+02  0.73057334737E+02  0.75587357520E+02  0.16955494013E+03  0.12499735181E+03 0.  0.
          2    1    1    2  501    0 -0.14026256611E+02 -0.16156971974E+02 -0.37099232096E+03  0.37160878061E+03  0.00000000000E+00 0. -1.
          1    1    1    2  502    0 -0.31511826217E+02 -0.56900362764E+02  0.20599713965E+04  0.20609980109E+04  0.00000000000E+00 0. -1.
         22    1    3    3    0    0  0.32528398836E+02  0.22337235890E+01 -0.28284939282E+02  0.43163920606E+02  0.00000000000E+00 0. -1.
         22    1    3    3    0    0  0.13009683992E+02  0.70823611148E+02  0.10387229680E+03  0.12639101953E+03  0.00000000000E+00 0. -1.
</event>
<event>
 7    1  0.6140348E-006  0.1697310E+03  0.7818608E-02  0.1318370E+00
          2   -1    0    0  502    0  0.00000000000E+00  0.00000000000E+00  0.49614733051E+02  0.49614733051E+02  0.00000000000E+00 0. -1.
          1   -1    0    0  501    0 -0.00000000000E+00 -0.00000000000E+00 -0.23608766404E+04  0.23608766404E+04  0.00000000000E+00 0. -1.
         25    2    1    2    0    0  0.87132826557E+01  0.14124976929E+03 -0.68463073260E+03  0.71019136365E+03  0.12500045744E+03 0.  0.
          2    1    1    2  501    0  0.22513170877E+02  0.34814484718E+02 -0.14443916871E+04  0.14449865872E+04  0.00000000000E+00 0. -1.
          1    1    1    2  502    0 -0.31226453533E+02 -0.17606425401E+03 -0.18223948765E+03  0.25531342268E+03  0.00000000000E+00 0. -1.
         22    1    3    3    0    0  0.48430922931E+02  0.69539994560E+02 -0.51343617398E+03  0.52038261874E+03  0.00000000000E+00 0. -1.
         22    1    3    3    0    0 -0.39717640275E+02  0.71709774733E+02 -0.17119455862E+03  0.18980874491E+03  0.00000000000E+00 0. -1.
</event>
<event>
 7    1  0.6140348E-006  0.5462799E+02  0.7818608E-02  0.1543133E+00
          2   -1    0    0  502    0  0.00000000000E+00  0.00000000000E+00  0.61489507038E+03  0.61489507038E+03  0.00000000000E+00 0. -1.
          1   -1    0    0  501    0 -0.00000000000E+00 -0.00000000000E+00 -0.29754987385E+03  0.29754987385E+03  0.00000000000E+00 0. -1.
         25    2    1    2    0    0  0.86441501647E+01 -0.75985385947E+02  0.65274805843E+02  0.16042132805E+03  0.12500280799E+03 0.  0.
          2    1    1    2  501    0 -0.73701957649E+01  0.22030267543E+02 -0.24798173577E+03  0.24906744819E+03  0.00000000000E+00 0. -1.
          1    1    1    2  502    0 -0.12739543998E+01  0.53955118404E+02  0.50005212645E+03  0.50295616800E+03  0.00000000000E+00 0. -1.
         22    1    3    3    0    0  0.48630638946E+02 -0.80841489253E+02  0.73150004994E+02  0.11937842627E+03  0.00000000000E+00 0.  1.
         22    1    3    3    0    0 -0.39986488781E+02  0.48561033063E+01 -0.78751991510E+01  0.41042901774E+02  0.00000000000E+00 0.  1.
</event>
<event>
 7    1  0.6140348E-006  0.3626025E+02  0.7818608E-02  0.1575563E+00
          2   -1    0    0  502    0  0.00000000000E+00  0.00000000000E+00  0.46445077742E+02  0.46445077742E+02  0.00000000000E+00 0. -1.
          1   -1    0    0  501    0 -0.00000000000E+00 -0.00000000000E+00 -0.13079147912E+04  0.13079147912E+04  0.00000000000E+00 0. -1.
         25    2    1    2    0    0  0.25130756432E+02 -0.50951480390E+01 -0.15122659013E+03  0.19787252806E+03  0.12500616122E+03 0.  0.
          2    1    1    2  501    0 -0.16899041491E+02  0.32369258699E+02 -0.11241792617E+04  0.11247721364E+04  0.00000000000E+00 0. -1.
          1    1    1    2  502    0 -0.82317149413E+01 -0.27274110660E+02  0.13936138331E+02  0.31715204473E+02  0.00000000000E+00 0. -1.
         22    1    3    3    0    0 -0.55879014014E+01  0.47903023892E+02 -0.11954691004E+03  0.12890844829E+03  0.00000000000E+00 0.  1.
         22    1    3    3    0    0  0.30718657834E+02 -0.52998171931E+02 -0.31679680090E+02  0.68964079764E+02  0.00000000000E+00 0.  1.
</event>
<event>
 7    1  0.6140348E-006  0.9595558E+02  0.7818608E-02  0.1406459E+00
          2   -1    0    0  502    0  0.00000000000E+00  0.00000000000E+00  0.27454715895E+04  0.27454715895E+04  0.00000000000E+00 0. -1.
          1   -1    0    0  501    0 -0.00000000000E+00 -0.00000000000E+00 -0.54907423919E+03  0.54907423919E+03  0.00000000000E+00 0. -1.
         25    2    1    2    0    0  0.19461971356E+02  0.81794605080E+02  0.45184637211E+03  0.47629641677E+03  0.12499602749E+03 0.  0.
          2    1    1    2  501    0  0.12900840093E+02 -0.95247862879E+02 -0.53241105136E+03  0.54101766576E+03  0.00000000000E+00 0. -1.
          1    1    1    2  502    0 -0.32362811448E+02  0.13453257799E+02  0.22769620296E+04  0.22772317462E+04  0.00000000000E+00 0. -1.
         22    1    3    3    0    0 -0.58584645892E+01  0.11117629518E+03  0.35175271530E+03  0.36895048847E+03  0.00000000000E+00 0.  1.
         22    1    3    3    0    0  0.25320435945E+02 -0.29381690100E+02  0.10009365681E+03  0.10734592830E+03  0.00000000000E+00 0.  1.
</event>
<event>
 7    1  0.6140348E-006  0.5161959E+02  0.7818608E-02  0.1501154E+00
          2   -1    0    0  502    0  0.00000000000E+00  0.00000000000E+00  0.17314402603E+04  0.17314402603E+04  0.00000000000E+00 0. -1.
          1   -1    0    0  501    0 -0.00000000000E+00 -0.00000000000E+00 -0.21038499615E+03  0.21038499615E+03  0.00000000000E+00 0. -1.
         25    2    1    2    0    0 -0.73871513479E+02 -0.37310622096E+02  0.66195492305E+03  0.67871276249E+03  0.12497043967E+03 0.  0.
          2    1    1    2  501    0  0.48669778934E+02  0.16748091258E+02 -0.19847331350E+03  0.20503878198E+03  0.00000000000E+00 0. -1.
          1    1    1    2  502    0  0.25201734546E+02  0.20562530838E+02  0.10575736546E+04  0.10580737120E+04  0.00000000000E+00 0. -1.
         22    1    3    3    0    0 -0.45881739807E+02  0.11851797698E+02  0.56091878919E+03  0.56291694523E+03  0.00000000000E+00 0. -1.
         22    1    3    3    0    0 -0.27989773672E+02 -0.49162419794E+02  0.10103613386E+03  0.11579581726E+03  0.00000000000E+00 0. -1.
</event>
<event>
 7    1  0.6140348E-006  0.9093715E+02  0.7818608E-02  0.1358413E+00
          2   -1    0    0  502    0  0.00000000000E+00  0.00000000000E+00  0.39315750394E+03  0.39315750394E+03  0.00000000000E+00 0. -1.
          1   -1    0    0  501    0 -0.00000000000E+00 -0.00000000000E+00 -0.66084170287E+03  0.66084170287E+03  0.00000000000E+00 0. -1.
         25    2    1    2    0    0 -0.24653375670E+02  0.28932452759E+02 -0.50394993800E+03  0.52061077198E+03  0.12500064054E+03 0.  0.
          2    1    1    2  501    0 -0.20543071376E+02  0.50642276859E+02 -0.13782611902E+03  0.14826563011E+03  0.00000000000E+00 0. -1.
          1    1    1    2  502    0  0.45196447046E+02 -0.79574729617E+02  0.37409185810E+03  0.38512280472E+03  0.00000000000E+00 0. -1.
         22    1    3    3    0    0 -0.86115807142E+01 -0.49152119063E+02 -0.22678615585E+03  0.23221121983E+03  0.00000000000E+00 0.  1.
         22    1    3    3    0    0 -0.16041794955E+02  0.78084571822E+02 -0.27716378216E+03  0.28839955215E+03  0.00000000000E+00 0.  1.
</event>
<event>
 7    1  0.6140348E-006  0.9030039E+02  0.7818608E-02  0.1379567E+00
          2   -1    0    0  502    0  0.00000000000E+00  0.00000000000E+00  0.16778622830E+03  0.16778622830E+03  0.00000000000E+00 0. -1.
          1   -1    0    0  501    0 -0.00000000000E+00 -0.00000000000E+00 -0.25270781277E+04  0.25270781277E+04  0.00000000000E+00 0. -1.
         25    2    1    2    0    0  0.50947914665E+02 -0.23121804852E+02  0.87751447399E+02  0.16265097332E+03  0.12499885893E+03 0.  0.
          2    1    1    2  501    0 -0.90559371760E+02 -0.62112174921E+00 -0.24760315490E+04  0.24776871508E+04  0.00000000000E+00 0. -1.
          1    1    1    2  502    0  0.39611457095E+02  0.23742926602E+02  0.28988202195E+02  0.54526231883E+02  0.00000000000E+00 0. -1.
         22    1    3    3    0    0  0.33769949840E+02  0.28755870866E+02  0.97523774286E+02  0.10713634384E+03  0.00000000000E+00 0.  1.
         22    1    3    3    0    0  0.17177964824E+02 -0.51877675719E+02 -0.97723268872E+01  0.55514629480E+02  0.00000000000E+00 0.  1.
</event>
<event>
 7    1  0.6140348E-006  0.4406565E+02  0.7818608E-02  0.1544300E+00
          2   -1    0    0  502    0  0.00000000000E+00  0.00000000000E+00  0.47365587457E+04  0.47365587457E+04  0.00000000000E+00 0. -1.
          1   -1    0    0  501    0 -0.00000000000E+00 -0.00000000000E+00 -0.94619665773E+02  0.94619665773E+02  0.00000000000E+00 0. -1.
         25    2    1    2    0    0 -0.10662223475E+01  0.67514631419E+02  0.30437739238E+04  0.30470878133E+04  0.12500032393E+03 0.  0.
          2    1    1    2  501    0 -0.12332773842E+02 -0.42268128963E+02 -0.87621151286E+02  0.98062011959E+02  0.00000000000E+00 0. -1.
          1    1    1    2  502    0  0.13398996190E+02 -0.25246502456E+02  0.16857863075E+04  0.16860285862E+04  0.00000000000E+00 0. -1.
         22    1    3    3    0    0  0.70817115656E+01  0.10731419553E+02  0.28474607837E+02  0.31242875920E+02  0.00000000000E+00 0.  1.
         22    1    3    3    0    0 -0.81479339132E+01  0.56783211866E+02  0.30152993159E+04  0.30158449374E+04  0.00000000000E+00 0.  1.
</event>
<event>
 7    1  0.6140348E-006  0.8757485E+02  0.7818608E-02  0.1324655E+00
          2   -1    0    0  502    0  0.00000000000E+00  0.00000000000E+00  0.56012082992E+03  0.56012082992E+03  0.00000000000E+00 0. -1.
          1   -1    0    0  501    0 -0.00000000000E+00 -0.00000000000E+00 -0.88374815382E+03  0.88374815382E+03  0.00000000000E+00 0. -1.
         25    2    1    2    0    0  0.19196175600E+02  0.44126104036E+02 -0.10978782736E+03  0.17318889070E+03  0.12500167442E+03 0.  0.
          2    1    1    2  501    0  0.69139576081E+02 -0.31497841787E+02 -0.73652445187E+03  0.74043275401E+03  0.00000000000E+00 0. -1.
          1    1    1    2  502    0 -0.88335751681E+02 -0.12628262249E+02  0.52268495533E+03  0.53024733904E+03  0.00000000000E+00 0. -1.
         22    1    3    3    0    0 -0.30750694159E+02  0.44098420608E+02 -0.11088440541E+03  0.12322997709E+03  0.00000000000E+00 0.  1.
         22    1    3    3    0    0  0.49946869759E+02  0.27683427705E-01  0.10965780483E+01  0.49958913604E+02  0.00000000000E+00 0.  1.
</event>
<event>
 7    1  0.6140348E-006  0.4785461E+02  0.7818608E-02  0.1576987E+00
          2   -1    0    0  502    0  0.00000000000E+00  0.00000000000E+00  0.10875077829E+04  0.10875077829E+04  0.00000000000E+00 0. -1.
          1   -1    0    0  501    0 -0.00000000000E+00 -0.00000000000E+00 -0.53803949873E+03  0.53803949873E+03  0.00000000000E+00 0. -1.
         25    2    1    2    0    0 -0.54833734552E+01 -0.40717323025E+02 -0.40165217088E+03  0.42265478547E+03  0.12499853411E+03 0.  0.
          2    1    1    2  501    0  0.20896214985E+02 -0.46023841279E+01 -0.12444058693E+03  0.12626675499E+03  0.00000000000E+00 0. -1.
          1    1    1    2  502    0 -0.15412841530E+02  0.45319707153E+02  0.10755610420E+04  0.10766257412E+04  0.00000000000E+00 0. -1.
         22    1    3    3    0    0  0.94240664493E+01  0.30742033227E+02 -0.30250084822E+02  0.44146950825E+02  0.00000000000E+00 0.  1.
         22    1    3    3    0    0 -0.14907439905E+02 -0.71459356252E+02 -0.37140208606E+03  0.37850783465E+03  0.00000000000E+00 0.  1.
</event>
<event>
 7    1  0.6140348E-006  0.1378152E+03  0.7818608E-02  0.1365827E+00
          2   -1    0    0  502    0  0.00000000000E+00  0.00000000000E+00  0.30636695341E+02  0.30636695341E+02  0.00000000000E+00 0. -1.
          1   -1    0    0  501    0 -0.00000000000E+00 -0.00000000000E+00 -0.26669259502E+04  0.26669259502E+04  0.00000000000E+00 0. -1.
         25    2    1    2    0    0 -0.19371917869E+02 -0.12023036064E+03 -0.85306912528E+03  0.87073631272E+03  0.12499673176E+03 0.  0.
          2    1    1    2  501    0 -0.31184790790E+02 -0.13267087919E+02 -0.15692087953E+04  0.15695747036E+04  0.00000000000E+00 0. -1.
          1    1    1    2  502    0  0.50556708659E+02  0.13349744856E+03 -0.21401133426E+03  0.25725162926E+03  0.00000000000E+00 0. -1.
         22    1    3    3    0    0  0.46763846641E+02 -0.13018144230E+02 -0.23587566837E+03  0.24081872926E+03  0.00000000000E+00 0.  1.
         22    1    3    3    0    0 -0.66135764510E+02 -0.10721221641E+03 -0.61719345691E+03  0.62991758346E+03  0.00000000000E+00 0.  1.
</event>
<event>
 7    1  0.6140348E-006  0.5799382E+02  0.7818608E-02  0.1548629E+00
          2   -1    0    0  502    0  0.00000000000E+00  0.00000000000E+00  0.43918041286E+03  0.43918041286E+03  0.00000000000E+00 0. -1.
          1   -1    0    0  501    0 -0.00000000000E+00 -0.00000000000E+00 -0.86033864512E+03  0.86033864512E+03  0.00000000000E+00 0. -1.
         25    2    1    2    0    0  0.27997264244E+02 -0.49472195146E+02 -0.49846631055E+03  0.51703568284E+03  0.12500355863E+03 0.  0.
          2    1    1    2  501    0 -0.88709183112E+01  0.58427469721E+02 -0.34984862967E+03  0.35480491273E+03  0.00000000000E+00 0. -1.
          1    1    1    2  502    0 -0.19126345932E+02 -0.89552745751E+01  0.42715670797E+03  0.42767846241E+03  0.00000000000E+00 0. -1.
         22    1    3    3    0    0 -0.13334004762E+02  0.23574310571E+02 -0.30434499953E+03  0.30554774183E+03  0.00000000000E+00 0.  1.
         22    1    3    3    0    0  0.41331269005E+02 -0.73046505718E+02 -0.19412131103E+03  0.21148794100E+03  0.00000000000E+00 0.  1.
</event>
<event>
 7    1  0.6140348E-006  0.5735866E+02  0.7818608E-02  0.1461821E+00
          2   -1    0    0  502    0  0.00000000000E+00  0.00000000000E+00  0.25508148802E+04  0.25508148802E+04  0.00000000000E+00 0. -1.
          1   -1    0    0  501    0 -0.00000000000E+00 -0.00000000000E+00 -0.25304017196E+03  0.25304017196E+03  0.00000000000E+00 0. -1.
         25    2    1    2    0    0  0.25054286434E+02  0.10573703219E+01  0.14290610978E+03  0.19150905206E+03  0.12499890203E+03 0.  0.
          2    1    1    2  501    0  0.25741989741E+02 -0.28797791878E+02 -0.22675397223E+03  0.23002027470E+03  0.00000000000E+00 0. -1.
          1    1    1    2  502    0 -0.50796276175E+02  0.27740421556E+02  0.23816225707E+04  0.23823257254E+04  0.00000000000E+00 0. -1.
         22    1    3    3    0    0  0.26690357826E+02 -0.60186434955E+02  0.66579865798E+02  0.93635787406E+02  0.00000000000E+00 0.  1.
         22    1    3    3    0    0 -0.16360713929E+01  0.61243805276E+02  0.76326243977E+02  0.97873264654E+02  0.00000000000E+00 0.  1.
</event>
<event>
 7    1  0.6140348E-006  0.4985041E+02  0.7818608E-02  0.1467239E+00
          2   -1    0    0  502    0  0.00000000000E+00  0.00000000000E+00  0.11299971312E+04  0.11299971312E+04  0.00000000000E+00 0. -1.
          1   -1    0    0  501    0 -0.00000000000E+00 -0.00000000000E+00 -0.16779761661E+03  0.16779761661E+03  0.00000000000E+00 0. -1.
         25    2    1    2    0    0 -0.95070823647E+01  0.21895252618E+01  0.61637584601E+02  0.13971444610E+03  0.12500302387E+03 0.  0.
          2    1    1    2  501    0  0.51834250487E+02  0.37298334885E+01 -0.12305132820E+03  0.13357518689E+03  0.00000000000E+00 0. -1.
          1    1    1    2  502    0 -0.42327168122E+02 -0.59193587503E+01  0.10236132582E+04  0.10245051148E+04  0.00000000000E+00 0. -1.
         22    1    3    3    0    0 -0.28010363545E+02 -0.54221630449E+02  0.11709237097E+02  0.62142351966E+02  0.00000000000E+00 0.  1.
         22    1    3    3    0    0  0.18503281180E+02  0.56411155711E+02  0.49928347504E+02  0.77572094129E+02  0.00000000000E+00 0.  1.
</event>
<event>
 7    1  0.6140348E-006  0.9185876E+02  0.7818608E-02  0.1363625E+00
          2   -1    0    0  502    0  0.00000000000E+00  0.00000000000E+00  0.31193057881E+04  0.31193057881E+04  0.00000000000E+00 0. -1.
          1   -1    0    0  501    0 -0.00000000000E+00 -0.00000000000E+00 -0.57778188634E+03  0.57778188634E+03  0.00000000000E+00 0. -1.
         25    2    1    2    0    0 -0.93170686020E+02  0.40516733190E+02 -0.34294950359E+03  0.37889577661E+03  0.12500106047E+03 0.  0.
          2    1    1    2  501    0  0.90760209231E+02  0.11214346298E+02 -0.20699147933E+03  0.22629328240E+03  0.00000000000E+00 0. -1.
          1    1    1    2  502    0  0.24104767894E+01 -0.51731079488E+02  0.30914648846E+04  0.30918986154E+04  0.00000000000E+00 0. -1.
         22    1    3    3    0    0  0.23328115300E+02  0.16088867291E+02 -0.14636010021E+03  0.14907827323E+03  0.00000000000E+00 0.  1.
         22    1    3    3    0    0 -0.11649880132E+03  0.24427865899E+02 -0.19658940338E+03  0.22981750338E+03  0.00000000000E+00 0.  1.
</event>
<event>
 7    1  0.6140348E-006  0.6431917E+02  0.7818608E-02  0.1386705E+00
          2   -1    0    0  502    0  0.00000000000E+00  0.00000000000E+00  0.24260142162E+03  0.24260142162E+03  0.00000000000E+00 0. -1.
          1   -1    0    0  501    0 -0.00000000000E+00 -0.00000000000E+00 -0.40370418141E+03  0.40370418141E+03  0.00000000000E+00 0. -1.
         25    2    1    2    0    0 -0.58432680200E+01 -0.23842123438E+01  0.21497785789E+02  0.12699576805E+03  0.12500376818E+03 0.  0.
          2    1    1    2  501    0 -0.58925792014E+02  0.25781913886E+02 -0.34077626447E+03  0.34679304848E+03  0.00000000000E+00 0. -1.
          1    1    1    2  502    0  0.64769060034E+02 -0.23397701542E+02  0.15817571889E+03  0.17251678649E+03  0.00000000000E+00 0. -1.
         22    1    3    3    0    0  0.26377330119E+02  0.24727500574E+01  0.66415086883E+02  0.71504138360E+02  0.00000000000E+00 0. -1.
         22    1    3    3    0    0 -0.32220598139E+02 -0.48569624012E+01 -0.44917301093E+02  0.55491629690E+02  0.00000000000E+00 0. -1.
</event>
<event>
 7    1  0.6140348E-006  0.4207891E+02  0.7818608E-02  0.1552082E+00
          2   -1    0    0  502    0  0.00000000000E+00  0.00000000000E+00  0.28542675298E+04  0.28542675298E+04  0.00000000000E+00 0. -1.
          1   -1    0    0  501    0 -0.00000000000E+00 -0.00000000000E+00 -0.25243837218E+03  0.25243837218E+03  0.00000000000E+00 0. -1.
         25    2    1    2    0    0 -0.18659205879E+02  0.21257316912E+02 -0.63366279815E+02  0.14295415470E+03  0.12498226051E+03 0.  0.
          2    1    1    2  501    0  0.19386435035E+02  0.20847605906E+02 -0.14776183093E+03  0.15047928500E+03  0.00000000000E+00 0. -1.
          1    1    1    2  502    0 -0.72722915630E+00 -0.42104922818E+02  0.28129572683E+04  0.28132724622E+04  0.00000000000E+00 0. -1.
         22    1    3    3    0    0  0.28561978950E+02  0.44264476521E+02  0.90927264221E+01  0.53458471704E+02  0.00000000000E+00 0. -1.
         22    1    3    3    0    0 -0.47221184828E+02 -0.23007159609E+02 -0.72459006237E+02  0.89495682995E+02  0.00000000000E+00 0. -1.
</event>
<event>
 7    1  0.6140348E-006  0.1402360E+03  0.7818608E-02  0.1293392E+00
          2   -1    0    0  502    0  0.00000000000E+00  0.00000000000E+00  0.68210324407E+03  0.68210324407E+03  0.00000000000E+00 0. -1.
          1   -1    0    0  501    0 -0.00000000000E+00 -0.00000000000E+00 -0.11426676150E+04  0.11426676150E+04  0.00000000000E+00 0. -1.
         25    2    1    2    0    0 -0.17305065053E+03  0.75311898608E+02  0.14659991492E+03  0.26969122269E+03  0.12499364313E+03 0.  0.
          2    1    1    2  501    0  0.63038745486E+02 -0.10160043493E+00 -0.10708091208E+04  0.10726630725E+04  0.00000000000E+00 0. -1.
          1    1    1    2  502    0  0.11001190504E+03 -0.75210298173E+02  0.46364483495E+03  0.48241656395E+03  0.00000000000E+00 0. -1.
         22    1    3    3    0    0 -0.96448301523E+02 -0.85197465005E+01  0.18628529966E+02  0.98599609917E+02  0.00000000000E+00 0. -1.
         22    1    3    3    0    0 -0.76602349003E+02  0.83831645108E+02  0.12797138495E+03  0.17109161277E+03  0.00000000000E+00 0. -1.
</event>
<event>
 7    1  0.6140348E-006  0.1238014E+03  0.7818608E-02  0.1307251E+00
          2   -1    0    0  502    0  0.00000000000E+00  0.00000000000E+00  0.26796345762E+03  0.26796345762E+03  0.00000000000E+00 0. -1.
          1   -1    0    0  501    0 -0.00000000000E+00 -0.00000000000E+00 -0.21290287639E+04  0.21290287639E+04  0.00000000000E+00 0. -1.
         25    2    1    2    0    0 -0.89206773030E+02 -0.16019697949E+03 -0.15403099366E+03  0.27013053578E+03  0.12499615498E+03 0.  0.
          2    1    1    2  501    0  0.68168194778E+02  0.10097563716E+03 -0.19102594795E+04  0.19141406064E+04  0.00000000000E+00 0. -1.
          1    1    1    2  502    0  0.21038578252E+02  0.59221342329E+02  0.20322516685E+03  0.21272107936E+03  0.00000000000E+00 0. -1.
         22    1    3    3    0    0 -0.82305605577E+02 -0.17803417061E+03 -0.11681988365E+03  0.22829205819E+03  0.00000000000E+00 0. -1.
         22    1    3    3    0    0 -0.69011674531E+01  0.17837191118E+02 -0.37211110007E+02  0.41838477592E+02  0.00000000000E+00 0. -1.
</event>
<event>
 7    1  0.6140348E-006  0.5288736E+02  0.7818608E-02  0.1553482E+00
          2   -1    0    0  502    0  0.00000000000E+00  0.00000000000E+00  0.18140482289E+04  0.18140482289E+04  0.00000000000E+00 0. -1.
          1   -1    0    0  501    0 -0.00000000000E+00 -0.00000000000E+00 -0.38840483449E+02  0.38840483449E+02  0.00000000000E+00 0. -1.
         25    2    1    2    0    0 -0.57506338604E+02  0.73899513772E+01  0.44077467504E+03  0.46181080302E+03  0.12500125304E+03 0.  0.
          2    1    1    2  501    0  0.65669749994E+01 -0.21466370729E+02 -0.23277947746E+02  0.32338724220E+02  0.00000000000E+00 0. -1.
          1    1    1    2  502    0  0.50939363605E+02  0.14076419351E+02  0.13577110182E+04  0.13587391851E+04  0.00000000000E+00 0. -1.
         22    1    3    3    0    0 -0.70357474816E+02 -0.44242352766E+02  0.23482764341E+03  0.24910154987E+03  0.00000000000E+00 0. -1.
         22    1    3    3    0    0  0.12851136212E+02  0.51632304143E+02  0.20594703164E+03  0.21270925314E+03  0.00000000000E+00 0. -1.
</event>
<event>
 7    1  0.6140348E-006  0.5670618E+02  0.7818608E-02  0.1419455E+00
          2   -1    0    0  502    0  0.00000000000E+00  0.00000000000E+00  0.57672550748E+03  0.57672550748E+03  0.00000000000E+00 0. -1.
          1   -1    0    0  501    0 -0.00000000000E+00 -0.00000000000E+00 -0.10896657102E+04  0.10896657102E+04  0.00000000000E+00 0. -1.
         25    2    1    2    0    0 -0.86404711058E+02  0.42316866594E+02 -0.21589176723E+02  0.15920687116E+03  0.12499697589E+03 0.  0.
          2    1    1    2  501    0  0.53510202629E+02  0.32696898914E+01 -0.99698985712E+03  0.99843017174E+03  0.00000000000E+00 0. -1.
          1    1    1    2  502    0  0.32894508429E+02 -0.45586556486E+02  0.50563883112E+03  0.50875417477E+03  0.00000000000E+00 0. -1.
         22    1    3    3    0    0 -0.68158612339E+02 -0.35437273897E+02 -0.19752981612E+02  0.79319462301E+02  0.00000000000E+00 0. -1.
         22    1    3    3    0    0 -0.18246098719E+02  0.77754140491E+02 -0.18361951114E+01  0.79887408861E+02  0.00000000000E+00 0. -1.
</event>
<event>
 7    1  0.6140348E-006  0.4345892E+02  0.7818608E-02  0.1533585E+00
          2   -1    0    0  502    0  0.00000000000E+00  0.00000000000E+00  0.45481892990E+03  0.45481892990E+03  0.00000000000E+00 0. -1.
          1   -1    0    0  501    0 -0.00000000000E+00 -0.00000000000E+00 -0.11888580032E+04  0.11888580032E+04  0.00000000000E+00 0. -1.
         25    2    1    2    0    0 -0.70704771884E+02 -0.91175647043E+01  0.17057257217E+03  0.22316261551E+03  0.12499702329E+03 0.  0.
          2    1    1    2  501    0  0.43098829351E+02 -0.51551553142E+01 -0.11612199954E+04  0.11620309644E+04  0.00000000000E+00 0. -1.
          1    1    1    2  502    0  0.27605942533E+02  0.14272720019E+02  0.25660834991E+03  0.25848335312E+03  0.00000000000E+00 0. -1.
         22    1    3    3    0    0 -0.18158926720E+02  0.27116147584E+02  0.15372245590E+03  0.15714841879E+03  0.00000000000E+00 0.  1.
         22    1    3    3    0    0 -0.52545845164E+02 -0.36233712289E+02  0.16850116261E+02  0.66014196718E+02  0.00000000000E+00 0.  1.
</event>
<event>
 7    1  0.6140348E-006  0.9475313E+02  0.7818608E-02  0.1296703E+00
          2   -1    0    0  502    0  0.00000000000E+00  0.00000000000E+00  0.19955015686E+03  0.19955015686E+03  0.00000000000E+00 0. -1.
          1   -1    0    0  501    0 -0.00000000000E+00 -0.00000000000E+00 -0.10939531503E+04  0.10939531503E+04  0.00000000000E+00 0. -1.
         25    2    1    2    0    0  0.33329843294E+01  0.20357661747E+01 -0.46617115355E+02  0.13347868283E+03  0.12501260016E+03 0.  0.
          2    1    1    2  501    0 -0.60412995904E+02  0.73595105842E+02 -0.98702308934E+03  0.99160503657E+03  0.00000000000E+00 0. -1.
          1    1    1    2  502    0  0.57080011575E+02 -0.75630872016E+02  0.13923721129E+03  0.16841958773E+03  0.00000000000E+00 0. -1.
         22    1    3    3    0    0  0.30102001515E+02 -0.41415173631E+02 -0.61780951047E+02  0.80238600526E+02  0.00000000000E+00 0.  1.
         22    1    3    3    0    0 -0.26769017186E+02  0.43450939806E+02  0.15163835692E+02  0.53240082306E+02  0.00000000000E+00 0.  1.
</event>
<event>
 7    1  0.6140348E-006  0.1408235E+03  0.7818608E-02  0.1291131E+00
          2   -1    0    0  502    0  0.00000000000E+00  0.00000000000E+00  0.86941716314E+03  0.86941716314E+03  0.00000000000E+00 0. -1.
          1   -1    0    0  501    0 -0.00000000000E+00 -0.00000000000E+00 -0.34183701500E+04  0.34183701500E+04  0.00000000000E+00 0. -1.
         25    2    1    2    0    0  0.70717275303E+02  0.48084300729E+02 -0.12465103945E+03  0.19615086148E+03  0.12499698324E+03 0.  0.
          2    1    1    2  501    0 -0.94932548254E+02 -0.10744973382E+03 -0.32551560788E+04  0.32583122519E+04  0.00000000000E+00 0. -1.
          1    1    1    2  502    0  0.24215272950E+02  0.59365433088E+02  0.83085413140E+03  0.83332419967E+03  0.00000000000E+00 0. -1.
         22    1    3    3    0    0  0.30281771863E+02  0.88254194205E+02 -0.65448225667E+02  0.11397042926E+03  0.00000000000E+00 0.  1.
         22    1    3    3    0    0  0.40435503441E+02 -0.40169893475E+02 -0.59202813782E+02  0.82180432221E+02  0.00000000000E+00 0.  1.
</event>
<event>
 7    1  0.6140348E-006  0.1142789E+03  0.7818608E-02  0.1282315E+00
          2   -1    0    0  502    0  0.00000000000E+00  0.00000000000E+00  0.72558738556E+03  0.72558738556E+03  0.00000000000E+00 0. -1.
          1   -1    0    0  501    0 -0.00000000000E+00 -0.00000000000E+00 -0.98664759018E+02  0.98664759018E+02  0.00000000000E+00 0. -1.
         25    2    1    2    0    0  0.12049593674E+02 -0.72350467414E+02  0.36959826978E+03  0.39699633831E+03  0.12499371490E+03 0.  0.
          2    1    1    2  501    0 -0.97893290725E+02  0.72276601166E+02 -0.31705930389E+02  0.12574684675E+03  0.00000000000E+00 0. -1.
          1    1    1    2  502    0  0.85843697051E+02  0.73866247524E-01  0.28903028716E+03  0.30150895952E+03  0.00000000000E+00 0. -1.
         22    1    3    3    0    0  0.20701573004E+02 -0.10533045161E+03  0.31328385721E+03  0.33116436153E+03  0.00000000000E+00 0.  1.
         22    1    3    3    0    0 -0.86519793300E+01  0.32979984192E+02  0.56314412570E+02  0.65831976780E+02  0.00000000000E+00 0.  1.
</event>
<event>
 7    1  0.6140348E-006  0.7765659E+02  0.7818608E-02  0.1367219E+00
          2   -1    0    0  502    0  0.00000000000E+00  0.00000000000E+00  0.58050431882E+03  0.58050431882E+03  0.00000000000E+00 0. -1.
          1   -1    0    0  501    0 -0.00000000000E+00 -0.00000000000E+00 -0.37626269018E+02  0.37626269018E+02  0.00000000000E+00 0. -1.
         25    2    1    2    0    0  0.64597522082E+02 -0.14006592923E+02  0.22720703365E+03  0.26761309435E+03  0.12499883050E+03 0.  0.
          2    1    1    2  501    0 -0.14074014229E+02 -0.57760251567E+02  0.85119061569E+02  0.10382475225E+03  0.00000000000E+00 0. -1.
          1    1    1    2  502    0 -0.50523507853E+02  0.71766844491E+02  0.23055195459E+03  0.24669274124E+03  0.00000000000E+00 0. -1.
         22    1    3    3    0    0  0.85769964227E+02  0.14389966944E+02  0.87051231346E+02  0.12305070008E+03  0.00000000000E+00 0. -1.
         22    1    3    3    0    0 -0.21172442145E+02 -0.28396559867E+02  0.14015580230E+03  0.14456239427E+03  0.00000000000E+00 0. -1.
</event>
<event>
 7    1  0.6140348E-006  0.1321315E+03  0.7818608E-02  0.1400975E+00
          2   -1    0    0  502    0  0.00000000000E+00  0.00000000000E+00  0.33638252855E+03  0.33638252855E+03  0.00000000000E+00 0. -1.
          1   -1    0    0  501    0 -0.00000000000E+00 -0.00000000000E+00 -0.62251887508E+03  0.62251887508E+03  0.00000000000E+00 0. -1.
         25    2    1    2    0    0 -0.13434573443E+03 -0.19930463684E+02  0.12669843082E+03  0.22388285871E+03  0.12500016924E+03 0.  0.
          2    1    1    2  501    0  0.12434038301E+03  0.44550325911E+02 -0.56516191293E+03  0.58039060142E+03  0.00000000000E+00 0. -1.
          1    1    1    2  502    0  0.10005351421E+02 -0.24619862226E+02  0.15232713559E+03  0.15462794349E+03  0.00000000000E+00 0. -1.
         22    1    3    3    0    0 -0.13174086608E+03 -0.30360849701E+02  0.46500561723E+02  0.14296761602E+03  0.00000000000E+00 0. -1.
         22    1    3    3    0    0 -0.26048683503E+01  0.10430386017E+02  0.80197869098E+02  0.80915242689E+02  0.00000000000E+00 0. -1.
</event>
<event>
 7    1  0.6140348E-006  0.7722134E+02  0.7818608E-02  0.1343405E+00
          2   -1    0    0  502    0  0.00000000000E+00  0.00000000000E+00  0.10375382565E+04  0.10375382565E+04  0.00000000000E+00 0. -1.
          1   -1    0    0  501    0 -0.00000000000E+00 -0.00000000000E+00 -0.27248194263E+03  0.27248194263E+03  0.00000000000E+00 0. -1.
         25    2    1    2    0    0  0.24393198758E+02  0.76130266542E+02  0.64432078329E+02  0.16176077758E+03  0.12499684323E+03 0.  0.
          2    1    1    2  501    0 -0.75408840441E+02 -0.23726187122E+02 -0.21533377850E+03  0.22938627103E+03  0.00000000000E+00 0. -1.
          1    1    1    2  502    0  0.51015641684E+02 -0.52404079420E+02  0.91595801402E+03  0.91887315049E+03  0.00000000000E+00 0. -1.
         22    1    3    3    0    0 -0.32181929016E+02  0.54317699233E+02  0.77268689929E+02  0.99782460625E+02  0.00000000000E+00 0. -1.
         22    1    3    3    0    0  0.56575127774E+02  0.21812567310E+02 -0.12836611600E+02  0.61978316956E+02  0.00000000000E+00 0. -1.
</event>
<event>
 7    1  0.6140348E-006  0.1470790E+03  0.7818608E-02  0.1284389E+00
          2   -1    0    0  502    0  0.00000000000E+00  0.00000000000E+00  0.44517094686E+03  0.44517094686E+03  0.00000000000E+00 0. -1.
          1   -1    0    0  501    0 -0.00000000000E+00 -0.00000000000E+00 -0.16279699762E+04  0.16279699762E+04  0.00000000000E+00 0. -1.
         25    2    1    2    0    0  0.98917702204E+02 -0.25055818148E+02 -0.14686988836E+01  0.16136642156E+03  0.12499783638E+03 0.  0.
          2    1    1    2  501    0  0.36946308737E+02 -0.53968000653E+02 -0.15289107377E+04  0.15303089946E+04  0.00000000000E+00 0. -1.
          1    1    1    2  502    0 -0.13586401094E+03  0.79023818800E+02  0.34758040732E+03  0.38146550691E+03  0.00000000000E+00 0. -1.
         22    1    3    3    0    0  0.11675974881E+03 -0.38433671856E+01 -0.30998407272E+02  0.12086567613E+03  0.00000000000E+00 0.  1.
         22    1    3    3    0    0 -0.17842046607E+02 -0.21212450962E+02  0.29529708389E+02  0.40500745431E+02  0.00000000000E+00 0.  1.
</event>
<event>
 7    1  0.6140348E-006  0.1097654E+03  0.7818608E-02  0.1274482E+00
          2   -1    0    0  502    0  0.00000000000E+00  0.00000000000E+00  0.26773522516E+04  0.26773522516E+04  0.00000000000E+00 0. -1.
          1   -1    0    0  501    0 -0.00000000000E+00 -0.00000000000E+00 -0.47144011205E+02  0.47144011205E+02  0.00000000000E+00 0. -1.
         25    2    1    2    0    0  0.23168640011E+02  0.18631945552E+03  0.22582352217E+04  0.22694714923E+04  0.12499124886E+03 0.  0.
          2    1    1    2  501    0 -0.51394027527E+02 -0.94240161563E+02  0.48999645411E+02  0.11799796340E+03  0.00000000000E+00 0. -1.
          1    1    1    2  502    0  0.28225387516E+02 -0.92079293958E+02  0.32297337323E+03  0.33702680708E+03  0.00000000000E+00 0. -1.
         22    1    3    3    0    0  0.65602733727E+02  0.16396250348E+03  0.16829652607E+04  0.16922055105E+04  0.00000000000E+00 0. -1.
         22    1    3    3    0    0 -0.42434093716E+02  0.22356952042E+02  0.57526996105E+03  0.57726598176E+03  0.00000000000E+00 0. -1.
</event>
<event>
 7    1  0.6140348E-006  0.1406348E+03  0.7818608E-02  0.1385030E+00
          2   -1    0    0  502    0  0.00000000000E+00  0.00000000000E+00  0.26929945365E+03  0.26929945365E+03  0.00000000000E+00 0. -1.
          1   -1    0    0  501    0 -0.00000000000E+00 -0.00000000000E+00 -0.11318936852E+04  0.11318936852E+04  0.00000000000E+00 0. -1.
         25    2    1    2    0    0 -0.86377800946E+02  0.92140417440E+02 -0.12359001141E+02  0.17812532814E+03  0.12499962638E+03 0.  0.
          2    1    1    2  501    0  0.76904186304E+02 -0.11887705495E+03 -0.10307042402E+04  0.10403832173E+04  0.00000000000E+00 0. -1.
          1    1    1    2  502    0  0.94736146415E+01  0.26736637512E+02  0.18046900981E+03  0.18268459339E+03  0.00000000000E+00 0. -1.
         22    1    3    3    0    0 -0.22319165514E+02 -0.31298838225E+02  0.64983685720E+00  0.38447167794E+02  0.00000000000E+00 0. -1.
         22    1    3    3    0    0 -0.64058635432E+02  0.12343925566E+03 -0.13008837999E+02  0.13967816035E+03  0.00000000000E+00 0. -1.
</event>
<event>
 7    1  0.6140348E-006  0.1555813E+03  0.7818608E-02  0.1410242E+00
          2   -1    0    0  502    0  0.00000000000E+00  0.00000000000E+00  0.30250025093E+03  0.30250025093E+03  0.00000000000E+00 0. -1.
          1   -1    0    0  501    0 -0.00000000000E+00 -0.00000000000E+00 -0.52754152633E+03  0.52754152633E+03  0.00000000000E+00 0. -1.
         25    2    1    2    0    0  0.68007791442E+01  0.17431412780E+03 -0.24410206217E+03  0.32502767035E+03  0.12500201593E+03 0.  0.
          2    1    1    2  501    0 -0.55579211703E+01 -0.20236222464E+02 -0.21978265690E+03  0.22078227162E+03  0.00000000000E+00 0. -1.
          1    1    1    2  502    0 -0.12428579738E+01 -0.15407790534E+03  0.23884344367E+03  0.28423183529E+03  0.00000000000E+00 0. -1.
         22    1    3    3    0    0 -0.46233463666E+02  0.98248916978E+02 -0.74347286965E+02  0.13159749971E+03  0.00000000000E+00 0. -1.
         22    1    3    3    0    0  0.53034242810E+02  0.76065210826E+02 -0.16975477521E+03  0.19343017064E+03  0.00000000000E+00 0. -1.
</event>
<event>
 7    1  0.6140348E-006  0.2294271E+03  0.7818608E-02  0.1292307E+00
          2   -1    0    0  502    0  0.00000000000E+00  0.00000000000E+00  0.59255646064E+03  0.59255646064E+03  0.00000000000E+00 0. -1.
          1   -1    0    0  501    0 -0.00000000000E+00 -0.00000000000E+00 -0.15984808286E+04  0.15984808286E+04  0.00000000000E+00 0. -1.
         25    2    1    2    0    0 -0.12144467840E+02  0.26204020536E+03 -0.48460295007E+03  0.56504701614E+03  0.12500221563E+03 0.  0.
          2    1    1    2  501    0  0.18675954889E+02 -0.34150778841E+02 -0.10497540658E+04  0.10504754475E+04  0.00000000000E+00 0. -1.
          1    1    1    2  502    0 -0.65314870485E+01 -0.22788942652E+03  0.52843264798E+03  0.57551482561E+03  0.00000000000E+00 0. -1.
         22    1    3    3    0    0  0.22984932791E+02  0.24746117410E+03 -0.38309852005E+03  0.45665064972E+03  0.00000000000E+00 0. -1.
         22    1    3    3    0    0 -0.35129400631E+02  0.14579031260E+02 -0.10150443001E+03  0.10839636642E+03  0.00000000000E+00 0. -1.
</event>
<event>
 7    1  0.6140348E-006  0.6202245E+02  0.7818608E-02  0.1424227E+00
          2   -1    0    0  502    0  0.00000000000E+00  0.00000000000E+00  0.62931514925E+03  0.62931514925E+03  0.00000000000E+00 0. -1.
          1   -1    0    0  501    0 -0.00000000000E+00 -0.00000000000E+00 -0.53433567167E+03  0.53433567167E+03  0.00000000000E+00 0. -1.
         25    2    1    2    0    0 -0.29478841888E+02 -0.64757971074E+02  0.27487927854E+03  0.31024034202E+03  0.12501141990E+03 0.  0.
          2    1    1    2  501    0 -0.17487577404E+02  0.59559888687E+02 -0.51311772389E+03  0.51685877595E+03  0.00000000000E+00 0. -1.
          1    1    1    2  502    0  0.46966419292E+02  0.51980823869E+01  0.33321792293E+03  0.33655170296E+03  0.00000000000E+00 0. -1.
         22    1    3    3    0    0 -0.87912162112E+00 -0.94231004147E+02  0.13630454061E+03  0.16570812529E+03  0.00000000000E+00 0.  1.
         22    1    3    3    0    0 -0.28599720267E+02  0.29473033073E+02  0.13857473793E+03  0.14453221672E+03  0.00000000000E+00 0.  1.
</event>
<event>
 7    1  0.6140348E-006  0.1241042E+03  0.7818608E-02  0.1360361E+00
          2   -1    0    0  502    0  0.00000000000E+00  0.00000000000E+00  0.26551369976E+03  0.26551369976E+03  0.00000000000E+00 0. -1.
          1   -1    0    0  501    0 -0.00000000000E+00 -0.00000000000E+00 -0.10250702574E+04  0.10250702574E+04  0.00000000000E+00 0. -1.
         25    2    1    2    0    0 -0.94247523076E+02 -0.58982386251E+02  0.84092697331E+02  0.18723846352E+03  0.12500057193E+03 0.  0.
          2    1    1    2  501    0 -0.34287407258E+02  0.19397759744E+02 -0.93814714903E+03  0.93897389347E+03  0.00000000000E+00 0. -1.
          1    1    1    2  502    0  0.12853493033E+03  0.39584626506E+02  0.94497894042E+02  0.16437160019E+03  0.00000000000E+00 0. -1.
         22    1    3    3    0    0 -0.11214611704E+03 -0.27467557413E+02  0.25343833399E+02  0.11820967883E+03  0.00000000000E+00 0. -1.
         22    1    3    3    0    0  0.17898593961E+02 -0.31514828838E+02  0.58748863932E+02  0.69028784690E+02  0.00000000000E+00 0. -1.
</event>
<event>
 7    1  0.6140348E-006  0.1601524E+03  0.7818608E-02  0.1237652E+00
          2   -1    0    0  502    0  0.00000000000E+00  0.00000000000E+00  0.17005942766E+03  0.17005942766E+03  0.00000000000E+00 0. -1.
          1   -1    0    0  501    0 -0.00000000000E+00 -0.00000000000E+00 -0.17700499692E+04  0.17700499692E+04  0.00000000000E+00 0. -1.
         25    2    1    2    0    0  0.30286588633E+02 -0.24643087508E+03 -0.85167093592E+03  0.89588643628E+03  0.12499467980E+03 0.  0.
          2    1    1    2  501    0  0.64124457034E+01  0.94806514018E+02 -0.85175873199E+03  0.85704278311E+03  0.00000000000E+00 0. -1.
          1    1    1    2  502    0 -0.36699034336E+02  0.15162436107E+03  0.10343912634E+03  0.18718017750E+03  0.00000000000E+00 0. -1.
         22    1    3    3    0    0 -0.23514458954E+02  0.61039064042E+00 -0.49308596951E+02  0.54631859660E+02  0.00000000000E+00 0. -1.
         22    1    3    3    0    0  0.53801047586E+02 -0.24704126573E+03 -0.80236233897E+03  0.84125457662E+03  0.00000000000E+00 0. -1.
</event>
<event>
 7    1  0.6140348E-006  0.4963403E+02  0.7818608E-02  0.1525814E+00
          2   -1    0    0  502    0  0.00000000000E+00  0.00000000000E+00  0.13258140956E+03  0.13258140956E+03  0.00000000000E+00 0. -1.
          1   -1    0    0  501    0 -0.00000000000E+00 -0.00000000000E+00 -0.11960170986E+04  0.11960170986E+04  0.00000000000E+00 0. -1.
         25    2    1    2    0    0  0.55270977093E+02 -0.53460253487E+02 -0.15905783460E+03  0.21642471797E+03  0.12500953639E+03 0.  0.
          2    1    1    2  501    0 -0.17224897358E+02  0.22884801647E+02 -0.10023274707E+04  0.10027366403E+04  0.00000000000E+00 0. -1.
          1    1    1    2  502    0 -0.38046079735E+02  0.30575451840E+02  0.97949616305E+02  0.10943714988E+03  0.00000000000E+00 0. -1.
         22    1    3    3    0    0  0.66653312595E+01  0.53513615789E+01  0.20021240712E+02  0.21769561117E+02  0.00000000000E+00 0.  1.
         22    1    3    3    0    0  0.48605645834E+02 -0.58811615066E+02 -0.17907907531E+03  0.19465515685E+03  0.00000000000E+00 0.  1.
</event>
<event>
 7    1  0.6140348E-006  0.4043055E+02  0.7818608E-02  0.1568017E+00
          2   -1    0    0  502    0  0.00000000000E+00  0.00000000000E+00  0.70308591970E+03  0.70308591970E+03  0.00000000000E+00 0. -1.
          1   -1    0    0  501    0 -0.00000000000E+00 -0.00000000000E+00 -0.30033955750E+03  0.30033955750E+03  0.00000000000E+00 0. -1.
         25    2    1    2    0    0 -0.31286006166E+02  0.58712542115E+02  0.11640642792E+03  0.18330781700E+03  0.12500129011E+03 0.  0.
          2    1    1    2  501    0  0.15556647098E+02 -0.37035153146E+02 -0.26505047660E+03  0.26807716609E+03  0.00000000000E+00 0. -1.
          1    1    1    2  502    0  0.15729359068E+02 -0.21677388969E+02  0.55139041088E+03  0.55204049411E+03  0.00000000000E+00 0. -1.
         22    1    3    3    0    0 -0.37162143404E+01  0.95507274905E+02  0.80758265441E+02  0.12512932209E+03  0.00000000000E+00 0.  1.
         22    1    3    3    0    0 -0.27569791826E+02 -0.36794732790E+02  0.35648162475E+02  0.58178494912E+02  0.00000000000E+00 0.  1.
</event>
<event>
 7    1  0.6140348E-006  0.2989853E+02  0.7818608E-02  0.1648123E+00
          2   -1    0    0  502    0  0.00000000000E+00  0.00000000000E+00  0.11723239742E+04  0.11723239742E+04  0.00000000000E+00 0. -1.
          1   -1    0    0  501    0 -0.00000000000E+00 -0.00000000000E+00 -0.71250359183E+02  0.71250359183E+02  0.00000000000E+00 0. -1.
         25    2    1    2    0    0 -0.16889381228E+01  0.84411817472E+01  0.19844758978E+03  0.23469189242E+03  0.12499892967E+03 0.  0.
          2    1    1    2  501    0  0.75065542707E+01  0.21180778577E+02 -0.50502297788E+02  0.55276177690E+02  0.00000000000E+00 0. -1.
          1    1    1    2  502    0 -0.58176161478E+01 -0.29621960324E+02  0.95312832301E+03  0.95360626325E+03  0.00000000000E+00 0. -1.
         22    1    3    3    0    0 -0.48141634630E+02  0.44085552337E+02  0.86619921985E+02  0.10846272998E+03  0.00000000000E+00 0. -1.
         22    1    3    3    0    0  0.46452696507E+02 -0.35644370590E+02  0.11182766779E+03  0.12622916245E+03  0.00000000000E+00 0. -1.
</event>
<event>
 7    1  0.6140348E-006  0.6323748E+02  0.7818608E-02  0.1394157E+00
          2   -1    0    0  502    0  0.00000000000E+00  0.00000000000E+00  0.53110351657E+03  0.53110351657E+03  0.00000000000E+00 0. -1.
          1   -1    0    0  501    0 -0.00000000000E+00 -0.00000000000E+00 -0.31950229436E+03  0.31950229436E+03  0.00000000000E+00 0. -1.
         25    2    1    2    0    0 -0.86130757492E+01  0.16735323738E+02 -0.76790827048E+02  0.14789896961E+03  0.12499207159E+03 0.  0.
          2    1    1    2  501    0 -0.15658747792E+02 -0.70093517215E+02 -0.19912330474E+03  0.21167991881E+03  0.00000000000E+00 0. -1.
          1    1    1    2  502    0  0.24271823541E+02  0.53358193477E+02  0.48751535401E+03  0.49102692250E+03  0.00000000000E+00 0. -1.
         22    1    3    3    0    0  0.31365217477E+02 -0.28057290752E+02 -0.77125091907E+02  0.87859366224E+02  0.00000000000E+00 0. -1.
         22    1    3    3    0    0 -0.39978293226E+02  0.44792614490E+02  0.33426485838E+00  0.60039603389E+02  0.00000000000E+00 0. -1.
</event>
<event>
 7    1  0.6140348E-006  0.7573657E+02  0.7818608E-02  0.1374140E+00
          2   -1    0    0  502    0  0.00000000000E+00  0.00000000000E+00  0.21336977040E+03  0.21336977040E+03  0.00000000000E+00 0. -1.
          1   -1    0    0  501    0 -0.00000000000E+00 -0.00000000000E+00 -0.60045891282E+03  0.60045891282E+03  0.00000000000E+00 0. -1.
         25    2    1    2    0    0  0.51011297591E+02 -0.27122240479E+02 -0.77238290668E+02  0.15791520919E+03  0.12503476052E+03 0.  0.
          2    1    1    2  501    0  0.23149980385E+02  0.52706933973E+02 -0.47215103639E+03  0.47564749936E+03  0.00000000000E+00 0. -1.
          1    1    1    2  502    0 -0.74161277976E+02 -0.25584693494E+02  0.16230018463E+03  0.18026597467E+03  0.00000000000E+00 0. -1.
         22    1    3    3    0    0  0.24713835599E+02 -0.40810187247E+02  0.23301028270E+02  0.53095978865E+02  0.00000000000E+00 0.  1.
         22    1    3    3    0    0  0.26297461991E+02  0.13687946768E+02 -0.10053931894E+03  0.10481923033E+03  0.00000000000E+00 0.  1.
</event>
<event>
 7    1  0.6140348E-006  0.4666733E+02  0.7818608E-02  0.1498379E+00
          2   -1    0    0  502    0  0.00000000000E+00  0.00000000000E+00  0.15283978580E+02  0.15283978580E+02  0.00000000000E+00 0. -1.
          1   -1    0    0  501    0 -0.00000000000E+00 -0.00000000000E+00 -0.14027403532E+04  0.14027403532E+04  0.00000000000E+00 0. -1.
         25    2    1    2    0    0 -0.11144223931E+01 -0.15343838252E+02 -0.64326292366E+03  0.65547815197E+03  0.12501097330E+03 0.  0.
          2    1    1    2  501    0  0.15260418313E+02  0.49176109240E+02 -0.71167179606E+03  0.71353200026E+03  0.00000000000E+00 0. -1.
          1    1    1    2  502    0 -0.14145995920E+02 -0.33832270989E+02 -0.32521654938E+02  0.49014179588E+02  0.00000000000E+00 0. -1.
         22    1    3    3    0    0 -0.62912355090E+01  0.22223948154E+02 -0.58800766926E+03  0.58846113093E+03  0.00000000000E+00 0. -1.
         22    1    3    3    0    0  0.51768131159E+01 -0.37567786406E+02 -0.55255254406E+02  0.67017021039E+02  0.00000000000E+00 0. -1.
</event>
<event>
 7    1  0.6140348E-006  0.3791490E+02  0.7818608E-02  0.1566839E+00
          2   -1    0    0  502    0  0.00000000000E+00  0.00000000000E+00  0.17455398465E+04  0.17455398465E+04  0.00000000000E+00 0. -1.
          1   -1    0    0  501    0 -0.00000000000E+00 -0.00000000000E+00 -0.13352030036E+04  0.13352030036E+04  0.00000000000E+00 0. -1.
         25    2    1    2    0    0 -0.20504443049E+02 -0.13073929083E+02  0.10109419524E+02  0.12775764519E+03  0.12501382217E+03 0.  0.
          2    1    1    2  501    0  0.36407616403E+02 -0.10903314056E+02 -0.12759724967E+04  0.12765383696E+04  0.00000000000E+00 0. -1.
          1    1    1    2  502    0 -0.15903173354E+02  0.23977243139E+02  0.16761999202E+04  0.16764468353E+04  0.00000000000E+00 0. -1.
         22    1    3    3    0    0  0.19011362700E+01  0.21432957323E+02  0.59619702510E+02  0.63383711678E+02  0.00000000000E+00 0. -1.
         22    1    3    3    0    0 -0.22405579319E+02 -0.34506886406E+02 -0.49510282986E+02  0.64373933509E+02  0.00000000000E+00 0. -1.
</event>
<event>
 7    1  0.6140348E-006  0.6658105E+02  0.7818608E-02  0.1441542E+00
          2   -1    0    0  502    0  0.00000000000E+00  0.00000000000E+00  0.18032788612E+03  0.18032788612E+03  0.00000000000E+00 0. -1.
          1   -1    0    0  501    0 -0.00000000000E+00 -0.00000000000E+00 -0.56980200480E+03  0.56980200480E+03  0.00000000000E+00 0. -1.
         25    2    1    2    0    0  0.30966397686E+02  0.38872481340E+02  0.20592987995E+02  0.13608569174E+03  0.12500102700E+03 0.  0.
          2    1    1    2  501    0 -0.46514145363E+01 -0.67145250002E+02 -0.50608913246E+03  0.51054513048E+03  0.00000000000E+00 0. -1.
          1    1    1    2  502    0 -0.26314983150E+02  0.28272768662E+02  0.96022025787E+02  0.10349906870E+03  0.00000000000E+00 0. -1.
         22    1    3    3    0    0  0.49074065318E+02  0.73279424897E+02  0.34629282158E+02  0.94748747658E+02  0.00000000000E+00 0. -1.
         22    1    3    3    0    0 -0.18107667631E+02 -0.34406943557E+02 -0.14036294163E+02  0.41336944079E+02  0.00000000000E+00 0. -1.
</event>
<event>
 7    1  0.6140348E-006  0.4479291E+02  0.7818608E-02  0.1579992E+00
          2   -1    0    0  502    0  0.00000000000E+00  0.00000000000E+00  0.10202502793E+03  0.10202502793E+03  0.00000000000E+00 0. -1.
          1   -1    0    0  501    0 -0.00000000000E+00 -0.00000000000E+00 -0.11472378236E+04  0.11472378236E+04  0.00000000000E+00 0. -1.
         25    2    1    2    0    0 -0.52799212067E+02  0.40241633865E+02 -0.16645753087E+03  0.21849504464E+03  0.12499931624E+03 0.  0.
          2    1    1    2  501    0  0.33034685581E+02 -0.29618697376E+02 -0.95257779008E+03  0.95361050950E+03  0.00000000000E+00 0. -1.
          1    1    1    2  502    0  0.19764526486E+02 -0.10622936489E+02  0.73822525321E+02  0.77157297332E+02  0.00000000000E+00 0. -1.
         22    1    3    3    0    0 -0.70347138123E+02  0.24471168644E+02 -0.17746428384E+03  0.19246072320E+03  0.00000000000E+00 0. -1.
         22    1    3    3    0    0  0.17547926056E+02  0.15770465221E+02  0.11006752968E+02  0.26034321444E+02  0.00000000000E+00 0. -1.
</event>
<event>
 7    1  0.6140348E-006  0.8858465E+02  0.7818608E-02  0.1324717E+00
          2   -1    0    0  502    0  0.00000000000E+00  0.00000000000E+00  0.13355877481E+04  0.13355877481E+04  0.00000000000E+00 0. -1.
          1   -1    0    0  501    0 -0.00000000000E+00 -0.00000000000E+00 -0.50820380706E+03  0.50820380706E+03  0.00000000000E+00 0. -1.
         25    2    1    2    0    0  0.13514830826E+03  0.86576279354E+02  0.22104705593E+02  0.20463464253E+03  0.12500480607E+03 0.  0.
          2    1    1    2  501    0 -0.69216605570E+02 -0.50683182696E+02 -0.41135674022E+03  0.42020720034E+03  0.00000000000E+00 0. -1.
          1    1    1    2  502    0 -0.65931702690E+02 -0.35893096658E+02  0.12166359757E+04  0.12189497123E+04  0.00000000000E+00 0. -1.
         22    1    3    3    0    0 -0.20488981324E+02  0.18629182628E+02  0.21090535920E+02  0.34808842361E+02  0.00000000000E+00 0.  1.
         22    1    3    3    0    0  0.15563728958E+03  0.67947096726E+02  0.10141696729E+01  0.16982580017E+03  0.00000000000E+00 0.  1.
</event>
<event>
 7    1  0.6140348E-006  0.1689676E+03  0.7818608E-02  0.1310887E+00
          2   -1    0    0  502    0  0.00000000000E+00  0.00000000000E+00  0.44038941136E+04  0.44038941136E+04  0.00000000000E+00 0. -1.
          1   -1    0    0  501    0 -0.00000000000E+00 -0.00000000000E+00 -0.14743389127E+04  0.14743389127E+04  0.00000000000E+00 0. -1.
         25    2    1    2    0    0  0.50875118172E+02 -0.19363702722E+03  0.55283273085E+03  0.60111044324E+03  0.12500464277E+03 0.  0.
          2    1    1    2  501    0 -0.34970436251E+02  0.27601938342E+02 -0.14480398779E+04  0.14487250555E+04  0.00000000000E+00 0. -1.
          1    1    1    2  502    0 -0.15904681921E+02  0.16603508888E+03  0.38247623480E+04  0.38283975275E+04  0.00000000000E+00 0. -1.
         22    1    3    3    0    0  0.59296523515E+02 -0.34335260816E+02  0.10192391275E+03  0.12281478668E+03  0.00000000000E+00 0. -1.
         22    1    3    3    0    0 -0.84214053424E+01 -0.15930176641E+03  0.45090881810E+03  0.47829565656E+03  0.00000000000E+00 0. -1.
</event>
<event>
 7    1  0.6140348E-006  0.1020905E+03  0.7818608E-02  0.1331881E+00
          2   -1    0    0  502    0  0.00000000000E+00  0.00000000000E+00  0.97098226723E+03  0.97098226723E+03  0.00000000000E+00 0. -1.
          1   -1    0    0  501    0 -0.00000000000E+00 -0.00000000000E+00 -0.90937729961E+02  0.90937729961E+02  0.00000000000E+00 0. -1.
         25    2    1    2    0    0  0.63928551705E+01 -0.99149289270E+02  0.52976209238E+02  0.16823342425E+03  0.12499822451E+03 0.  0.
          2    1    1    2  501    0  0.58225533520E+02  0.18682138655E+02  0.95980256382E+00  0.61156817113E+02  0.00000000000E+00 0. -1.
          1    1    1    2  502    0 -0.64618388691E+02  0.80467150616E+02  0.82610852546E+03  0.83252975582E+03  0.00000000000E+00 0. -1.
         22    1    3    3    0    0 -0.50315332577E+02 -0.65746681001E+02  0.59708752093E+02  0.10207543207E+03  0.00000000000E+00 0.  1.
         22    1    3    3    0    0  0.56708187747E+02 -0.33402608269E+02 -0.67325428552E+01  0.66157992186E+02  0.00000000000E+00 0.  1.
</event>
<event>
 7    1  0.6140348E-006  0.1356715E+03  0.7818608E-02  0.1389491E+00
          2   -1    0    0  502    0  0.00000000000E+00  0.00000000000E+00  0.51700265954E+03  0.51700265954E+03  0.00000000000E+00 0. -1.
          1   -1    0    0  501    0 -0.00000000000E+00 -0.00000000000E+00 -0.33080245636E+03  0.33080245636E+03  0.00000000000E+00 0. -1.
         25    2    1    2    0    0  0.57311325155E+02  0.93906152284E+02 -0.11079217989E+03  0.20000925652E+03  0.12500336852E+03 0.  0.
          2    1    1    2  501    0  0.21352537909E+02  0.18670017370E+02 -0.16417812957E+03  0.16661019973E+03  0.00000000000E+00 0. -1.
          1    1    1    2  502    0 -0.78663863064E+02 -0.11257616965E+03  0.46117051264E+03  0.48118565966E+03  0.00000000000E+00 0. -1.
         22    1    3    3    0    0  0.12892636874E+02  0.11347849853E+03 -0.57299162836E+02  0.12777630365E+03  0.00000000000E+00 0.  1.
         22    1    3    3    0    0  0.44418688281E+02 -0.19572346243E+02 -0.53493017058E+02  0.72232952868E+02  0.00000000000E+00 0.  1.
</event>
<event>
 7    1  0.6140348E-006  0.1204989E+03  0.7818608E-02  0.1278372E+00
          2   -1    0    0  502    0  0.00000000000E+00  0.00000000000E+00  0.19165855742E+04  0.19165855742E+04  0.00000000000E+00 0. -1.
          1   -1    0    0  501    0 -0.00000000000E+00 -0.00000000000E+00 -0.16899322346E+03  0.16899322346E+03  0.00000000000E+00 0. -1.
         25    2    1    2    0    0  0.10672994225E+02 -0.12656654505E+03  0.16413187772E+03  0.24227044953E+03  0.12499077687E+03 0.  0.
          2    1    1    2  501    0  0.70025093599E+02  0.10142697445E+03 -0.99392237317E+02  0.15833433525E+03  0.00000000000E+00 0. -1.
          1    1    1    2  502    0 -0.80698087823E+02  0.25139570594E+02  0.16828527104E+04  0.16849740129E+04  0.00000000000E+00 0. -1.
         22    1    3    3    0    0  0.58035882568E+02 -0.10748365438E+03  0.87791773679E+02  0.15042704262E+03  0.00000000000E+00 0. -1.
         22    1    3    3    0    0 -0.47362888343E+02 -0.19082890661E+02  0.76340104041E+02  0.91843406912E+02  0.00000000000E+00 0. -1.
</event>
<event>
 7    1  0.6140348E-006  0.1026687E+03  0.7818608E-02  0.1297824E+00
          2   -1    0    0  502    0  0.00000000000E+00  0.00000000000E+00  0.17273383973E+04  0.17273383973E+04  0.00000000000E+00 0. -1.
          1   -1    0    0  501    0 -0.00000000000E+00 -0.00000000000E+00 -0.12220242525E+04  0.12220242525E+04  0.00000000000E+00 0. -1.
         25    2    1    2    0    0  0.12010145510E+03  0.10358755503E+03  0.86618758488E+02  0.21973430741E+03  0.12500246181E+03 0.  0.
          2    1    1    2  501    0 -0.82116442260E+02 -0.92393531848E+01 -0.11523425490E+04  0.11553016169E+04  0.00000000000E+00 0. -1.
          1    1    1    2  502    0 -0.37985012836E+02 -0.94348201849E+02  0.15710379354E+04  0.15743267255E+04  0.00000000000E+00 0. -1.
         22    1    3    3    0    0  0.49614565728E+02  0.56614082420E+01  0.85568086363E+02  0.99073478184E+02  0.00000000000E+00 0.  1.
         22    1    3    3    0    0  0.70486889368E+02  0.97926146792E+02  0.10506721243E+01  0.12066082923E+03  0.00000000000E+00 0.  1.
</event>
<event>
 7    1  0.6140348E-006  0.4731726E+02  0.7818608E-02  0.1486529E+00
          2   -1    0    0  502    0  0.00000000000E+00  0.00000000000E+00  0.93996962544E+03  0.93996962544E+03  0.00000000000E+00 0. -1.
          1   -1    0    0  501    0 -0.00000000000E+00 -0.00000000000E+00 -0.54412316953E+03  0.54412316953E+03  0.00000000000E+00 0. -1.
         25    2    1    2    0    0  0.27147200430E+01  0.23477179360E+02  0.43434069698E+03  0.45258684495E+03  0.12499785404E+03 0.  0.
          2    1    1    2  501    0  0.38430145295E+02  0.80687795186E+01 -0.53292225912E+03  0.53436702325E+03  0.00000000000E+00 0. -1.
          1    1    1    2  502    0 -0.41144865338E+02 -0.31545958878E+02  0.49442801805E+03  0.49713892676E+03  0.00000000000E+00 0. -1.
         22    1    3    3    0    0  0.46745073321E+02  0.47927039319E+02  0.33005844300E+03  0.33677986694E+03  0.00000000000E+00 0.  1.
         22    1    3    3    0    0 -0.44030353278E+02 -0.24449859960E+02  0.10428225398E+03  0.11580697801E+03  0.00000000000E+00 0.  1.
</event>
<event>
 7    1  0.6140348E-006  0.6565106E+02  0.7818608E-02  0.1437116E+00
          2   -1    0    0  502    0  0.00000000000E+00  0.00000000000E+00  0.10055630548E+04  0.10055630548E+04  0.00000000000E+00 0. -1.
          1   -1    0    0  501    0 -0.00000000000E+00 -0.00000000000E+00 -0.41333198371E+03  0.41333198371E+03  0.00000000000E+00 0. -1.
         25    2    1    2    0    0 -0.16003196762E+02 -0.10043058392E+03  0.24474790276E+03  0.29303403529E+03  0.12500002174E+03 0.  0.
          2    1    1    2  501    0  0.23999167448E+02  0.60738041236E+02 -0.38588681917E+03  0.39137412651E+03  0.00000000000E+00 0. -1.
          1    1    1    2  502    0 -0.79959706870E+01  0.39692542683E+02  0.73336998745E+03  0.73448687666E+03  0.00000000000E+00 0. -1.
         22    1    3    3    0    0 -0.67452048022E+02 -0.65917676384E+02  0.11115423833E+03  0.14577442691E+03  0.00000000000E+00 0.  1.
         22    1    3    3    0    0  0.51448851260E+02 -0.34512907535E+02  0.13359366443E+03  0.14725960837E+03  0.00000000000E+00 0.  1.
</event>
<event>
 7    1  0.6140348E-006  0.3980109E+02  0.7818608E-02  0.1598954E+00
          2   -1    0    0  502    0  0.00000000000E+00  0.00000000000E+00  0.13439510687E+03  0.13439510687E+03  0.00000000000E+00 0. -1.
          1   -1    0    0  501    0 -0.00000000000E+00 -0.00000000000E+00 -0.17153938504E+03  0.17153938504E+03  0.00000000000E+00 0. -1.
         25    2    1    2    0    0  0.38476259466E+02 -0.43513356339E+02 -0.27159435228E+02  0.14048913403E+03  0.12500290851E+03 0.  0.
          2    1    1    2  501    0 -0.20588026652E+02  0.90637686052E+01 -0.81243420401E+02  0.84300131087E+02  0.00000000000E+00 0. -1.
          1    1    1    2  502    0 -0.17888232814E+02  0.34449587734E+02  0.71258577459E+02  0.81145226783E+02  0.00000000000E+00 0. -1.
         22    1    3    3    0    0  0.31569600350E+02 -0.71261631066E+02  0.24280357370E+02  0.81635748802E+02  0.00000000000E+00 0. -1.
         22    1    3    3    0    0  0.69066591164E+01  0.27748274726E+02 -0.51439792598E+02  0.58853385230E+02  0.00000000000E+00 0. -1.
</event>
<event>
 7    1  0.6140348E-006  0.5590287E+02  0.7818608E-02  0.1497265E+00
          2   -1    0    0  502    0  0.00000000000E+00  0.00000000000E+00  0.83559368679E+03  0.83559368679E+03  0.00000000000E+00 0. -1.
          1   -1    0    0  501    0 -0.00000000000E+00 -0.00000000000E+00 -0.33279795351E+03  0.33279795351E+03  0.00000000000E+00 0. -1.
         25    2    1    2    0    0 -0.11300412495E+02 -0.68790615758E+02  0.41726895425E+02  0.14908005603E+03  0.12499552458E+03 0.  0.
          2    1    1    2  501    0  0.26824707286E+02  0.15232892681E+02 -0.27721439811E+03  0.27892548908E+03  0.00000000000E+00 0. -1.
          1    1    1    2  502    0 -0.15524294790E+02  0.53557723077E+02  0.73828323596E+03  0.74038609518E+03  0.00000000000E+00 0. -1.
         22    1    3    3    0    0 -0.48914482145E+02 -0.81031822994E+02  0.52295109477E+02  0.10813677162E+03  0.00000000000E+00 0. -1.
         22    1    3    3    0    0  0.37614069650E+02  0.12241207235E+02 -0.10568214051E+02  0.40943284412E+02  0.00000000000E+00 0. -1.
</event>
<event>
 7    1  0.9399081E-006  0.5691653E+02  0.7818608E-02  0.1465765E+00
          2   -1    0    0  502    0  0.00000000000E+00  0.00000000000E+00  0.13673216122E+04  0.13673216122E+04  0.00000000000E+00 0. -1.
          1   -1    0    0  501    0 -0.00000000000E+00 -0.00000000000E+00 -0.12957312153E+04  0.12957312153E+04  0.00000000000E+00 0. -1.
         25    2    1    2    0    0  0.58310300133E+02 -0.51389906211E+01 -0.24760949134E+03  0.28348151703E+03  0.12499923987E+03 0.  0.
          2    1    1    2  501    0 -0.41882188382E+02  0.39218529154E+02 -0.10291212361E+04  0.10307195202E+04  0.00000000000E+00 0. -1.
          1    1    1    2  502    0 -0.16428111751E+02 -0.34079538533E+02  0.13483211243E+04  0.13488517903E+04  0.00000000000E+00 0. -1.
         22    1    3    3    0    0  0.28052097703E+02  0.18940124431E+02 -0.10037616079E+01  0.33862309968E+02  0.00000000000E+00 0. -1.
         22    1    3    3    0    0  0.30258202430E+02 -0.24079115052E+02 -0.24660572973E+03  0.24961920706E+03  0.00000000000E+00 0. -1.
</event>
<event>
 7    1  0.6140348E-006  0.8898619E+02  0.7818608E-02  0.1447500E+00
          2   -1    0    0  502    0  0.00000000000E+00  0.00000000000E+00  0.21699242887E+04  0.21699242887E+04  0.00000000000E+00 0. -1.
          1   -1    0    0  501    0 -0.00000000000E+00 -0.00000000000E+00 -0.35441271831E+03  0.35441271831E+03  0.00000000000E+00 0. -1.
         25    2    1    2    0    0 -0.78144796013E+02 -0.10064996503E+02  0.18268893466E+03  0.23496377053E+03  0.12499925326E+03 0.  0.
          2    1    1    2  501    0 -0.99867067295E+01  0.25782131660E+02 -0.32666935878E+03  0.32783734166E+03  0.00000000000E+00 0. -1.
          1    1    1    2  502    0  0.88131502743E+02 -0.15717135157E+02  0.19594919945E+04  0.19615358949E+04  0.00000000000E+00 0. -1.
         22    1    3    3    0    0  0.96320099057E+00 -0.25570385294E+02  0.14270183341E+03  0.14497787976E+03  0.00000000000E+00 0.  1.
         22    1    3    3    0    0 -0.79107997004E+02  0.15505388792E+02  0.39987101245E+02  0.89985890769E+02  0.00000000000E+00 0.  1.
</event>
<event>
 7    1  0.6140348E-006  0.1361150E+03  0.7818608E-02  0.1384178E+00
          2   -1    0    0  502    0  0.00000000000E+00  0.00000000000E+00  0.94807618637E+03  0.94807618637E+03  0.00000000000E+00 0. -1.
          1   -1    0    0  501    0 -0.00000000000E+00 -0.00000000000E+00 -0.63802987647E+03  0.63802987647E+03  0.00000000000E+00 0. -1.
         25    2    1    2    0    0  0.16109889038E+03 -0.23520040039E+02  0.72673143309E+02  0.21774898930E+03  0.12500876697E+03 0.  0.
          2    1    1    2  501    0 -0.27697447867E+02  0.10184085629E+02 -0.55950362222E+03  0.56028132889E+03  0.00000000000E+00 0. -1.
          1    1    1    2  502    0 -0.13340144251E+03  0.13335954410E+02  0.79687678882E+03  0.80807574465E+03  0.00000000000E+00 0. -1.
         22    1    3    3    0    0  0.42045139520E+02 -0.49256852237E+01 -0.35935730204E+02  0.55528666808E+02  0.00000000000E+00 0.  1.
         22    1    3    3    0    0  0.11905375086E+03 -0.18594354815E+02  0.10860887351E+03  0.16222032250E+03  0.00000000000E+00 0.  1.
</event>
<event>
 7    1  0.6140348E-006  0.1149721E+03  0.7818608E-02  0.1358879E+00
          2   -1    0    0  502    0  0.00000000000E+00  0.00000000000E+00  0.95114524862E+02  0.95114524862E+02  0.00000000000E+00 0. -1.
          1   -1    0    0  501    0 -0.00000000000E+00 -0.00000000000E+00 -0.10408714600E+04  0.10408714600E+04  0.00000000000E+00 0. -1.
         25    2    1    2    0    0  0.89897180373E+02  0.11967457117E+02 -0.39277743490E+03  0.42204869788E+03  0.12500506770E+03 0.  0.
          2    1    1    2  501    0 -0.12572723371E+03  0.11908239582E+02 -0.62084847390E+03  0.63356291795E+03  0.00000000000E+00 0. -1.
          1    1    1    2  502    0  0.35830053336E+02 -0.23875696699E+02  0.67868973644E+02  0.80374369039E+02  0.00000000000E+00 0. -1.
         22    1    3    3    0    0 -0.23801193933E+02  0.30011786568E+02 -0.12027099279E+03  0.12622327785E+03  0.00000000000E+00 0. -1.
         22    1    3    3    0    0  0.11369837431E+03 -0.18044329451E+02 -0.27250644211E+03  0.29582542003E+03  0.00000000000E+00 0. -1.
</event>
<event>
 7    1  0.6140348E-006  0.1124921E+03  0.7818608E-02  0.1322660E+00
          2   -1    0    0  502    0  0.00000000000E+00  0.00000000000E+00  0.10594481883E+04  0.10594481883E+04  0.00000000000E+00 0. -1.
          1   -1    0    0  501    0 -0.00000000000E+00 -0.00000000000E+00 -0.26813116163E+04  0.26813116163E+04  0.00000000000E+00 0. -1.
         25    2    1    2    0    0  0.36821790166E+02  0.16382560823E+03 -0.83827980046E+02  0.22549341490E+03  0.12500190312E+03 0.  0.
          2    1    1    2  501    0  0.37877419558E+01 -0.60085638498E+02 -0.25231521831E+04  0.25238703552E+04  0.00000000000E+00 0. -1.
          1    1    1    2  502    0 -0.40609532122E+02 -0.10373996973E+03  0.98511673516E+03  0.99139603455E+03  0.00000000000E+00 0. -1.
         22    1    3    3    0    0 -0.35414853480E+02  0.11743996860E+03 -0.39432074766E+02  0.12884582489E+03  0.00000000000E+00 0. -1.
         22    1    3    3    0    0  0.72236643646E+02  0.46385639629E+02 -0.44395905280E+02  0.96647590010E+02  0.00000000000E+00 0. -1.
</event>
<event>
 7    1  0.6140348E-006  0.4290318E+02  0.7818608E-02  0.1533062E+00
          2   -1    0    0  502    0  0.00000000000E+00  0.00000000000E+00  0.12746016623E+03  0.12746016623E+03  0.00000000000E+00 0. -1.
          1   -1    0    0  501    0 -0.00000000000E+00 -0.00000000000E+00 -0.12386202575E+04  0.12386202575E+04  0.00000000000E+00 0. -1.
         25    2    1    2    0    0  0.14404469908E+02  0.57178333693E+01 -0.42030477691E+03  0.43877197239E+03  0.12499822353E+03 0.  0.
          2    1    1    2  501    0  0.98310378658E+01  0.30019423867E+02 -0.80481902663E+03  0.80543868838E+03  0.00000000000E+00 0. -1.
          1    1    1    2  502    0 -0.24235507774E+02 -0.35737257236E+02  0.11396371231E+03  0.12186976292E+03  0.00000000000E+00 0. -1.
         22    1    3    3    0    0 -0.42275977009E+02  0.39561300915E+02 -0.15758529196E+03  0.16788531504E+03  0.00000000000E+00 0.  1.
         22    1    3    3    0    0  0.56680446917E+02 -0.33843467546E+02 -0.26271948495E+03  0.27088665735E+03  0.00000000000E+00 0.  1.
</event>
<event>
 7    1  0.6140348E-006  0.5639217E+02  0.7818608E-02  0.1498467E+00
          2   -1    0    0  502    0  0.00000000000E+00  0.00000000000E+00  0.48566714325E+03  0.48566714325E+03  0.00000000000E+00 0. -1.
          1   -1    0    0  501    0 -0.00000000000E+00 -0.00000000000E+00 -0.64030466697E+03  0.64030466697E+03  0.00000000000E+00 0. -1.
         25    2    1    2    0    0  0.18329817818E+02  0.66751231065E+02 -0.13232322311E+03  0.19475289113E+03  0.12501017623E+03 0.  0.
          2    1    1    2  501    0 -0.28149303968E+02 -0.11288091707E+02 -0.47453538326E+03  0.47550355866E+03  0.00000000000E+00 0. -1.
          1    1    1    2  502    0  0.98194861499E+01 -0.55463139359E+02  0.45222108265E+03  0.45571536043E+03  0.00000000000E+00 0. -1.
         22    1    3    3    0    0  0.31932606249E+02  0.15057780325E+02  0.14753800882E+02  0.38263595370E+02  0.00000000000E+00 0. -1.
         22    1    3    3    0    0 -0.13602788430E+02  0.51693450740E+02 -0.14707702399E+03  0.15648929576E+03  0.00000000000E+00 0. -1.
</event>
<event>
 7    1  0.6140348E-006  0.9312599E+02  0.7818608E-02  0.1444632E+00
          2   -1    0    0  502    0  0.00000000000E+00  0.00000000000E+00  0.65193944784E+03  0.65193944784E+03  0.00000000000E+00 0. -1.
          1   -1    0    0  501    0 -0.00000000000E+00 -0.00000000000E+00 -0.39646374453E+03  0.39646374453E+03  0.00000000000E+00 0. -1.
         25    2    1    2    0    0 -0.65513695018E+02  0.96152803452E+02  0.77453744045E+02  0.18751583500E+03  0.12500280021E+03 0.  0.
          2    1    1    2  501    0  0.21916694317E+02 -0.15746681816E+02 -0.33686261230E+03  0.33794188708E+03  0.00000000000E+00 0. -1.
          1    1    1    2  502    0  0.43597000702E+02 -0.80406121636E+02  0.51488457157E+03  0.52294547030E+03  0.00000000000E+00 0. -1.
         22    1    3    3    0    0 -0.94071936783E+02  0.31748741231E+02  0.35065633329E+02  0.10529534890E+03  0.00000000000E+00 0.  1.
         22    1    3    3    0    0  0.28558241765E+02  0.64404062221E+02  0.42388110717E+02  0.82220486093E+02  0.00000000000E+00 0.  1.
</event>
<event>
 7    1  0.6140348E-006  0.6006489E+02  0.7818608E-02  0.1499883E+00
          2   -1    0    0  502    0  0.00000000000E+00  0.00000000000E+00  0.57180847069E+03  0.57180847069E+03  0.00000000000E+00 0. -1.
          1   -1    0    0  501    0 -0.00000000000E+00 -0.00000000000E+00 -0.47069593362E+03  0.47069593362E+03  0.00000000000E+00 0. -1.
         25    2    1    2    0    0  0.59361427622E+02 -0.63345132602E+02  0.69683344249E+00  0.15218972765E+03  0.12499937085E+03 0.  0.
          2    1    1    2  501    0 -0.36687670896E+02  0.46581449791E+02 -0.39231863515E+03  0.39677415257E+03  0.00000000000E+00 0. -1.
          1    1    1    2  502    0 -0.22673756725E+02  0.16763682811E+02  0.49273433878E+03  0.49354052409E+03  0.00000000000E+00 0. -1.
         22    1    3    3    0    0  0.12088858440E+02 -0.89433144166E+02  0.23998521036E+02  0.93382850597E+02  0.00000000000E+00 0. -1.
         22    1    3    3    0    0  0.47272569182E+02  0.26088011564E+02 -0.23301687594E+02  0.58806877056E+02  0.00000000000E+00 0. -1.
</event>
<event>
 7    1  0.6140348E-006  0.9646316E+02  0.7818608E-02  0.1460327E+00
          2   -1    0    0  502    0  0.00000000000E+00  0.00000000000E+00  0.69660435722E+03  0.69660435722E+03  0.00000000000E+00 0. -1.
          1   -1    0    0  501    0 -0.00000000000E+00 -0.00000000000E+00 -0.18205736246E+04  0.18205736246E+04  0.00000000000E+00 0. -1.
         25    2    1    2    0    0 -0.90727358890E+02  0.34879689916E+02 -0.33536710763E+03  0.37086849315E+03  0.12499718361E+03 0.  0.
          2    1    1    2  501    0  0.11493177127E+02  0.20173758453E+02 -0.14639351233E+04  0.14641192297E+04  0.00000000000E+00 0. -1.
          1    1    1    2  502    0  0.79234181763E+02 -0.55053448369E+02  0.67533296355E+03  0.68219025894E+03  0.00000000000E+00 0. -1.
         22    1    3    3    0    0  0.51231729984E+01  0.57352897518E+02 -0.15553455196E+03  0.16585113388E+03  0.00000000000E+00 0.  1.
         22    1    3    3    0    0 -0.95850531889E+02 -0.22473207602E+02 -0.17983255567E+03  0.20501735927E+03  0.00000000000E+00 0.  1.
</event>
<event>
 7    1  0.6140348E-006  0.8915777E+02  0.7818608E-02  0.1329031E+00
          2   -1    0    0  502    0  0.00000000000E+00  0.00000000000E+00  0.33007209293E+04  0.33007209293E+04  0.00000000000E+00 0. -1.
          1   -1    0    0  501    0 -0.00000000000E+00 -0.00000000000E+00 -0.41299298204E+03  0.41299298204E+03  0.00000000000E+00 0. -1.
         25    2    1    2    0    0  0.11528048182E+03  0.91861926946E+02  0.12698029829E+03  0.23125138892E+03  0.12500002245E+03 0.  0.
          2    1    1    2  501    0 -0.45505631209E+02 -0.74947714774E+02 -0.35511165239E+03  0.36577617211E+03  0.00000000000E+00 0. -1.
          1    1    1    2  502    0 -0.69774850612E+02 -0.16914212172E+02  0.31158593014E+04  0.31166863503E+04  0.00000000000E+00 0. -1.
         22    1    3    3    0    0  0.32463200399E+02 -0.26812954602E+02  0.58043195308E+01  0.42502753321E+02  0.00000000000E+00 0. -1.
         22    1    3    3    0    0  0.82817281422E+02  0.11867488155E+03  0.12117597876E+03  0.18874863560E+03  0.00000000000E+00 0. -1.
</event>
<event>
 7    1  0.6140348E-006  0.1456798E+03  0.7818608E-02  0.1338131E+00
          2   -1    0    0  502    0  0.00000000000E+00  0.00000000000E+00  0.78410070768E+03  0.78410070768E+03  0.00000000000E+00 0. -1.
          1   -1    0    0  501    0 -0.00000000000E+00 -0.00000000000E+00 -0.74375191165E+03  0.74375191165E+03  0.00000000000E+00 0. -1.
         25    2    1    2    0    0  0.21858707065E+01 -0.11738459096E+03 -0.87890715704E+02  0.19270209065E+03  0.12500159042E+03 0.  0.
          2    1    1    2  501    0  0.31051461895E+02 -0.26121749299E+02 -0.59534400408E+03  0.59672524856E+03  0.00000000000E+00 0. -1.
          1    1    1    2  502    0 -0.33237332601E+02  0.14350634026E+03  0.72358351581E+03  0.73842528013E+03  0.00000000000E+00 0. -1.
         22    1    3    3    0    0 -0.18071925442E+02 -0.13959675222E+03 -0.65717059971E+02  0.15534664364E+03  0.00000000000E+00 0. -1.
         22    1    3    3    0    0  0.20257796149E+02  0.22212161260E+02 -0.22173655733E+02  0.37355447009E+02  0.00000000000E+00 0. -1.
</event>
<event>
 7    1  0.6140348E-006  0.1232285E+03  0.7818608E-02  0.1392121E+00
          2   -1    0    0  502    0  0.00000000000E+00  0.00000000000E+00  0.31990379372E+04  0.31990379372E+04  0.00000000000E+00 0. -1.
          1   -1    0    0  501    0 -0.00000000000E+00 -0.00000000000E+00 -0.33410587095E+03  0.33410587095E+03  0.00000000000E+00 0. -1.
         25    2    1    2    0    0 -0.71249921861E+02 -0.10434495483E+03  0.10810350639E+04  0.10955484545E+04  0.12500074378E+03 0.  0.
          2    1    1    2  501    0  0.42806051049E+02  0.11556152999E+03 -0.31511779707E+03  0.33835787452E+03  0.00000000000E+00 0. -1.
          1    1    1    2  502    0  0.28443870812E+02 -0.11216575162E+02  0.20990147995E+04  0.20992374791E+04  0.00000000000E+00 0. -1.
         22    1    3    3    0    0 -0.15591514700E+02 -0.93624434054E+01  0.66334153900E+03  0.66359079864E+03  0.00000000000E+00 0. -1.
         22    1    3    3    0    0 -0.55658407162E+02 -0.94982511427E+02  0.41769352486E+03  0.43195765588E+03  0.00000000000E+00 0. -1.
</event>
<event>
 7    1  0.6140348E-006  0.1003812E+03  0.7818608E-02  0.1402367E+00
          2   -1    0    0  502    0  0.00000000000E+00  0.00000000000E+00  0.55477441236E+03  0.55477441236E+03  0.00000000000E+00 0. -1.
          1   -1    0    0  501    0 -0.00000000000E+00 -0.00000000000E+00 -0.89884586739E+03  0.89884586739E+03  0.00000000000E+00 0. -1.
         25    2    1    2    0    0 -0.95213060663E+02 -0.59855340532E+01  0.13837164274E+03  0.20944958706E+03  0.12498425688E+03 0.  0.
          2    1    1    2  501    0  0.92071541719E+02  0.40441145659E+02 -0.85958389568E+03  0.86544620212E+03  0.00000000000E+00 0. -1.
          1    1    1    2  502    0  0.31415189444E+01 -0.34455611606E+02  0.37714079791E+03  0.37872449058E+03  0.00000000000E+00 0. -1.
         22    1    3    3    0    0 -0.12505333273E+03 -0.10331737732E+02  0.98855940699E+02  0.15974222311E+03  0.00000000000E+00 0. -1.
         22    1    3    3    0    0  0.29840272069E+02  0.43462036791E+01  0.39515702038E+02  0.49707363952E+02  0.00000000000E+00 0. -1.
</event>
<event>
 7    1  0.6140348E-006  0.4770475E+02  0.7818608E-02  0.1515166E+00
          2   -1    0    0  502    0  0.00000000000E+00  0.00000000000E+00  0.69812618768E+02  0.69812618768E+02  0.00000000000E+00 0. -1.
          1   -1    0    0  501    0 -0.00000000000E+00 -0.00000000000E+00 -0.65865960125E+03  0.65865960125E+03  0.00000000000E+00 0. -1.
         25    2    1    2    0    0  0.10991466069E+02 -0.36804995997E+02 -0.40025466961E+03  0.42107445108E+03  0.12499789100E+03 0.  0.
          2    1    1    2  501    0  0.29907859093E+02  0.11377419072E+02 -0.23697879776E+03  0.23912941326E+03  0.00000000000E+00 0. -1.
          1    1    1    2  502    0 -0.40899325163E+02  0.25427576924E+02  0.48386484883E+02  0.68268355673E+02  0.00000000000E+00 0. -1.
         22    1    3    3    0    0  0.26788352619E+02  0.35930115271E+02 -0.24295368527E+03  0.24705279235E+03  0.00000000000E+00 0.  1.
         22    1    3    3    0    0 -0.15796886550E+02 -0.72735111268E+02 -0.15730098433E+03  0.17402165873E+03  0.00000000000E+00 0.  1.
</event>
<event>
 7    1  0.6140348E-006  0.2787197E+02  0.7818608E-02  0.1671576E+00
          2   -1    0    0  502    0  0.00000000000E+00  0.00000000000E+00  0.22082627654E+03  0.22082627654E+03  0.00000000000E+00 0. -1.
          1   -1    0    0  501    0 -0.00000000000E+00 -0.00000000000E+00 -0.40105053834E+03  0.40105053834E+03  0.00000000000E+00 0. -1.
         25    2    1    2    0    0  0.21862755458E+02  0.15858644263E+02 -0.27710173132E+03  0.30518771556E+03  0.12499878222E+03 0.  0.
          2    1    1    2  501    0  0.56699221462E+01 -0.20375332907E+02 -0.10793368037E+03  0.10998627900E+03  0.00000000000E+00 0. -1.
          1    1    1    2  502    0 -0.27532677605E+02  0.45166886448E+01  0.20481114989E+03  0.20670282033E+03  0.00000000000E+00 0. -1.
         22    1    3    3    0    0 -0.93935165356E+01  0.37698497116E+02 -0.17173495071E+02  0.42477567852E+02  0.00000000000E+00 0. -1.
         22    1    3    3    0    0  0.31256271994E+02 -0.21839852853E+02 -0.25992823625E+03  0.26271014771E+03  0.00000000000E+00 0. -1.
</event>
<event>
 7    1  0.6140348E-006  0.1112756E+03  0.7818608E-02  0.1305891E+00
          2   -1    0    0  502    0  0.00000000000E+00  0.00000000000E+00  0.80865811728E+03  0.80865811728E+03  0.00000000000E+00 0. -1.
          1   -1    0    0  501    0 -0.00000000000E+00 -0.00000000000E+00 -0.31375616347E+03  0.31375616347E+03  0.00000000000E+00 0. -1.
         25    2    1    2    0    0 -0.50543040195E+02  0.34423944217E+02  0.74806473962E+01  0.13935508127E+03  0.12499708694E+03 0.  0.
          2    1    1    2  501    0  0.65706026264E+02 -0.10357571398E+03 -0.23079363699E+03  0.26136356534E+03  0.00000000000E+00 0. -1.
          1    1    1    2  502    0 -0.15162986069E+02  0.69151769762E+02  0.71821494340E+03  0.72169563414E+03  0.00000000000E+00 0. -1.
         22    1    3    3    0    0  0.11357547783E+02 -0.37748200157E+02 -0.14081324886E+02  0.41859338472E+02  0.00000000000E+00 0. -1.
         22    1    3    3    0    0 -0.61900587978E+02  0.72172144375E+02  0.21561972282E+02  0.97495742801E+02  0.00000000000E+00 0. -1.
</event>
<event>
 7    1  0.6140348E-006  0.7980340E+02  0.7818608E-02  0.1378885E+00
          2   -1    0    0  502    0  0.00000000000E+00  0.00000000000E+00  0.19702078035E+03  0.19702078035E+03  0.00000000000E+00 0. -1.
          1   -1    0    0  501    0 -0.00000000000E+00 -0.00000000000E+00 -0.10159106554E+04  0.10159106554E+04  0.00000000000E+00 0. -1.
         25    2    1    2    0    0  0.95607700180E+02 -0.88518589354E+02 -0.10640456320E+03  0.20957699512E+03  0.12499685124E+03 0.  0.
          2    1    1    2  501    0 -0.60220610558E+02  0.49671369315E+02 -0.85132839946E+03  0.85489988338E+03  0.00000000000E+00 0. -1.
          1    1    1    2  502    0 -0.35387089622E+02  0.38847220039E+02  0.13884308757E+03  0.14845455729E+03  0.00000000000E+00 0. -1.
         22    1    3    3    0    0  0.11137860980E+03 -0.50545296884E+02 -0.35068692725E+02  0.12723928233E+03  0.00000000000E+00 0.  1.
         22    1    3    3    0    0 -0.15770909624E+02 -0.37973292470E+02 -0.71335870476E+02  0.82337712792E+02  0.00000000000E+00 0.  1.
</event>
<event>
 7    1  0.6140348E-006  0.1489296E+03  0.7818608E-02  0.1288592E+00
          2   -1    0    0  502    0  0.00000000000E+00  0.00000000000E+00  0.20237401934E+04  0.20237401934E+04  0.00000000000E+00 0. -1.
          1   -1    0    0  501    0 -0.00000000000E+00 -0.00000000000E+00 -0.66369519422E+03  0.66369519422E+03  0.00000000000E+00 0. -1.
         25    2    1    2    0    0 -0.55297433707E+02 -0.73335106065E+02  0.82818722735E+02  0.17584057612E+03  0.12500049367E+03 0.  0.
          2    1    1    2  501    0  0.10200677037E+03  0.11423272578E+03 -0.60716456896E+03  0.62618153170E+03  0.00000000000E+00 0. -1.
          1    1    1    2  502    0 -0.46709336665E+02 -0.40897619714E+02  0.18843908454E+04  0.18854132798E+04  0.00000000000E+00 0. -1.
         22    1    3    3    0    0 -0.77430599906E+02 -0.95333504244E+02  0.57284511862E+02  0.13551933490E+03  0.00000000000E+00 0. -1.
         22    1    3    3    0    0  0.22133166199E+02  0.21998398179E+02  0.25534210873E+02  0.40321241218E+02  0.00000000000E+00 0. -1.
</event>
<event>
 7    1  0.6140348E-006  0.9407631E+02  0.7818608E-02  0.1389031E+00
          2   -1    0    0  502    0  0.00000000000E+00  0.00000000000E+00  0.12954864821E+03  0.12954864821E+03  0.00000000000E+00 0. -1.
          1   -1    0    0  501    0 -0.00000000000E+00 -0.00000000000E+00 -0.10540155001E+04  0.10540155001E+04  0.00000000000E+00 0. -1.
         25    2    1    2    0    0 -0.17074198396E+02  0.88251806380E+02 -0.23251102346E+03  0.27886599944E+03  0.12499984014E+03 0.  0.
          2    1    1    2  501    0 -0.39354577826E+02 -0.11697758921E+02 -0.77641819221E+03  0.77750294504E+03  0.00000000000E+00 0. -1.
          1    1    1    2  502    0  0.56428776222E+02 -0.76554047459E+02  0.84462363801E+02  0.12719520379E+03  0.00000000000E+00 0. -1.
         22    1    3    3    0    0 -0.29080941882E+01  0.10595746402E+03 -0.10444938604E+03  0.14881234974E+03  0.00000000000E+00 0. -1.
         22    1    3    3    0    0 -0.14166104208E+02 -0.17705657636E+02 -0.12806163742E+03  0.13005364970E+03  0.00000000000E+00 0. -1.
</event>
<event>
 7    1  0.6140348E-006  0.7015025E+02  0.7818608E-02  0.1393137E+00
          2   -1    0    0  502    0  0.00000000000E+00  0.00000000000E+00  0.14597022422E+04  0.14597022422E+04  0.00000000000E+00 0. -1.
          1   -1    0    0  501    0 -0.00000000000E+00 -0.00000000000E+00 -0.86545127302E+03  0.86545127302E+03  0.00000000000E+00 0. -1.
         25    2    1    2    0    0 -0.39280508805E+02  0.35130398505E+02  0.13805905793E+03  0.19355183314E+03  0.12499962145E+03 0.  0.
          2    1    1    2  501    0 -0.31678077378E+02 -0.42834052558E+02 -0.83587188275E+03  0.83756794412E+03  0.00000000000E+00 0. -1.
          1    1    1    2  502    0  0.70958586183E+02  0.77036540522E+01  0.12920637940E+04  0.12940337380E+04  0.00000000000E+00 0. -1.
         22    1    3    3    0    0 -0.74571833667E+02  0.50978023010E+02  0.12167183029E+03  0.15153795397E+03  0.00000000000E+00 0.  1.
         22    1    3    3    0    0  0.35291324862E+02 -0.15847624505E+02  0.16387227646E+02  0.42013879170E+02  0.00000000000E+00 0.  1.
</event>
<event>
 7    1  0.6140348E-006  0.1342367E+03  0.7818608E-02  0.1270758E+00
          2   -1    0    0  502    0  0.00000000000E+00  0.00000000000E+00  0.95646320035E+03  0.95646320035E+03  0.00000000000E+00 0. -1.
          1   -1    0    0  501    0 -0.00000000000E+00 -0.00000000000E+00 -0.13769930768E+03  0.13769930768E+03  0.00000000000E+00 0. -1.
         25    2    1    2    0    0 -0.45124128970E+02  0.17663165508E+03  0.70788191493E+03  0.74158881216E+03  0.12498892849E+03 0.  0.
          2    1    1    2  501    0  0.23379821535E+02 -0.78206426213E+02 -0.93845079056E+02  0.12437749000E+03  0.00000000000E+00 0. -1.
          1    1    1    2  502    0  0.21744307435E+02 -0.98425228871E+02  0.20472705680E+03  0.22819620587E+03  0.00000000000E+00 0. -1.
         22    1    3    3    0    0  0.40979948284E+02  0.89720162941E+02  0.32448914967E+03  0.33914933591E+03  0.00000000000E+00 0.  1.
         22    1    3    3    0    0 -0.86104077254E+02  0.86911492143E+02  0.38339276526E+03  0.40243947625E+03  0.00000000000E+00 0.  1.
</event>
<event>
 7    1  0.6140348E-006  0.6764348E+02  0.7818608E-02  0.1376704E+00
          2   -1    0    0  502    0  0.00000000000E+00  0.00000000000E+00  0.20199699370E+04  0.20199699370E+04  0.00000000000E+00 0. -1.
          1   -1    0    0  501    0 -0.00000000000E+00 -0.00000000000E+00 -0.38333539976E+02  0.38333539976E+02  0.00000000000E+00 0. -1.
         25    2    1    2    0    0 -0.71518472469E+02 -0.26043837102E+02  0.33425021280E+03  0.36488438833E+03  0.12499695490E+03 0.  0.
          2    1    1    2  501    0  0.13017554386E+02  0.61754486417E+02  0.22371092178E+02  0.66959234464E+02  0.00000000000E+00 0. -1.
          1    1    1    2  502    0  0.58500918083E+02 -0.35710649315E+02  0.16250150921E+04  0.16264598542E+04  0.00000000000E+00 0. -1.
         22    1    3    3    0    0  0.33237166654E+01  0.13108527535E+02  0.23140674450E+03  0.23180155734E+03  0.00000000000E+00 0.  1.
         22    1    3    3    0    0 -0.74842189134E+02 -0.39152364637E+02  0.10284346830E+03  0.13308283099E+03  0.00000000000E+00 0.  1.
</event>
<event>
 7    1  0.6140348E-006  0.8098704E+02  0.7818608E-02  0.1350838E+00
          2   -1    0    0  502    0  0.00000000000E+00  0.00000000000E+00  0.17724823562E+04  0.17724823562E+04  0.00000000000E+00 0. -1.
          1   -1    0    0  501    0 -0.00000000000E+00 -0.00000000000E+00 -0.33568486151E+02  0.33568486151E+02  0.00000000000E+00 0. -1.
         25    2    1    2    0    0  0.25390212967E+02 -0.66452933871E+02  0.13287638167E+04  0.13365248218E+04  0.12499865315E+03 0.  0.
          2    1    1    2  501    0  0.57275008697E+02  0.57257953833E+02  0.40339846123E+02  0.90477638583E+02  0.00000000000E+00 0. -1.
          1    1    1    2  502    0 -0.82665221664E+02  0.91949800385E+01  0.36981020725E+03  0.37904838202E+03  0.00000000000E+00 0. -1.
         22    1    3    3    0    0  0.25921700667E+01  0.27253317745E+02  0.91487201196E+02  0.95495395996E+02  0.00000000000E+00 0. -1.
         22    1    3    3    0    0  0.22798042900E+02 -0.93706251616E+02  0.12372766155E+04  0.12410294258E+04  0.00000000000E+00 0. -1.
</event>
<event>
 7    1  0.6140348E-006  0.4329658E+02  0.7818608E-02  0.1603245E+00
          2   -1    0    0  502    0  0.00000000000E+00  0.00000000000E+00  0.74220232244E+03  0.74220232244E+03  0.00000000000E+00 0. -1.
          1   -1    0    0  501    0 -0.00000000000E+00 -0.00000000000E+00 -0.13075015461E+03  0.13075015461E+03  0.00000000000E+00 0. -1.
         25    2    1    2    0    0 -0.38599145309E+02  0.10617941821E+02  0.32253682980E+03  0.34822336035E+03  0.12500746940E+03 0.  0.
          2    1    1    2  501    0 -0.44425651034E+01 -0.19656699663E+02 -0.11584578903E+03  0.11758558187E+03  0.00000000000E+00 0. -1.
          1    1    1    2  502    0  0.43041710413E+02  0.90387578413E+01  0.40476112707E+03  0.40714353484E+03  0.00000000000E+00 0. -1.
         22    1    3    3    0    0 -0.46596086931E+02  0.14736004203E+02  0.33175999335E+03  0.33534018298E+03  0.00000000000E+00 0. -1.
         22    1    3    3    0    0  0.79969416215E+01 -0.41180623819E+01 -0.92231635481E+01  0.12883177361E+02  0.00000000000E+00 0. -1.
</event>
<event>
 7    1  0.6140348E-006  0.6215458E+02  0.7818608E-02  0.1479613E+00
          2   -1    0    0  502    0  0.00000000000E+00  0.00000000000E+00  0.76577840696E+02  0.76577840696E+02  0.00000000000E+00 0. -1.
          1   -1    0    0  501    0 -0.00000000000E+00 -0.00000000000E+00 -0.66320835537E+03  0.66320835537E+03  0.00000000000E+00 0. -1.
         25    2    1    2    0    0 -0.13918870189E+02 -0.34720959765E+02 -0.30894607588E+03  0.33536745650E+03  0.12499749230E+03 0.  0.
          2    1    1    2  501    0  0.28085995180E+02  0.62725792226E+02 -0.33343347850E+03  0.34044270108E+03  0.00000000000E+00 0. -1.
          1    1    1    2  502    0 -0.14167124991E+02 -0.28004832461E+02  0.55749039708E+02  0.63976038484E+02  0.00000000000E+00 0. -1.
         22    1    3    3    0    0  0.31314006275E+02 -0.36038681736E+02 -0.38978048020E+02  0.61633122570E+02  0.00000000000E+00 0.  1.
         22    1    3    3    0    0 -0.45232876464E+02  0.13177219712E+01 -0.26996802786E+03  0.27373433393E+03  0.00000000000E+00 0.  1.
</event>
<event>
 7    1  0.6140348E-006  0.9390262E+02  0.7818608E-02  0.1343074E+00
          2   -1    0    0  502    0  0.00000000000E+00  0.00000000000E+00  0.17133251186E+04  0.17133251186E+04  0.00000000000E+00 0. -1.
          1   -1    0    0  501    0 -0.00000000000E+00 -0.00000000000E+00 -0.39033869477E+04  0.39033869477E+04  0.00000000000E+00 0. -1.
         25    2    1    2    0    0  0.48584119576E+01 -0.44364806056E+02 -0.19418310086E+04  0.19463629150E+04  0.12501636167E+03 0.  0.
          2    1    1    2  501    0  0.52154740326E+02 -0.30295380379E+02 -0.19575357867E+04  0.19584647771E+04  0.00000000000E+00 0. -1.
          1    1    1    2  502    0 -0.57013152283E+02  0.74660186435E+02  0.17093049662E+04  0.17118843742E+04  0.00000000000E+00 0. -1.
         22    1    3    3    0    0 -0.52131036213E+02  0.76921593903E+01 -0.59810114557E+03  0.60041801654E+03  0.00000000000E+00 0.  1.
         22    1    3    3    0    0  0.56989448171E+02 -0.52056965447E+02 -0.13437298630E+04  0.13459448984E+04  0.00000000000E+00 0.  1.
</event>
<event>
 7    1  0.6140348E-006  0.1283401E+03  0.7818608E-02  0.1282516E+00
          2   -1    0    0  502    0  0.00000000000E+00  0.00000000000E+00  0.31769047202E+04  0.31769047202E+04  0.00000000000E+00 0. -1.
          1   -1    0    0  501    0 -0.00000000000E+00 -0.00000000000E+00 -0.49408662227E+02  0.49408662227E+02  0.00000000000E+00 0. -1.
         25    2    1    2    0    0 -0.60010038011E+01 -0.96483285301E+01  0.18067344726E+03  0.21999331267E+03  0.12500024314E+03 0.  0.
          2    1    1    2  501    0 -0.83972986040E+02  0.10116812473E+03  0.12446802082E+03  0.18104899904E+03  0.00000000000E+00 0. -1.
          1    1    1    2  502    0  0.89973989841E+02 -0.91519796204E+02  0.28223545899E+04  0.28252710708E+04  0.00000000000E+00 0. -1.
         22    1    3    3    0    0  0.14627511991E+02 -0.54551793782E+02  0.35666831746E+02  0.66798092777E+02  0.00000000000E+00 0.  1.
         22    1    3    3    0    0 -0.20628515792E+02  0.44903465252E+02  0.14500661551E+03  0.15319521989E+03  0.00000000000E+00 0.  1.
</event>
<event>
 7    1  0.6140348E-006  0.1059732E+03  0.7818608E-02  0.1465074E+00
          2   -1    0    0  502    0  0.00000000000E+00  0.00000000000E+00  0.54781337484E+03  0.54781337484E+03  0.00000000000E+00 0. -1.
          1   -1    0    0  501    0 -0.00000000000E+00 -0.00000000000E+00 -0.25553683132E+04  0.25553683132E+04  0.00000000000E+00 0. -1.
         25    2    1    2    0    0 -0.39488668014E+02 -0.11994469648E+03 -0.14030265796E+04  0.14142328638E+04  0.12499969943E+03 0.  0.
          2    1    1    2  501    0  0.52420322499E+01  0.19736438055E+02 -0.11414756506E+04  0.11416582969E+04  0.00000000000E+00 0. -1.
          1    1    1    2  502    0  0.34246635764E+02  0.10020825843E+03  0.53694729185E+03  0.54729052736E+03  0.00000000000E+00 0. -1.
         22    1    3    3    0    0 -0.36308523820E+01 -0.10942524238E+03 -0.13006391364E+04  0.13052391467E+04  0.00000000000E+00 0. -1.
         22    1    3    3    0    0 -0.35857815632E+02 -0.10519454107E+02 -0.10238744320E+03  0.10899371717E+03  0.00000000000E+00 0. -1.
</event>
<event>
 7    1  0.6140348E-006  0.4872101E+02  0.7818608E-02  0.1525083E+00
          2   -1    0    0  502    0  0.00000000000E+00  0.00000000000E+00  0.70927726425E+03  0.70927726425E+03  0.00000000000E+00 0. -1.
          1   -1    0    0  501    0 -0.00000000000E+00 -0.00000000000E+00 -0.10088110386E+04  0.10088110386E+04  0.00000000000E+00 0. -1.
         25    2    1    2    0    0  0.45974738043E+02 -0.56153565205E+02  0.13898559021E+03  0.20052816575E+03  0.12501060575E+03 0.  0.
          2    1    1    2  501    0 -0.40190307292E+02  0.27408323977E+02 -0.97703576806E+03  0.97824606776E+03  0.00000000000E+00 0. -1.
          1    1    1    2  502    0 -0.57844307508E+01  0.28745241228E+02  0.53851640350E+03  0.53931406933E+03  0.00000000000E+00 0. -1.
         22    1    3    3    0    0  0.33235683437E+02 -0.96498268382E+02  0.93629557819E+02  0.13850278175E+03  0.00000000000E+00 0. -1.
         22    1    3    3    0    0  0.12739054606E+02  0.40344703177E+02  0.45356032390E+02  0.62025384004E+02  0.00000000000E+00 0. -1.
</event>
<event>
 7    1  0.6140348E-006  0.5026299E+02  0.7818608E-02  0.1493290E+00
          2   -1    0    0  502    0  0.00000000000E+00  0.00000000000E+00  0.11693687432E+03  0.11693687432E+03  0.00000000000E+00 0. -1.
          1   -1    0    0  501    0 -0.00000000000E+00 -0.00000000000E+00 -0.74994162462E+03  0.74994162462E+03  0.00000000000E+00 0. -1.
         25    2    1    2    0    0 -0.77555621677E+02 -0.30574403441E+02 -0.89228164909E+02  0.17474662971E+03  0.12500020233E+03 0.  0.
          2    1    1    2  501    0  0.48302134240E+02  0.10878896682E+02 -0.61270684504E+03  0.61470409509E+03  0.00000000000E+00 0. -1.
          1    1    1    2  502    0  0.29253487437E+02  0.19695506760E+02  0.68930259647E+02  0.77427774143E+02  0.00000000000E+00 0. -1.
         22    1    3    3    0    0  0.30763259428E+02 -0.10865182991E+02  0.63395594204E+00  0.32631767224E+02  0.00000000000E+00 0. -1.
         22    1    3    3    0    0 -0.10831888111E+03 -0.19709220451E+02 -0.89862120851E+02  0.14211486248E+03  0.00000000000E+00 0. -1.
</event>
<event>
 7    1  0.6140348E-006  0.3677564E+02  0.7818608E-02  0.1583141E+00
          2   -1    0    0  502    0  0.00000000000E+00  0.00000000000E+00  0.19189984007E+03  0.19189984007E+03  0.00000000000E+00 0. -1.
          1   -1    0    0  501    0 -0.00000000000E+00 -0.00000000000E+00 -0.12051932519E+04  0.12051932519E+04  0.00000000000E+00 0. -1.
         25    2    1    2    0    0 -0.14872206752E+02 -0.21673913873E+02 -0.57111291615E+03  0.58522273303E+03  0.12499897276E+03 0.  0.
          2    1    1    2  501    0 -0.66476474943E+01  0.37655297169E+02 -0.62546671211E+03  0.62663443935E+03  0.00000000000E+00 0. -1.
          1    1    1    2  502    0  0.21519854247E+02 -0.15981383295E+02  0.18328621648E+03  0.18523591954E+03  0.00000000000E+00 0. -1.
         22    1    3    3    0    0 -0.30136949446E+02 -0.44236554728E+02 -0.54455012854E+03  0.54717451603E+03  0.00000000000E+00 0.  1.
         22    1    3    3    0    0  0.15264742693E+02  0.22562640855E+02 -0.26562787609E+02  0.38048217006E+02  0.00000000000E+00 0.  1.
</event>
<event>
 7    1  0.6140348E-006  0.3367375E+02  0.7818608E-02  0.1606763E+00
          2   -1    0    0  502    0  0.00000000000E+00  0.00000000000E+00  0.49576530335E+03  0.49576530335E+03  0.00000000000E+00 0. -1.
          1   -1    0    0  501    0 -0.00000000000E+00 -0.00000000000E+00 -0.88791995125E+02  0.88791995125E+02  0.00000000000E+00 0. -1.
         25    2    1    2    0    0  0.53719119603E+02 -0.21223195867E+02  0.18975501714E+03  0.23445293096E+03  0.12500016981E+03 0.  0.
          2    1    1    2  501    0 -0.28775646885E+02  0.16579463520E+02 -0.61681052544E+02  0.70053327596E+02  0.00000000000E+00 0. -1.
          1    1    1    2  502    0 -0.24943472718E+02  0.46437323460E+01  0.27889934363E+03  0.28005103992E+03  0.00000000000E+00 0. -1.
         22    1    3    3    0    0  0.84514413719E+02 -0.38502980254E+01  0.17818624184E+03  0.19725072295E+03  0.00000000000E+00 0. -1.
         22    1    3    3    0    0 -0.30795294116E+02 -0.17372897841E+02  0.11568775292E+02  0.37202208010E+02  0.00000000000E+00 0. -1.
</event>
<event>
 7    1  0.6140348E-006  0.2946694E+02  0.7818608E-02  0.1626955E+00
          2   -1    0    0  502    0  0.00000000000E+00  0.00000000000E+00  0.26832572031E+03  0.26832572031E+03  0.00000000000E+00 0. -1.
          1   -1    0    0  501    0 -0.00000000000E+00 -0.00000000000E+00 -0.83324383104E+02  0.83324383104E+02  0.00000000000E+00 0. -1.
         25    2    1    2    0    0 -0.97909342165E+01  0.52327977543E+02  0.67237219644E+02  0.15159068279E+03  0.12499924711E+03 0.  0.
          2    1    1    2  501    0  0.27670965295E+00 -0.28406377522E+02 -0.35036054942E+02  0.45105698066E+02  0.00000000000E+00 0. -1.
          1    1    1    2  502    0  0.95142245636E+01 -0.23921600022E+02  0.15280017250E+03  0.15495372256E+03  0.00000000000E+00 0. -1.
         22    1    3    3    0    0 -0.45042039058E+01 -0.11490187336E+02 -0.31542005082E+02  0.33870493685E+02  0.00000000000E+00 0. -1.
         22    1    3    3    0    0 -0.52867303107E+01  0.63818164879E+02  0.98779224727E+02  0.11772018911E+03  0.00000000000E+00 0. -1.
</event>
<event>
 7    1  0.6140348E-006  0.7117949E+02  0.7818608E-02  0.1486423E+00
          2   -1    0    0  502    0  0.00000000000E+00  0.00000000000E+00  0.13015602583E+04  0.13015602583E+04  0.00000000000E+00 0. -1.
          1   -1    0    0  501    0 -0.00000000000E+00 -0.00000000000E+00 -0.12374848684E+03  0.12374848684E+03  0.00000000000E+00 0. -1.
         25    2    1    2    0    0 -0.77119122784E+02 -0.32689944107E+02  0.66212293251E+03  0.67900424364E+03  0.12499597424E+03 0.  0.
          2    1    1    2  501    0  0.70648028967E+02  0.73807841550E+01 -0.10406704855E+03  0.12599829589E+03  0.00000000000E+00 0. -1.
          1    1    1    2  502    0  0.64710938175E+01  0.25309159951E+02  0.61975588750E+03  0.62030620561E+03  0.00000000000E+00 0. -1.
         22    1    3    3    0    0 -0.12110523386E+02 -0.31204354001E+02  0.53655775989E+03  0.53760078700E+03  0.00000000000E+00 0.  1.
         22    1    3    3    0    0 -0.65008599398E+02 -0.14855901057E+01  0.12556517262E+03  0.14140345664E+03  0.00000000000E+00 0.  1.
</event>
<event>
 7    1  0.6140348E-006  0.6727814E+02  0.7818608E-02  0.1379111E+00
          2   -1    0    0  502    0  0.00000000000E+00  0.00000000000E+00  0.69285778946E+03  0.69285778946E+03  0.00000000000E+00 0. -1.
          1   -1    0    0  501    0 -0.00000000000E+00 -0.00000000000E+00 -0.80959309672E+03  0.80959309672E+03  0.00000000000E+00 0. -1.
         25    2    1    2    0    0  0.86964316460E+02  0.90787460832E+02 -0.24169243105E+03  0.29974719714E+03  0.12501198176E+03 0.  0.
          2    1    1    2  501    0 -0.43913941104E+02 -0.45869438931E+02 -0.53553547527E+03  0.53928720078E+03  0.00000000000E+00 0. -1.
          1    1    1    2  502    0 -0.43050375355E+02 -0.44918021901E+02  0.66049259906E+03  0.66341648828E+03  0.00000000000E+00 0. -1.
         22    1    3    3    0    0  0.10868343367E+03  0.10316925730E+03 -0.18718267856E+03  0.23977768779E+03  0.00000000000E+00 0.  1.
         22    1    3    3    0    0 -0.21719117207E+02 -0.12381796466E+02 -0.54509752483E+02  0.59969509350E+02  0.00000000000E+00 0.  1.
</event>
<event>
 7    1  0.6140348E-006  0.1046547E+03  0.7818608E-02  0.1313784E+00
          2   -1    0    0  502    0  0.00000000000E+00  0.00000000000E+00  0.12992570627E+03  0.12992570627E+03  0.00000000000E+00 0. -1.
          1   -1    0    0  501    0 -0.00000000000E+00 -0.00000000000E+00 -0.22007941074E+04  0.22007941074E+04  0.00000000000E+00 0. -1.
         25    2    1    2    0    0 -0.12845990023E+03  0.22178022471E+02 -0.74079022924E+03  0.76248521868E+03  0.12497893556E+03 0.  0.
          2    1    1    2  501    0  0.76496102606E+02 -0.69183265787E+02 -0.14368375029E+04  0.14405346187E+04  0.00000000000E+00 0. -1.
          1    1    1    2  502    0  0.51963797623E+02  0.47005243316E+02  0.10675933105E+03  0.12769997623E+03  0.00000000000E+00 0. -1.
         22    1    3    3    0    0 -0.51271739486E+02  0.57523343804E+02 -0.18744873770E+03  0.20266907909E+03  0.00000000000E+00 0.  1.
         22    1    3    3    0    0 -0.77188160743E+02 -0.35345321333E+02 -0.55334149153E+03  0.55981613959E+03  0.00000000000E+00 0.  1.
</event>
<event>
 7    1  0.6140348E-006  0.1107448E+03  0.7818608E-02  0.1282957E+00
          2   -1    0    0  502    0  0.00000000000E+00  0.00000000000E+00  0.36036805934E+03  0.36036805934E+03  0.00000000000E+00 0. -1.
          1   -1    0    0  501    0 -0.00000000000E+00 -0.00000000000E+00 -0.56498411266E+03  0.56498411266E+03  0.00000000000E+00 0. -1.
         25    2    1    2    0    0 -0.14216247938E+03 -0.95049553743E+02 -0.16378937874E+03  0.26776165338E+03  0.12499901689E+03 0.  0.
          2    1    1    2  501    0  0.88042955896E+02  0.69736683947E+00 -0.33372676533E+03  0.34514576964E+03  0.00000000000E+00 0. -1.
          1    1    1    2  502    0  0.54119523483E+02  0.94352186903E+02  0.29290009075E+03  0.31244474897E+03  0.00000000000E+00 0. -1.
         22    1    3    3    0    0 -0.22757431172E+02 -0.89405698047E+02 -0.69155672384E+02  0.11529868403E+03  0.00000000000E+00 0.  1.
         22    1    3    3    0    0 -0.11940504821E+03 -0.56438556955E+01 -0.94633706358E+02  0.15246296935E+03  0.00000000000E+00 0.  1.
</event>
<event>
 7    1  0.6140348E-006  0.9517380E+02  0.7818608E-02  0.1379340E+00
          2   -1    0    0  502    0  0.00000000000E+00  0.00000000000E+00  0.12822509071E+04  0.12822509071E+04  0.00000000000E+00 0. -1.
          1   -1    0    0  501    0 -0.00000000000E+00 -0.00000000000E+00 -0.63831049955E+03  0.63831049955E+03  0.00000000000E+00 0. -1.
         25    2    1    2    0    0 -0.98092737199E+02 -0.37025328387E+02  0.49288313666E+03  0.51918401639E+03  0.12500078573E+03 0.  0.
          2    1    1    2  501    0  0.66789319856E+02  0.67801804134E+02 -0.62091062985E+03  0.62816232628E+03  0.00000000000E+00 0. -1.
          1    1    1    2  502    0  0.31303417343E+02 -0.30776475747E+02  0.77196790077E+03  0.77321506402E+03  0.00000000000E+00 0. -1.
         22    1    3    3    0    0  0.12537962348E+02  0.25459581183E+02  0.16725271837E+03  0.16964333933E+03  0.00000000000E+00 0. -1.
         22    1    3    3    0    0 -0.11063069955E+03 -0.62484909570E+02  0.32563041829E+03  0.34954067706E+03  0.00000000000E+00 0. -1.
</event>
<event>
 7    1  0.6140348E-006  0.7767681E+02  0.7818608E-02  0.1349202E+00
          2   -1    0    0  502    0  0.00000000000E+00  0.00000000000E+00  0.29342521995E+03  0.29342521995E+03  0.00000000000E+00 0. -1.
          1   -1    0    0  501    0 -0.00000000000E+00 -0.00000000000E+00 -0.22737827002E+03  0.22737827002E+03  0.00000000000E+00 0. -1.
         25    2    1    2    0    0  0.30520038424E+02  0.67353523446E+02  0.23082961711E+03  0.27271527162E+03  0.12499334933E+03 0.  0.
          2    1    1    2  501    0  0.68708575374E+02 -0.80562654972E+01 -0.72135137655E+02  0.99946234688E+02  0.00000000000E+00 0. -1.
          1    1    1    2  502    0 -0.99228613798E+02 -0.59297257949E+02 -0.92647529517E+02  0.14814198366E+03  0.00000000000E+00 0. -1.
         22    1    3    3    0    0  0.31470086189E+02  0.11721326002E+02 -0.16964315990E+01  0.33624896849E+02  0.00000000000E+00 0.  1.
         22    1    3    3    0    0 -0.95004776468E+00  0.55632197445E+02  0.23252604871E+03  0.23909037477E+03  0.00000000000E+00 0.  1.
</event>
<event>
 7    1  0.6140348E-006  0.1257421E+03  0.7818608E-02  0.1310859E+00
          2   -1    0    0  502    0  0.00000000000E+00  0.00000000000E+00  0.19382176528E+04  0.19382176528E+04  0.00000000000E+00 0. -1.
          1   -1    0    0  501    0 -0.00000000000E+00 -0.00000000000E+00 -0.64852593740E+02  0.64852593740E+02  0.00000000000E+00 0. -1.
         25    2    1    2    0    0  0.77243909457E+02 -0.75725126790E+02  0.74627192281E+03  0.76436035157E+03  0.12499619161E+03 0.  0.
          2    1    1    2  501    0 -0.28999888524E+02 -0.52390645594E+02 -0.34479092956E+02  0.69098343911E+02  0.00000000000E+00 0. -1.
          1    1    1    2  502    0 -0.48244020933E+02  0.12811577238E+03  0.11615722292E+04  0.11696115511E+04  0.00000000000E+00 0. -1.
         22    1    3    3    0    0  0.41613179666E+00 -0.86322926592E+02  0.44273518568E+03  0.45107235058E+03  0.00000000000E+00 0.  1.
         22    1    3    3    0    0  0.76827777661E+02  0.10597799802E+02  0.30353673713E+03  0.31328800100E+03  0.00000000000E+00 0.  1.
</event>
<event>
 7    1  0.6140348E-006  0.4946414E+02  0.7818608E-02  0.1530769E+00
          2   -1    0    0  502    0  0.00000000000E+00  0.00000000000E+00  0.19773893725E+04  0.19773893725E+04  0.00000000000E+00 0. -1.
          1   -1    0    0  501    0 -0.00000000000E+00 -0.00000000000E+00 -0.92795155005E+02  0.92795155005E+02  0.00000000000E+00 0. -1.
         25    2    1    2    0    0  0.93880516564E-01  0.33706793054E+02  0.14637081006E+04  0.14694216786E+04  0.12499003571E+03 0.  0.
          2    1    1    2  501    0 -0.13758134748E+02  0.24173937742E+02 -0.86007000133E+02  0.90392862603E+02  0.00000000000E+00 0. -1.
          1    1    1    2  502    0  0.13664254231E+02 -0.57880730796E+02  0.50689311698E+03  0.51036998627E+03  0.00000000000E+00 0. -1.
         22    1    3    3    0    0 -0.48450658441E+02  0.26001430264E+02  0.11943875342E+04  0.11956525927E+04  0.00000000000E+00 0.  1.
         22    1    3    3    0    0  0.48544538957E+02  0.77053627895E+01  0.26932056642E+03  0.27376908587E+03  0.00000000000E+00 0.  1.
</event>
<event>
 7    1  0.6140348E-006  0.6508072E+02  0.7818608E-02  0.1427103E+00
          2   -1    0    0  502    0  0.00000000000E+00  0.00000000000E+00  0.35042920265E+03  0.35042920265E+03  0.00000000000E+00 0. -1.
          1   -1    0    0  501    0 -0.00000000000E+00 -0.00000000000E+00 -0.18296024131E+03  0.18296024131E+03  0.00000000000E+00 0. -1.
         25    2    1    2    0    0  0.37537146857E+02 -0.34933252923E+02 -0.10327670390E+03  0.17006002602E+03  0.12499986131E+03 0.  0.
          2    1    1    2  501    0 -0.32667857545E+02  0.78719042217E+02 -0.37596873036E+01  0.85311264044E+02  0.00000000000E+00 0. -1.
          1    1    1    2  502    0 -0.48692893122E+01 -0.43785789293E+02  0.27450535254E+03  0.27801815390E+03  0.00000000000E+00 0. -1.
         22    1    3    3    0    0  0.20548888722E+01 -0.45824510953E+02  0.13265491516E+02  0.47750200392E+02  0.00000000000E+00 0.  1.
         22    1    3    3    0    0  0.35482257985E+02  0.10891258029E+02 -0.11654219542E+03  0.12230982563E+03  0.00000000000E+00 0.  1.
</event>
<event>
 7    1  0.6140348E-006  0.7724554E+02  0.7818608E-02  0.1393024E+00
          2   -1    0    0  502    0  0.00000000000E+00  0.00000000000E+00  0.84760223137E+02  0.84760223137E+02  0.00000000000E+00 0. -1.
          1   -1    0    0  501    0 -0.00000000000E+00 -0.00000000000E+00 -0.21849857279E+04  0.21849857279E+04  0.00000000000E+00 0. -1.
         25    2    1    2    0    0  0.30944432393E+02  0.11278975683E+03 -0.45039751484E+03  0.48183119801E+03  0.12499717941E+03 0.  0.
          2    1    1    2  501    0 -0.38247522286E+02 -0.64918356931E+02 -0.17094471350E+04  0.17111068855E+04  0.00000000000E+00 0. -1.
          1    1    1    2  502    0  0.73030898933E+01 -0.47871399903E+02  0.59619145125E+02  0.76807867540E+02  0.00000000000E+00 0. -1.
         22    1    3    3    0    0  0.16611571070E+02 -0.40770467154E+01 -0.85590456467E+00  0.17125979562E+02  0.00000000000E+00 0.  1.
         22    1    3    3    0    0  0.14332861323E+02  0.11686680355E+03 -0.44954161028E+03  0.46470521845E+03  0.00000000000E+00 0.  1.
</event>
<event>
 7    1  0.6140348E-006  0.1440198E+03  0.7818608E-02  0.1281909E+00
          2   -1    0    0  502    0  0.00000000000E+00  0.00000000000E+00  0.79736994681E+03  0.79736994681E+03  0.00000000000E+00 0. -1.
          1   -1    0    0  501    0 -0.00000000000E+00 -0.00000000000E+00 -0.19080729013E+04  0.19080729013E+04  0.00000000000E+00 0. -1.
         25    2    1    2    0    0 -0.11399083956E+03 -0.28295822766E+02 -0.56546897746E+02  0.18062146999E+03  0.12502799162E+03 0.  0.
          2    1    1    2  501    0  0.39189681311E+01 -0.68266515974E+02 -0.17815370693E+04  0.17828488452E+04  0.00000000000E+00 0. -1.
          1    1    1    2  502    0  0.11007187143E+03  0.96562338741E+02  0.72738101257E+03  0.74197253291E+03  0.00000000000E+00 0. -1.
         22    1    3    3    0    0 -0.13377584030E+03 -0.16946657109E+02 -0.72200424817E+02  0.15295772612E+03  0.00000000000E+00 0. -1.
         22    1    3    3    0    0  0.19785000741E+02 -0.11349165658E+02  0.15653527071E+02  0.27663743876E+02  0.00000000000E+00 0. -1.
</event>
<event>
 7    1  0.6140348E-006  0.3875159E+02  0.7818608E-02  0.1561755E+00
          2   -1    0    0  502    0  0.00000000000E+00  0.00000000000E+00  0.42881232439E+03  0.42881232439E+03  0.00000000000E+00 0. -1.
          1   -1    0    0  501    0 -0.00000000000E+00 -0.00000000000E+00 -0.30760624250E+03  0.30760624250E+03  0.00000000000E+00 0. -1.
         25    2    1    2    0    0  0.12793486165E+02  0.60368044605E+02  0.17020893367E+03  0.22001160113E+03  0.12500419766E+03 0.  0.
          2    1    1    2  501    0 -0.17605987585E+02 -0.23128510947E+02 -0.28044059869E+03  0.28194295205E+03  0.00000000000E+00 0. -1.
          1    1    1    2  502    0  0.48125014207E+01 -0.37239533658E+02  0.23143774690E+03  0.23446401371E+03  0.00000000000E+00 0. -1.
         22    1    3    3    0    0 -0.29225094179E+01  0.32398326246E+02  0.18270717810E+03  0.18558045569E+03  0.00000000000E+00 0.  1.
         22    1    3    3    0    0  0.15715995582E+02  0.27969718360E+02 -0.12498244430E+02  0.34431145437E+02  0.00000000000E+00 0.  1.
</event>
<event>
 7    1  0.6140348E-006  0.1078882E+03  0.7818608E-02  0.1334497E+00
          2   -1    0    0  502    0  0.00000000000E+00  0.00000000000E+00  0.12297546303E+04  0.12297546303E+04  0.00000000000E+00 0. -1.
          1   -1    0    0  501    0 -0.00000000000E+00 -0.00000000000E+00 -0.74332199657E+02  0.74332199657E+02  0.00000000000E+00 0. -1.
         25    2    1    2    0    0  0.65813107114E+02  0.62523968696E+01  0.27425768015E+03  0.30856598115E+03  0.12500092828E+03 0.  0.
          2    1    1    2  501    0 -0.10902510725E+03 -0.42735499790E+02  0.46608374216E+01  0.11719436999E+03  0.00000000000E+00 0. -1.
          1    1    1    2  502    0  0.43212000131E+02  0.36483102920E+02  0.87650391309E+03  0.87832647883E+03  0.00000000000E+00 0. -1.
         22    1    3    3    0    0  0.17807613089E+02  0.56097164585E+01 -0.93797862186E+01  0.20894027668E+02  0.00000000000E+00 0.  1.
         22    1    3    3    0    0  0.48005494025E+02  0.64268041116E+00  0.28363746637E+03  0.28767195349E+03  0.00000000000E+00 0.  1.
</event>
<event>
 7    1  0.6140348E-006  0.7022268E+02  0.7818608E-02  0.1456276E+00
          2   -1    0    0  502    0  0.00000000000E+00  0.00000000000E+00  0.33320692370E+04  0.33320692370E+04  0.00000000000E+00 0. -1.
          1   -1    0    0  501    0 -0.00000000000E+00 -0.00000000000E+00 -0.11487360110E+03  0.11487360110E+03  0.00000000000E+00 0. -1.
         25    2    1    2    0    0 -0.40282545901E+02  0.32586788583E+02  0.17303666800E+03  0.21966031013E+03  0.12499752431E+03 0.  0.
          2    1    1    2  501    0 -0.28461280488E+02 -0.16400854369E+02 -0.88204702499E+02  0.94122803050E+02  0.00000000000E+00 0. -1.
          1    1    1    2  502    0  0.68743826389E+02 -0.16185934214E+02  0.31323636704E+04  0.31331597250E+04  0.00000000000E+00 0. -1.
         22    1    3    3    0    0 -0.68380197420E+02  0.59915655933E+02  0.14617854598E+03  0.17214501018E+03  0.00000000000E+00 0. -1.
         22    1    3    3    0    0  0.28097651520E+02 -0.27328867350E+02  0.26858122019E+02  0.47515299956E+02  0.00000000000E+00 0. -1.
</event>
<event>
 7    1  0.6140348E-006  0.2097611E+03  0.7818608E-02  0.1375573E+00
          2   -1    0    0  502    0  0.00000000000E+00  0.00000000000E+00  0.85264369140E+03  0.85264369140E+03  0.00000000000E+00 0. -1.
          1   -1    0    0  501    0 -0.00000000000E+00 -0.00000000000E+00 -0.38755233625E+03  0.38755233625E+03  0.00000000000E+00 0. -1.
         25    2    1    2    0    0  0.85132200007E+02 -0.21243978726E+03  0.39538314532E+03  0.47363591959E+03  0.12499999216E+03 0.  0.
          2    1    1    2  501    0 -0.76017153709E+02  0.19403115832E+03 -0.31696972819E+03  0.37933693024E+03  0.00000000000E+00 0. -1.
          1    1    1    2  502    0 -0.91150462979E+01  0.18408628936E+02  0.38667793801E+03  0.38722317781E+03  0.00000000000E+00 0. -1.
         22    1    3    3    0    0 -0.14721560794E+02  0.33976689142E+01  0.63939549283E+02  0.65700338422E+02  0.00000000000E+00 0. -1.
         22    1    3    3    0    0  0.99853760801E+02 -0.21583745617E+03  0.33144359604E+03  0.40793558117E+03  0.00000000000E+00 0. -1.
</event>
<event>
 7    1  0.6140348E-006  0.9257789E+02  0.7818608E-02  0.1332456E+00
          2   -1    0    0  502    0  0.00000000000E+00  0.00000000000E+00  0.48716255842E+04  0.48716255842E+04  0.00000000000E+00 0. -1.
          1   -1    0    0  501    0 -0.00000000000E+00 -0.00000000000E+00 -0.86109517052E+02  0.86109517052E+02  0.00000000000E+00 0. -1.
         25    2    1    2    0    0  0.70682670884E+02  0.23134564244E+02  0.55454334212E+03  0.57330030770E+03  0.12499470583E+03 0.  0.
          2    1    1    2  501    0 -0.43019937294E+02 -0.84259899849E+02 -0.47205934887E+02  0.10573006203E+03  0.00000000000E+00 0. -1.
          1    1    1    2  502    0 -0.27662733590E+02  0.61125335605E+02  0.42781786599E+04  0.42787047315E+04  0.00000000000E+00 0. -1.
         22    1    3    3    0    0  0.54881871616E+02  0.21079907399E+02  0.84237226085E+02  0.10272435245E+03  0.00000000000E+00 0. -1.
         22    1    3    3    0    0  0.15800799268E+02  0.20546568449E+01  0.47030611604E+03  0.47057595525E+03  0.00000000000E+00 0. -1.
</event>
<event>
 7    1  0.6140348E-006  0.1564565E+03  0.7818608E-02  0.1236128E+00
          2   -1    0    0  502    0  0.00000000000E+00  0.00000000000E+00  0.27659361574E+03  0.27659361574E+03  0.00000000000E+00 0. -1.
          1   -1    0    0  501    0 -0.00000000000E+00 -0.00000000000E+00 -0.27703353986E+04  0.27703353986E+04  0.00000000000E+00 0. -1.
         25    2    1    2    0    0  0.29931320010E+02  0.22750020137E+03 -0.91083642685E+02  0.27671597997E+03  0.12499311207E+03 0.  0.
          2    1    1    2  501    0 -0.71080612681E+02 -0.13768572312E+03 -0.25706552134E+04  0.25753209582E+04  0.00000000000E+00 0. -1.
          1    1    1    2  502    0  0.41149292671E+02 -0.89814478248E+02  0.16799707312E+03  0.19489207621E+03  0.00000000000E+00 0. -1.
         22    1    3    3    0    0  0.47371617318E+02  0.16093419873E+03 -0.11552584283E+03  0.20369120455E+03  0.00000000000E+00 0. -1.
         22    1    3    3    0    0 -0.17440297309E+02  0.66566002640E+02  0.24442200144E+02  0.73024775423E+02  0.00000000000E+00 0. -1.
</event>
<event>
 7    1  0.6140348E-006  0.5355804E+02  0.7818608E-02  0.1499481E+00
          2   -1    0    0  502    0  0.00000000000E+00  0.00000000000E+00  0.90258788062E+03  0.90258788062E+03  0.00000000000E+00 0. -1.
          1   -1    0    0  501    0 -0.00000000000E+00 -0.00000000000E+00 -0.18316642756E+02  0.18316642756E+02  0.00000000000E+00 0. -1.
         25    2    1    2    0    0 -0.69422532700E+01 -0.38184021585E+02  0.63459857995E+03  0.64795612425E+03  0.12500226756E+03 0.  0.
          2    1    1    2  501    0  0.18119855283E+02 -0.26024366265E+02  0.29424414417E+02  0.43259599614E+02  0.00000000000E+00 0. -1.
          1    1    1    2  502    0 -0.11177602013E+02  0.64208387850E+02  0.22024824349E+03  0.22968879951E+03  0.00000000000E+00 0. -1.
         22    1    3    3    0    0 -0.37270991856E+02  0.29328816092E+02  0.13915925096E+03  0.14701905800E+03  0.00000000000E+00 0.  1.
         22    1    3    3    0    0  0.30328738586E+02 -0.67512837677E+02  0.49543932899E+03  0.50093706626E+03  0.00000000000E+00 0.  1.
</event>
<event>
 7    1  0.1441441E-005  0.8319218E+02  0.7818608E-02  0.1402145E+00
          2   -1    0    0  502    0  0.00000000000E+00  0.00000000000E+00  0.10395281427E+04  0.10395281427E+04  0.00000000000E+00 0. -1.
          1   -1    0    0  501    0 -0.00000000000E+00 -0.00000000000E+00 -0.10664049200E+04  0.10664049200E+04  0.00000000000E+00 0. -1.
         25    2    1    2    0    0 -0.93320127397E+02 -0.52127136530E+02 -0.44848755051E+03  0.47769433726E+03  0.12499964938E+03 0.  0.
          2    1    1    2  501    0  0.40131972669E+02 -0.11762591810E+02 -0.60090032480E+03  0.60235382803E+03  0.00000000000E+00 0. -1.
          1    1    1    2  502    0  0.53188154727E+02  0.63889728340E+02  0.10225110981E+04  0.10258848975E+04  0.00000000000E+00 0. -1.
         22    1    3    3    0    0 -0.33829665881E+02  0.41463402697E+02 -0.15209730491E+03  0.16123662803E+03  0.00000000000E+00 0. -1.
         22    1    3    3    0    0 -0.59490461515E+02 -0.93590539227E+02 -0.29639024560E+03  0.31645770923E+03  0.00000000000E+00 0. -1.
</event>
<event>
 7    1  0.6140348E-006  0.5995813E+02  0.7818608E-02  0.1506100E+00
          2   -1    0    0  502    0  0.00000000000E+00  0.00000000000E+00  0.17118696301E+04  0.17118696301E+04  0.00000000000E+00 0. -1.
          1   -1    0    0  501    0 -0.00000000000E+00 -0.00000000000E+00 -0.53597979090E+03  0.53597979090E+03  0.00000000000E+00 0. -1.
         25    2    1    2    0    0  0.43894357929E+02 -0.84346462863E+01 -0.37052470679E+03  0.39358814736E+03  0.12500085395E+03 0.  0.
          2    1    1    2  501    0 -0.70754245280E+02  0.50562988096E+01 -0.14563687840E+03  0.16199330151E+03  0.00000000000E+00 0. -1.
          1    1    1    2  502    0  0.26859887351E+02  0.33783474767E+01  0.16920514244E+04  0.16922679722E+04  0.00000000000E+00 0. -1.
         22    1    3    3    0    0  0.43800998246E+00  0.46038729678E+02 -0.25138306303E+03  0.25556447496E+03  0.00000000000E+00 0.  1.
         22    1    3    3    0    0  0.43456347946E+02 -0.54473375965E+02 -0.11914164375E+03  0.13802367240E+03  0.00000000000E+00 0.  1.
</event>
<event>
 7    1  0.6140348E-006  0.9105606E+02  0.7818608E-02  0.1344458E+00
          2   -1    0    0  502    0  0.00000000000E+00  0.00000000000E+00  0.81634359949E+03  0.81634359949E+03  0.00000000000E+00 0. -1.
          1   -1    0    0  501    0 -0.00000000000E+00 -0.00000000000E+00 -0.17193011661E+04  0.17193011661E+04  0.00000000000E+00 0. -1.
         25    2    1    2    0    0 -0.93319686428E+02  0.82783037649E+02  0.43278893610E+03  0.46743231441E+03  0.12500044057E+03 0.  0.
          2    1    1    2  501    0  0.61263416759E+02 -0.49607404948E+01 -0.16965799583E+04  0.16976929552E+04  0.00000000000E+00 0. -1.
          1    1    1    2  502    0  0.32056269669E+02 -0.77822297155E+02  0.36083345550E+03  0.37051949607E+03  0.00000000000E+00 0. -1.
         22    1    3    3    0    0 -0.10827043913E+03  0.10171978538E+03  0.33077089481E+03  0.36260003803E+03  0.00000000000E+00 0. -1.
         22    1    3    3    0    0  0.14950752706E+02 -0.18936747730E+02  0.10201804130E+03  0.10483227638E+03  0.00000000000E+00 0. -1.
</event>
<event>
 7    1  0.6140348E-006  0.7344854E+02  0.7818608E-02  0.1424163E+00
          2   -1    0    0  502    0  0.00000000000E+00  0.00000000000E+00  0.17127496876E+04  0.17127496876E+04  0.00000000000E+00 0. -1.
          1   -1    0    0  501    0 -0.00000000000E+00 -0.00000000000E+00 -0.51106406612E+02  0.51106406612E+02  0.00000000000E+00 0. -1.
         25    2    1    2    0    0  0.67110054712E+02 -0.16794359139E+02  0.45542188371E+03  0.47730534974E+03  0.12500197913E+03 0.  0.
          2    1    1    2  501    0 -0.70882271537E+02 -0.22948841107E+02 -0.49993993435E+01  0.74672215182E+02  0.00000000000E+00 0. -1.
          1    1    1    2  502    0  0.37722168245E+01  0.39743200247E+02  0.12112207966E+04  0.12118785293E+04  0.00000000000E+00 0. -1.
         22    1    3    3    0    0  0.13653969951E+02 -0.34613982902E+02  0.28997867720E+02  0.47174516850E+02  0.00000000000E+00 0.  1.
         22    1    3    3    0    0  0.53456084761E+02  0.17819623763E+02  0.42642401599E+03  0.43013083288E+03  0.00000000000E+00 0.  1.
</event>
<event>
 7    1  0.6140348E-006  0.1824095E+03  0.7818608E-02  0.1202316E+00
          2   -1    0    0  502    0  0.00000000000E+00  0.00000000000E+00  0.95326531949E+02  0.95326531949E+02  0.00000000000E+00 0. -1.
          1   -1    0    0  501    0 -0.00000000000E+00 -0.00000000000E+00 -0.43548919646E+04  0.43548919646E+04  0.00000000000E+00 0. -1.
         25    2    1    2    0    0  0.26029740926E+03  0.11926751655E+03 -0.70366446298E+03  0.76990166461E+03  0.12500165974E+03 0.  0.
          2    1    1    2  501    0 -0.14005485856E+03 -0.10657468104E+03 -0.35550496041E+04  0.35594032103E+04  0.00000000000E+00 0. -1.
          1    1    1    2  502    0 -0.12024255070E+03 -0.12692835512E+02 -0.85136558928E+00  0.12091362163E+03  0.00000000000E+00 0. -1.
         22    1    3    3    0    0  0.81696354758E+02  0.10166743148E+03 -0.34530821012E+03  0.36911830215E+03  0.00000000000E+00 0.  1.
         22    1    3    3    0    0  0.17860105450E+03  0.17600085073E+02 -0.35835625286E+03  0.40078336247E+03  0.00000000000E+00 0.  1.
</event>
<event>
 7    1  0.6140348E-006  0.1050762E+03  0.7818608E-02  0.1433016E+00
          2   -1    0    0  502    0  0.00000000000E+00  0.00000000000E+00  0.26032499820E+04  0.26032499820E+04  0.00000000000E+00 0. -1.
          1   -1    0    0  501    0 -0.00000000000E+00 -0.00000000000E+00 -0.71663127343E+02  0.71663127343E+02  0.00000000000E+00 0. -1.
         25    2    1    2    0    0 -0.73544095155E+02 -0.54018998616E+02  0.72380002253E+03  0.74016093113E+03  0.12499978087E+03 0.  0.
          2    1    1    2  501    0  0.69787267909E+02  0.79837750795E+02 -0.19043354822E+02  0.10773568850E+03  0.00000000000E+00 0. -1.
          1    1    1    2  502    0  0.37568272462E+01 -0.25818752179E+02  0.18268301870E+04  0.18270164897E+04  0.00000000000E+00 0. -1.
         22    1    3    3    0    0 -0.93530384979E+02 -0.79170313877E+02  0.58392120483E+03  0.59664046541E+03  0.00000000000E+00 0.  1.
         22    1    3    3    0    0  0.19986289824E+02  0.25151315261E+02  0.13987881770E+03  0.14352046573E+03  0.00000000000E+00 0.  1.
</event>
<event>
 7    1  0.6140348E-006  0.2720044E+03  0.7818608E-02  0.1256307E+00
          2   -1    0    0  502    0  0.00000000000E+00  0.00000000000E+00  0.13830151222E+04  0.13830151222E+04  0.00000000000E+00 0. -1.
          1   -1    0    0  501    0 -0.00000000000E+00 -0.00000000000E+00 -0.26762699529E+03  0.26762699529E+03  0.00000000000E+00 0. -1.
         25    2    1    2    0    0 -0.64752635192E+02  0.23607466008E+03  0.97236289671E+03  0.10104647085E+04  0.12500070120E+03 0.  0.
          2    1    1    2  501    0  0.10834203048E+03 -0.25195723889E+03 -0.17069616154E+03  0.32304430866E+03  0.00000000000E+00 0. -1.
          1    1    1    2  502    0 -0.43589395285E+02  0.15882578812E+02  0.31372139170E+03  0.31713310029E+03  0.00000000000E+00 0. -1.
         22    1    3    3    0    0 -0.84759294131E+02  0.93420133284E+02  0.54759155341E+03  0.56193235234E+03  0.00000000000E+00 0. -1.
         22    1    3    3    0    0  0.20006658938E+02  0.14265452679E+03  0.42477134330E+03  0.44853235614E+03  0.00000000000E+00 0. -1.
</event>
<event>
 7    1  0.6140348E-006  0.2230369E+03  0.7818608E-02  0.1293840E+00
          2   -1    0    0  502    0  0.00000000000E+00  0.00000000000E+00  0.12683573306E+04  0.12683573306E+04  0.00000000000E+00 0. -1.
          1   -1    0    0  501    0 -0.00000000000E+00 -0.00000000000E+00 -0.15592364604E+04  0.15592364604E+04  0.00000000000E+00 0. -1.
         25    2    1    2    0    0 -0.18138697969E+03 -0.33678132304E+02 -0.39590167877E+03  0.45431124055E+03  0.12500044418E+03 0.  0.
          2    1    1    2  501    0 -0.38903529098E+02 -0.66686154559E+01 -0.11236616870E+04  0.11243547224E+04  0.00000000000E+00 0. -1.
          1    1    1    2  502    0  0.22029050878E+03  0.40346747760E+02  0.12286842359E+04  0.12489278281E+04  0.00000000000E+00 0. -1.
         22    1    3    3    0    0 -0.14105334722E+03  0.20394289631E+02 -0.18914910600E+03  0.23683191954E+03  0.00000000000E+00 0. -1.
         22    1    3    3    0    0 -0.40333632462E+02 -0.54072421934E+02 -0.20675257276E+03  0.21747932101E+03  0.00000000000E+00 0. -1.
</event>
<event>
 7    1  0.6140348E-006  0.4695603E+02  0.7818608E-02  0.1522810E+00
          2   -1    0    0  502    0  0.00000000000E+00  0.00000000000E+00  0.89417383298E+03  0.89417383298E+03  0.00000000000E+00 0. -1.
          1   -1    0    0  501    0 -0.00000000000E+00 -0.00000000000E+00 -0.31411759816E+03  0.31411759816E+03  0.00000000000E+00 0. -1.
         25    2    1    2    0    0 -0.37334160607E+02  0.40587748239E+02 -0.19690112240E+03  0.23966131609E+03  0.12500515818E+03 0.  0.
          2    1    1    2  501    0 -0.83542992414E+01 -0.29735696839E+02 -0.92697718939E+02  0.97708101398E+02  0.00000000000E+00 0. -1.
          1    1    1    2  502    0  0.45688459848E+02 -0.10852051400E+02  0.86965507616E+03  0.87092201365E+03  0.00000000000E+00 0. -1.
         22    1    3    3    0    0 -0.10788281103E+02  0.17985415404E+02  0.14440305683E+02  0.25463397350E+02  0.00000000000E+00 0. -1.
         22    1    3    3    0    0 -0.26545879504E+02  0.22602332835E+02 -0.21134142808E+03  0.21419791874E+03  0.00000000000E+00 0. -1.
</event>
<event>
 7    1  0.6140348E-006  0.2913600E+02  0.7818608E-02  0.1637381E+00
          2   -1    0    0  502    0  0.00000000000E+00  0.00000000000E+00  0.81955018209E+03  0.81955018209E+03  0.00000000000E+00 0. -1.
          1   -1    0    0  501    0 -0.00000000000E+00 -0.00000000000E+00 -0.13546263436E+04  0.13546263436E+04  0.00000000000E+00 0. -1.
         25    2    1    2    0    0 -0.26336181481E+02  0.65434187424E+01 -0.89168214264E+03  0.90081076822E+03  0.12500634325E+03 0.  0.
          2    1    1    2  501    0  0.13274089358E+02 -0.27288972352E+02 -0.45769296208E+03  0.45869787115E+03  0.00000000000E+00 0. -1.
          1    1    1    2  502    0  0.13062092123E+02  0.20745553609E+02  0.81429894316E+03  0.81466788637E+03  0.00000000000E+00 0. -1.
         22    1    3    3    0    0 -0.19787097007E+02  0.65547979003E+02 -0.46150484010E+03  0.46655630335E+03  0.00000000000E+00 0.  1.
         22    1    3    3    0    0 -0.65490844737E+01 -0.59004560260E+02 -0.43017730253E+03  0.43425446486E+03  0.00000000000E+00 0.  1.
</event>
<event>
 7    1  0.6140348E-006  0.1156665E+03  0.7818608E-02  0.1405506E+00
          2   -1    0    0  502    0  0.00000000000E+00  0.00000000000E+00  0.56038444297E+03  0.56038444297E+03  0.00000000000E+00 0. -1.
          1   -1    0    0  501    0 -0.00000000000E+00 -0.00000000000E+00 -0.19270532062E+03  0.19270532062E+03  0.00000000000E+00 0. -1.
         25    2    1    2    0    0 -0.11187018432E+03  0.10111664927E+02  0.11390346901E+03  0.20301642905E+03  0.12499794520E+03 0.  0.
          2    1    1    2  501    0  0.10977927689E+03 -0.39330304479E+02 -0.12454748054E+03  0.17061781089E+03  0.00000000000E+00 0. -1.
          1    1    1    2  502    0  0.20909074359E+01  0.29218639552E+02  0.37832313388E+03  0.37945552364E+03  0.00000000000E+00 0. -1.
         22    1    3    3    0    0 -0.94405666909E+02 -0.27612292154E+02  0.20071043604E+02  0.10038782503E+03  0.00000000000E+00 0.  1.
         22    1    3    3    0    0 -0.17464517416E+02  0.37723957081E+02  0.93832425402E+02  0.10262860402E+03  0.00000000000E+00 0.  1.
</event>
<event>
 7    1  0.6140348E-006  0.7327072E+02  0.7818608E-02  0.1373908E+00
          2   -1    0    0  502    0  0.00000000000E+00  0.00000000000E+00  0.12723451255E+04  0.12723451255E+04  0.00000000000E+00 0. -1.
          1   -1    0    0  501    0 -0.00000000000E+00 -0.00000000000E+00 -0.47534235029E+03  0.47534235029E+03  0.00000000000E+00 0. -1.
         25    2    1    2    0    0 -0.44168831584E+02 -0.16587600581E+02 -0.39034856170E+02  0.13919399131E+03  0.12500085217E+03 0.  0.
          2    1    1    2  501    0  0.24181603380E+02 -0.54493463947E+02 -0.38280335809E+03  0.38741798941E+03  0.00000000000E+00 0. -1.
          1    1    1    2  502    0  0.19987228205E+02  0.71081064527E+02  0.12188409894E+04  0.12210754950E+04  0.00000000000E+00 0. -1.
         22    1    3    3    0    0  0.18115163452E+02 -0.56256644232E+02 -0.24258380134E+02  0.63886134441E+02  0.00000000000E+00 0.  1.
         22    1    3    3    0    0 -0.62283995036E+02  0.39669043652E+02 -0.14776476036E+02  0.75307856867E+02  0.00000000000E+00 0.  1.
</event>
<event>
 7    1  0.6140348E-006  0.4749246E+02  0.7818608E-02  0.1460043E+00
          2   -1    0    0  502    0  0.00000000000E+00  0.00000000000E+00  0.84641274094E+02  0.84641274094E+02  0.00000000000E+00 0. -1.
          1   -1    0    0  501    0 -0.00000000000E+00 -0.00000000000E+00 -0.12465253635E+04  0.12465253635E+04  0.00000000000E+00 0. -1.
         25    2    1    2    0    0  0.21263179854E+00 -0.50458492163E+02 -0.40012408813E+03  0.42222096199E+03  0.12500060079E+03 0.  0.
          2    1    1    2  501    0 -0.40422428758E+02  0.24477187971E+02 -0.82682055146E+03  0.82816986772E+03  0.00000000000E+00 0. -1.
          1    1    1    2  502    0  0.40209796959E+02  0.25981304192E+02  0.65060550221E+02  0.80775807851E+02  0.00000000000E+00 0. -1.
         22    1    3    3    0    0  0.58622448013E+02 -0.48762603800E+02 -0.23509761025E+03  0.24715434304E+03  0.00000000000E+00 0.  1.
         22    1    3    3    0    0 -0.58409816214E+02 -0.16958883630E+01 -0.16502647788E+03  0.17506661895E+03  0.00000000000E+00 0.  1.
</event>
<event>
 7    1  0.6140348E-006  0.9085281E+02  0.7818608E-02  0.1310347E+00
          2   -1    0    0  502    0  0.00000000000E+00  0.00000000000E+00  0.21433383004E+04  0.21433383004E+04  0.00000000000E+00 0. -1.
          1   -1    0    0  501    0 -0.00000000000E+00 -0.00000000000E+00 -0.29877812595E+03  0.29877812595E+03  0.00000000000E+00 0. -1.
         25    2    1    2    0    0  0.23468454555E+02 -0.13229337600E+03  0.48274759049E+03  0.51645101667E+03  0.12499644315E+03 0.  0.
          2    1    1    2  501    0 -0.66818363513E+02  0.61205887592E+02 -0.27355882005E+03  0.28817578386E+03  0.00000000000E+00 0. -1.
          1    1    1    2  502    0  0.43349908959E+02  0.71087488408E+02  0.16353714040E+04  0.16374896258E+04  0.00000000000E+00 0. -1.
         22    1    3    3    0    0  0.26025241815E+02 -0.14333984810E+03  0.30152975301E+03  0.33487880974E+03  0.00000000000E+00 0.  1.
         22    1    3    3    0    0 -0.25567872603E+01  0.11046472096E+02  0.18121783749E+03  0.18157220693E+03  0.00000000000E+00 0.  1.
</event>
<event>
 7    1  0.6140348E-006  0.9885620E+02  0.7818608E-02  0.1348600E+00
          2   -1    0    0  502    0  0.00000000000E+00  0.00000000000E+00  0.15940292655E+04  0.15940292655E+04  0.00000000000E+00 0. -1.
          1   -1    0    0  501    0 -0.00000000000E+00 -0.00000000000E+00 -0.10495796340E+03  0.10495796340E+03  0.00000000000E+00 0. -1.
         25    2    1    2    0    0 -0.44760239167E+02  0.83693016840E+02  0.11248637632E+03  0.19309505105E+03  0.12499805521E+03 0.  0.
          2    1    1    2  501    0  0.52345369456E+02  0.15661238167E+02 -0.51054971975E+02  0.74779156506E+02  0.00000000000E+00 0. -1.
          1    1    1    2  502    0 -0.75851302890E+01 -0.99354255006E+02  0.14276398978E+04  0.14311130214E+04  0.00000000000E+00 0. -1.
         22    1    3    3    0    0 -0.42262478185E+02 -0.16531117601E+02  0.71713556685E+02  0.84865947964E+02  0.00000000000E+00 0.  1.
         22    1    3    3    0    0 -0.24977609826E+01  0.10022413444E+03  0.40772819635E+02  0.10822910309E+03  0.00000000000E+00 0.  1.
</event>
<event>
 7    1  0.6140348E-006  0.1269428E+03  0.7818608E-02  0.1265312E+00
          2   -1    0    0  502    0  0.00000000000E+00  0.00000000000E+00  0.22621783998E+03  0.22621783998E+03  0.00000000000E+00 0. -1.
          1   -1    0    0  501    0 -0.00000000000E+00 -0.00000000000E+00 -0.12222505672E+04  0.12222505672E+04  0.00000000000E+00 0. -1.
         25    2    1    2    0    0 -0.11735887609E+03 -0.87069757284E+02 -0.45057714214E+03  0.48989844387E+03  0.12500590331E+03 0.  0.
          2    1    1    2  501    0  0.12824824578E+03 -0.32752984489E+01 -0.73616636105E+03  0.74726116671E+03  0.00000000000E+00 0. -1.
          1    1    1    2  502    0 -0.10889369685E+02  0.90345055733E+02  0.19071077595E+03  0.21130879662E+03  0.00000000000E+00 0. -1.
         22    1    3    3    0    0 -0.39568637948E+02 -0.88265283032E+02 -0.34777240162E+03  0.36097379493E+03  0.00000000000E+00 0.  1.
         22    1    3    3    0    0 -0.77790238144E+02  0.11955257482E+01 -0.10280474052E+03  0.12892464894E+03  0.00000000000E+00 0.  1.
</event>
<event>
 7    1  0.6140348E-006  0.2211604E+03  0.7818608E-02  0.1147355E+00
          2   -1    0    0  502    0  0.00000000000E+00  0.00000000000E+00  0.23125125282E+03  0.23125125282E+03  0.00000000000E+00 0. -1.
          1   -1    0    0  501    0 -0.00000000000E+00 -0.00000000000E+00 -0.19420427873E+04  0.19420427873E+04  0.00000000000E+00 0. -1.
         25    2    1    2    0    0  0.54868034622E+02  0.15594395071E+02 -0.79082378939E+03  0.80267150847E+03  0.12500239302E+03 0.  0.
          2    1    1    2  501    0  0.17494886756E+03 -0.63330847005E+02 -0.10739187785E+04  0.10899171736E+04  0.00000000000E+00 0. -1.
          1    1    1    2  502    0 -0.22981690218E+03  0.47736451934E+02  0.15395103340E+03  0.28070535809E+03  0.00000000000E+00 0. -1.
         22    1    3    3    0    0  0.19673279863E+01 -0.50737048434E+02 -0.23620057948E+03  0.24159642425E+03  0.00000000000E+00 0.  1.
         22    1    3    3    0    0  0.52900706636E+02  0.66331443505E+02 -0.55462320991E+03  0.56107508422E+03  0.00000000000E+00 0.  1.
</event>
<event>
 7    1  0.6140348E-006  0.5617651E+02  0.7818608E-02  0.1480329E+00
          2   -1    0    0  502    0  0.00000000000E+00  0.00000000000E+00  0.10222017374E+04  0.10222017374E+04  0.00000000000E+00 0. -1.
          1   -1    0    0  501    0 -0.00000000000E+00 -0.00000000000E+00 -0.15611614082E+02  0.15611614082E+02  0.00000000000E+00 0. -1.
         25    2    1    2    0    0 -0.10719965719E+02  0.50449964045E+02  0.38432280757E+03  0.40741822183E+03  0.12500188208E+03 0.  0.
          2    1    1    2  501    0 -0.22379433571E+02 -0.60352478529E+02  0.34182485622E+03  0.34783256466E+03  0.00000000000E+00 0. -1.
          1    1    1    2  502    0  0.33099399290E+02  0.99025144837E+01  0.28044245955E+03  0.28256256501E+03  0.00000000000E+00 0. -1.
         22    1    3    3    0    0 -0.58466927223E+01 -0.11310213607E+02 -0.46410656553E+01  0.13551540061E+02  0.00000000000E+00 0.  1.
         22    1    3    3    0    0 -0.48732729963E+01  0.61760177652E+02  0.38896387323E+03  0.39386668177E+03  0.00000000000E+00 0.  1.
</event>
<event>
 7    1  0.6140348E-006  0.7072227E+02  0.7818608E-02  0.1449075E+00
          2   -1    0    0  502    0  0.00000000000E+00  0.00000000000E+00  0.22671328923E+03  0.22671328923E+03  0.00000000000E+00 0. -1.
          1   -1    0    0  501    0 -0.00000000000E+00 -0.00000000000E+00 -0.16440223582E+04  0.16440223582E+04  0.00000000000E+00 0. -1.
         25    2    1    2    0    0 -0.84248216821E+02  0.45246702818E+02 -0.62546575008E+03  0.64496274672E+03  0.12499805595E+03 0.  0.
          2    1    1    2  501    0  0.49879523658E+02 -0.46361673965E+02 -0.10062875706E+04  0.10085891366E+04  0.00000000000E+00 0. -1.
          1    1    1    2  502    0  0.34368693164E+02  0.11149711472E+01  0.21444425180E+03  0.21718376403E+03  0.00000000000E+00 0. -1.
         22    1    3    3    0    0  0.85384048804E+01  0.62169272814E+02 -0.27006374249E+03  0.27725862989E+03  0.00000000000E+00 0.  1.
         22    1    3    3    0    0 -0.92786621702E+02 -0.16922569995E+02 -0.35540200758E+03  0.36770411683E+03  0.00000000000E+00 0.  1.
</event>
<event>
 7    1  0.6140348E-006  0.1273404E+03  0.7818608E-02  0.1281836E+00
          2   -1    0    0  502    0  0.00000000000E+00  0.00000000000E+00  0.89896394821E+03  0.89896394821E+03  0.00000000000E+00 0. -1.
          1   -1    0    0  501    0 -0.00000000000E+00 -0.00000000000E+00 -0.50989734433E+03  0.50989734433E+03  0.00000000000E+00 0. -1.
         25    2    1    2    0    0 -0.47029036268E+02 -0.10620277644E+03  0.36340508556E+03  0.40147028225E+03  0.12499748535E+03 0.  0.
          2    1    1    2  501    0 -0.28050261591E+02  0.12496975450E+03 -0.47951282467E+03  0.49632328752E+03  0.00000000000E+00 0. -1.
          1    1    1    2  502    0  0.75079297859E+02 -0.18766978059E+02  0.50517434299E+03  0.51106772276E+03  0.00000000000E+00 0. -1.
         22    1    3    3    0    0 -0.75109275737E+02 -0.91457437909E+02  0.18051653259E+03  0.21585199742E+03  0.00000000000E+00 0. -1.
         22    1    3    3    0    0  0.28080239469E+02 -0.14745338533E+02  0.18288855297E+03  0.18561828483E+03  0.00000000000E+00 0. -1.
</event>
<event>
 7    1  0.6140348E-006  0.7530735E+02  0.7818608E-02  0.1478351E+00
          2   -1    0    0  502    0  0.00000000000E+00  0.00000000000E+00  0.36992310378E+03  0.36992310378E+03  0.00000000000E+00 0. -1.
          1   -1    0    0  501    0 -0.00000000000E+00 -0.00000000000E+00 -0.44300394566E+03  0.44300394566E+03  0.00000000000E+00 0. -1.
         25    2    1    2    0    0  0.46295115027E+02  0.70303560151E+02 -0.56069712518E+02  0.16079646899E+03  0.12500345408E+03 0.  0.
          2    1    1    2  501    0 -0.58253076930E+02 -0.47064479440E+02 -0.32982827707E+03  0.33822356297E+03  0.00000000000E+00 0. -1.
          1    1    1    2  502    0  0.11957961902E+02 -0.23239080710E+02  0.31281714770E+03  0.31390701748E+03  0.00000000000E+00 0. -1.
         22    1    3    3    0    0  0.82836505498E+02  0.76897379321E+02 -0.36197863091E+02  0.11868183889E+03  0.00000000000E+00 0.  1.
         22    1    3    3    0    0 -0.36541390471E+02 -0.65938191709E+01 -0.19871849427E+02  0.42114630100E+02  0.00000000000E+00 0.  1.
</event>
<event>
 7    1  0.6140348E-006  0.6444371E+02  0.7818608E-02  0.1449905E+00
          2   -1    0    0  502    0  0.00000000000E+00  0.00000000000E+00  0.38844388527E+03  0.38844388527E+03  0.00000000000E+00 0. -1.
          1   -1    0    0  501    0 -0.00000000000E+00 -0.00000000000E+00 -0.20229774878E+03  0.20229774878E+03  0.00000000000E+00 0. -1.
         25    2    1    2    0    0  0.34130014762E+02  0.31281617864E+01  0.57078560569E+02  0.14162805051E+03  0.12500359720E+03 0.  0.
          2    1    1    2  501    0 -0.59022978140E+02 -0.31183380970E+02 -0.15175986294E+03  0.16579255471E+03  0.00000000000E+00 0. -1.
          1    1    1    2  502    0  0.24892963377E+02  0.28055219183E+02  0.28082743887E+03  0.28332102882E+03  0.00000000000E+00 0. -1.
         22    1    3    3    0    0  0.17440821685E+02 -0.10497647310E+02  0.95463596013E+02  0.97609840814E+02  0.00000000000E+00 0.  1.
         22    1    3    3    0    0  0.16689193078E+02  0.13625809096E+02 -0.38385035444E+02  0.44018209700E+02  0.00000000000E+00 0.  1.
</event>
<event>
 7    1  0.6140348E-006  0.1113610E+03  0.7818608E-02  0.1282648E+00
          2   -1    0    0  502    0  0.00000000000E+00  0.00000000000E+00  0.10452954242E+04  0.10452954242E+04  0.00000000000E+00 0. -1.
          1   -1    0    0  501    0 -0.00000000000E+00 -0.00000000000E+00 -0.80819240857E+02  0.80819240857E+02  0.00000000000E+00 0. -1.
         25    2    1    2    0    0 -0.25154530544E+02  0.46109437595E+02  0.29810275079E+03  0.32748944394E+03  0.12500102088E+03 0.  0.
          2    1    1    2  501    0 -0.15885668001E+02 -0.12374477684E+03 -0.17330048571E+01  0.12477230281E+03  0.00000000000E+00 0. -1.
          1    1    1    2  502    0  0.41040198545E+02  0.77635339246E+02  0.66810643739E+03  0.67385291829E+03  0.00000000000E+00 0. -1.
         22    1    3    3    0    0 -0.37235471873E+02  0.68049373050E+02  0.94081446545E+02  0.12193652497E+03  0.00000000000E+00 0. -1.
         22    1    3    3    0    0  0.12080941329E+02 -0.21939935455E+02  0.20402130425E+03  0.20555291897E+03  0.00000000000E+00 0. -1.
</event>
<event>
 7    1  0.6140348E-006  0.1691642E+03  0.7818608E-02  0.1183683E+00
          2   -1    0    0  502    0  0.00000000000E+00  0.00000000000E+00  0.64455653905E+03  0.64455653905E+03  0.00000000000E+00 0. -1.
          1   -1    0    0  501    0 -0.00000000000E+00 -0.00000000000E+00 -0.55803341174E+03  0.55803341174E+03  0.00000000000E+00 0. -1.
         25    2    1    2    0    0  0.82824338089E+02 -0.14734366605E+03 -0.13342827612E+03  0.24899178238E+03  0.12499510358E+03 0.  0.
          2    1    1    2  501    0  0.90523089984E+02  0.13194191106E+03 -0.33540229210E+03  0.37161511710E+03  0.00000000000E+00 0. -1.
          1    1    1    2  502    0 -0.17334742807E+03  0.15401754987E+02  0.55535369553E+03  0.58198305131E+03  0.00000000000E+00 0. -1.
         22    1    3    3    0    0 -0.32943327448E+02 -0.30497679815E+02 -0.38090297213E+02  0.58874799696E+02  0.00000000000E+00 0. -1.
         22    1    3    3    0    0  0.11576766554E+03 -0.11684598623E+03 -0.95337978903E+02  0.19011698268E+03  0.00000000000E+00 0. -1.
</event>
<event>
 7    1  0.6140348E-006  0.8895757E+02  0.7818608E-02  0.1410504E+00
          2   -1    0    0  502    0  0.00000000000E+00  0.00000000000E+00  0.27145047894E+03  0.27145047894E+03  0.00000000000E+00 0. -1.
          1   -1    0    0  501    0 -0.00000000000E+00 -0.00000000000E+00 -0.95483162478E+03  0.95483162478E+03  0.00000000000E+00 0. -1.
         25    2    1    2    0    0  0.62633210787E+02 -0.10130638918E+03 -0.16460842821E+03  0.23855251095E+03  0.12500184903E+03 0.  0.
          2    1    1    2  501    0 -0.31092026836E+02  0.19361347874E+02 -0.74456496116E+03  0.74546532938E+03  0.00000000000E+00 0. -1.
          1    1    1    2  502    0 -0.31541183952E+02  0.81945041310E+02  0.22579224352E+03  0.24226426339E+03  0.00000000000E+00 0. -1.
         22    1    3    3    0    0  0.82997523021E+02 -0.23308271361E+02 -0.11562106830E+03  0.14422238306E+03  0.00000000000E+00 0. -1.
         22    1    3    3    0    0 -0.20364312234E+02 -0.77998117823E+02 -0.48987359909E+02  0.94330127889E+02  0.00000000000E+00 0. -1.
</event>
<event>
 7    1  0.6140348E-006  0.1271678E+03  0.7818608E-02  0.1271842E+00
          2   -1    0    0  502    0  0.00000000000E+00  0.00000000000E+00  0.19293189057E+04  0.19293189057E+04  0.00000000000E+00 0. -1.
          1   -1    0    0  501    0 -0.00000000000E+00 -0.00000000000E+00 -0.53141093225E+02  0.53141093225E+02  0.00000000000E+00 0. -1.
         25    2    1    2    0    0 -0.33299047268E+02  0.20134586251E+03  0.90184542570E+03  0.93305901523E+03  0.12499988455E+03 0.  0.
          2    1    1    2  501    0  0.17757777178E+02 -0.11750726049E+03  0.63798574459E+02  0.13488347942E+03  0.00000000000E+00 0. -1.
          1    1    1    2  502    0  0.15541270091E+02 -0.83838602030E+02  0.91053381235E+03  0.91451750432E+03  0.00000000000E+00 0. -1.
         22    1    3    3    0    0 -0.48190475076E+02  0.14611761084E+02  0.23926411984E+03  0.24450591913E+03  0.00000000000E+00 0. -1.
         22    1    3    3    0    0  0.14891427807E+02  0.18673410143E+03  0.66258130586E+03  0.68855309609E+03  0.00000000000E+00 0. -1.
</event>
<event>
 7    1  0.6140348E-006  0.1410287E+03  0.7818608E-02  0.1304916E+00
          2   -1    0    0  502    0  0.00000000000E+00  0.00000000000E+00  0.17595659959E+04  0.17595659959E+04  0.00000000000E+00 0. -1.
          1   -1    0    0  501    0 -0.00000000000E+00 -0.00000000000E+00 -0.18151010242E+04  0.18151010242E+04  0.00000000000E+00 0. -1.
         25    2    1    2    0    0  0.53827960595E+02 -0.73551418900E+02  0.26963500323E+02  0.15703104925E+03  0.12499783804E+03 0.  0.
          2    1    1    2  501    0 -0.10551765561E+03  0.96013445937E+02 -0.17466820312E+04  0.17524984096E+04  0.00000000000E+00 0. -1.
          1    1    1    2  502    0  0.51689695018E+02 -0.22462027037E+02  0.16641835026E+04  0.16651375612E+04  0.00000000000E+00 0. -1.
         22    1    3    3    0    0 -0.38596897766E+02 -0.77430007488E+01 -0.35906174989E+01  0.39529319648E+02  0.00000000000E+00 0. -1.
         22    1    3    3    0    0  0.92424858361E+02 -0.65808418151E+02  0.30554117822E+02  0.11750172960E+03  0.00000000000E+00 0. -1.
</event>
<event>
 7    1  0.6140348E-006  0.8409859E+02  0.7818608E-02  0.1477927E+00
          2   -1    0    0  502    0  0.00000000000E+00  0.00000000000E+00  0.12460698820E+04  0.12460698820E+04  0.00000000000E+00 0. -1.
          1   -1    0    0  501    0 -0.00000000000E+00 -0.00000000000E+00 -0.63006016861E+03  0.63006016861E+03  0.00000000000E+00 0. -1.
         25    2    1    2    0    0  0.67759125491E+02  0.86269110141E+01  0.15157674244E+03  0.20800499615E+03  0.12499938758E+03 0.  0.
          2    1    1    2  501    0  0.12462988861E+02  0.19891761172E+02 -0.59991656578E+03  0.60037562755E+03  0.00000000000E+00 0. -1.
          1    1    1    2  502    0 -0.80222114352E+02 -0.28518672186E+02  0.10643495367E+04  0.10677494269E+04  0.00000000000E+00 0. -1.
         22    1    3    3    0    0  0.69258772941E+02  0.58715923164E+02  0.11179622058E+03  0.14402337379E+03  0.00000000000E+00 0. -1.
         22    1    3    3    0    0 -0.14996474498E+01 -0.50089012150E+02  0.39780521865E+02  0.63981622366E+02  0.00000000000E+00 0. -1.
</event>
<event>
 7    1  0.6140348E-006  0.5110198E+02  0.7818608E-02  0.1558180E+00
          2   -1    0    0  502    0  0.00000000000E+00  0.00000000000E+00  0.12183841311E+04  0.12183841311E+04  0.00000000000E+00 0. -1.
          1   -1    0    0  501    0 -0.00000000000E+00 -0.00000000000E+00 -0.20343401597E+02  0.20343401597E+02  0.00000000000E+00 0. -1.
         25    2    1    2    0    0  0.44354720802E+02 -0.39769787402E+02  0.36135097481E+03  0.38697161984E+03  0.12499412112E+03 0.  0.
          2    1    1    2  501    0 -0.21794879513E+02 -0.57764843720E+01  0.12076772854E+02  0.25577978560E+02  0.00000000000E+00 0. -1.
          1    1    1    2  502    0 -0.22559841289E+02  0.45546271774E+02  0.82461298187E+03  0.82617793433E+03  0.00000000000E+00 0. -1.
         22    1    3    3    0    0  0.30741891050E+02  0.39863537048E+02  0.82428752943E+02  0.96585013139E+02  0.00000000000E+00 0.  1.
         22    1    3    3    0    0  0.13612829751E+02 -0.79633324450E+02  0.27892222187E+03  0.29038660670E+03  0.00000000000E+00 0.  1.
</event>
<event>
 7    1  0.6140348E-006  0.1008109E+03  0.7818608E-02  0.1311677E+00
          2   -1    0    0  502    0  0.00000000000E+00  0.00000000000E+00  0.37281593964E+03  0.37281593964E+03  0.00000000000E+00 0. -1.
          1   -1    0    0  501    0 -0.00000000000E+00 -0.00000000000E+00 -0.10537155773E+03  0.10537155773E+03  0.00000000000E+00 0. -1.
         25    2    1    2    0    0  0.54327900920E+02 -0.25045407805E+02  0.24142312247E+02  0.14066612989E+03  0.12500126235E+03 0.  0.
          2    1    1    2  501    0 -0.93185398809E+02 -0.67975683969E+02  0.64226736780E+02  0.13202002075E+03  0.00000000000E+00 0. -1.
          1    1    1    2  502    0  0.38857497889E+02  0.93021091774E+02  0.17907533289E+03  0.20550134673E+03  0.00000000000E+00 0. -1.
         22    1    3    3    0    0  0.42879785637E+02 -0.60376004256E+02 -0.25808020963E+02  0.78421883758E+02  0.00000000000E+00 0.  1.
         22    1    3    3    0    0  0.11448115283E+02  0.35330596451E+02  0.49950333210E+02  0.62244246135E+02  0.00000000000E+00 0.  1.
</event>
<event>
 7    1  0.6140348E-006  0.6292349E+02  0.7818608E-02  0.1457789E+00
          2   -1    0    0  502    0  0.00000000000E+00  0.00000000000E+00  0.10853460591E+04  0.10853460591E+04  0.00000000000E+00 0. -1.
          1   -1    0    0  501    0 -0.00000000000E+00 -0.00000000000E+00 -0.17512806076E+03  0.17512806076E+03  0.00000000000E+00 0. -1.
         25    2    1    2    0    0  0.39211905082E+02  0.65098378151E+01  0.58015605434E+02  0.14344082515E+03  0.12501803213E+03 0.  0.
          2    1    1    2  501    0  0.88687585464E+01  0.35155227190E+02 -0.12888377209E+03  0.13388641300E+03  0.00000000000E+00 0. -1.
          1    1    1    2  502    0 -0.48080663628E+02 -0.41665065005E+02  0.98108616498E+03  0.98314688168E+03  0.00000000000E+00 0. -1.
         22    1    3    3    0    0  0.43098729614E+02  0.47748991664E+02 -0.87034076429E+01  0.64909290582E+02  0.00000000000E+00 0. -1.
         22    1    3    3    0    0 -0.38868245324E+01 -0.41239153849E+02  0.66719013077E+02  0.78531534565E+02  0.00000000000E+00 0. -1.
</event>
<event>
 7    1  0.6140348E-006  0.6293488E+02  0.7818608E-02  0.1448609E+00
          2   -1    0    0  502    0  0.00000000000E+00  0.00000000000E+00  0.14321644122E+04  0.14321644122E+04  0.00000000000E+00 0. -1.
          1   -1    0    0  501    0 -0.00000000000E+00 -0.00000000000E+00 -0.63514762551E+02  0.63514762551E+02  0.00000000000E+00 0. -1.
         25    2    1    2    0    0  0.29522095672E+02 -0.43683229520E+02  0.28479752078E+03  0.31545852015E+03  0.12499868565E+03 0.  0.
          2    1    1    2  501    0 -0.32987321904E+02 -0.20379479320E+02 -0.39317058413E+02  0.55220627179E+02  0.00000000000E+00 0. -1.
          1    1    1    2  502    0  0.34652262325E+01  0.64062708840E+02  0.11231691873E+04  0.11250000275E+04  0.00000000000E+00 0. -1.
         22    1    3    3    0    0  0.35958178229E+02 -0.61749532533E+02  0.70759282302E+02  0.10056277334E+03  0.00000000000E+00 0.  1.
         22    1    3    3    0    0 -0.64360825574E+01  0.18066303013E+02  0.21403823848E+03  0.21489574681E+03  0.00000000000E+00 0.  1.
</event>
<event>
 7    1  0.6140348E-006  0.5030427E+03  0.7818608E-02  0.1115866E+00
          2   -1    0    0  502    0  0.00000000000E+00  0.00000000000E+00  0.10070187380E+04  0.10070187380E+04  0.00000000000E+00 0. -1.
          1   -1    0    0  501    0 -0.00000000000E+00 -0.00000000000E+00 -0.80732912024E+03  0.80732912024E+03  0.00000000000E+00 0. -1.
         25    2    1    2    0    0 -0.50830943596E+03 -0.28797511236E+03 -0.14220009131E+03  0.61412736527E+03  0.12499362696E+03 0.  0.
          2    1    1    2  501    0  0.56291211466E+02  0.10630509990E+03 -0.34087480143E+03  0.36147628553E+03  0.00000000000E+00 0. -1.
          1    1    1    2  502    0  0.45201822450E+03  0.18167001246E+03  0.68276451053E+03  0.83874420745E+03  0.00000000000E+00 0. -1.
         22    1    3    3    0    0 -0.18377061234E+03 -0.17075978224E+03 -0.81534883376E+02  0.26377732730E+03  0.00000000000E+00 0. -1.
         22    1    3    3    0    0 -0.32453882362E+03 -0.11721533012E+03 -0.60665207937E+02  0.35035003797E+03  0.00000000000E+00 0. -1.
</event>
<event>
 7    1  0.6140348E-006  0.1023239E+03  0.7818608E-02  0.1288701E+00
          2   -1    0    0  502    0  0.00000000000E+00  0.00000000000E+00  0.37743867883E+03  0.37743867883E+03  0.00000000000E+00 0. -1.
          1   -1    0    0  501    0 -0.00000000000E+00 -0.00000000000E+00 -0.40181687355E+03  0.40181687355E+03  0.00000000000E+00 0. -1.
         25    2    1    2    0    0  0.61866312398E+01  0.63887291956E+02 -0.47989020894E+02  0.14848027685E+03  0.12499434391E+03 0.  0.
          2    1    1    2  501    0  0.82404315737E+02 -0.81210217665E+02 -0.28587203868E+03  0.30839648702E+03  0.00000000000E+00 0. -1.
          1    1    1    2  502    0 -0.88590946977E+02  0.17322925709E+02  0.30948286485E+03  0.32237878851E+03  0.00000000000E+00 0. -1.
         22    1    3    3    0    0  0.18900984423E+02  0.88710369696E+02  0.25711283054E+01  0.90738016313E+02  0.00000000000E+00 0. -1.
         22    1    3    3    0    0 -0.12714353183E+02 -0.24823077739E+02 -0.50560149200E+02  0.57742260541E+02  0.00000000000E+00 0. -1.
</event>
<event>
 7    1  0.6140348E-006  0.9346905E+02  0.7818608E-02  0.1336577E+00
          2   -1    0    0  502    0  0.00000000000E+00  0.00000000000E+00  0.33541432671E+04  0.33541432671E+04  0.00000000000E+00 0. -1.
          1   -1    0    0  501    0 -0.00000000000E+00 -0.00000000000E+00 -0.20255446340E+03  0.20255446340E+03  0.00000000000E+00 0. -1.
         25    2    1    2    0    0  0.49355281981E+01 -0.13086155356E+03  0.19486546252E+03  0.26598263068E+03  0.12500042280E+03 0.  0.
          2    1    1    2  501    0 -0.44118320611E+02  0.46507055497E+02 -0.16012463620E+03  0.17247965544E+03  0.00000000000E+00 0. -1.
          1    1    1    2  502    0  0.39182792413E+02  0.84354498060E+02  0.31168479774E+04  0.31182354444E+04  0.00000000000E+00 0. -1.
         22    1    3    3    0    0 -0.13843624505E+02  0.18447656785E+02  0.58578101494E+02  0.62955190056E+02  0.00000000000E+00 0. -1.
         22    1    3    3    0    0  0.18779152703E+02 -0.14930921034E+03  0.13628736103E+03  0.20302744062E+03  0.00000000000E+00 0. -1.
</event>
<event>
 7    1  0.6140348E-006  0.9010594E+02  0.7818608E-02  0.1365996E+00
          2   -1    0    0  502    0  0.00000000000E+00  0.00000000000E+00  0.36423349855E+03  0.36423349855E+03  0.00000000000E+00 0. -1.
          1   -1    0    0  501    0 -0.00000000000E+00 -0.00000000000E+00 -0.94842400148E+02  0.94842400148E+02  0.00000000000E+00 0. -1.
         25    2    1    2    0    0 -0.62542218477E+02  0.16292232367E+02  0.61901461595E+02  0.15372640759E+03  0.12499220581E+03 0.  0.
          2    1    1    2  501    0 -0.31377992259E+02 -0.41165165422E+02 -0.21922631429E+02  0.56211662591E+02  0.00000000000E+00 0. -1.
          1    1    1    2  502    0  0.93920210736E+02  0.24872933055E+02  0.22941226824E+03  0.24913782853E+03  0.00000000000E+00 0. -1.
         22    1    3    3    0    0 -0.19667165305E+02 -0.93545588620E+01  0.92574425264E+02  0.95101679142E+02  0.00000000000E+00 0. -1.
         22    1    3    3    0    0 -0.42875053172E+02  0.25646791229E+02 -0.30672963669E+02  0.58624728444E+02  0.00000000000E+00 0. -1.
</event>
<event>
 7    1  0.6140348E-006  0.5848319E+02  0.7818608E-02  0.1427327E+00
          2   -1    0    0  502    0  0.00000000000E+00  0.00000000000E+00  0.20984723187E+04  0.20984723187E+04  0.00000000000E+00 0. -1.
          1   -1    0    0  501    0 -0.00000000000E+00 -0.00000000000E+00 -0.26903324358E+04  0.26903324358E+04  0.00000000000E+00 0. -1.
         25    2    1    2    0    0  0.31636023198E+02 -0.10113126751E+02  0.13982634889E+04  0.14042325738E+04  0.12500089493E+03 0.  0.
          2    1    1    2  501    0 -0.15632574563E+02  0.56364676910E+02 -0.26861702398E+04  0.26868070105E+04  0.00000000000E+00 0. -1.
          1    1    1    2  502    0 -0.16003448635E+02 -0.46251550160E+02  0.69604663384E+03  0.69776517019E+03  0.00000000000E+00 0. -1.
         22    1    3    3    0    0  0.44144229242E+02 -0.56988172554E+02  0.10673644992E+04  0.10697959333E+04  0.00000000000E+00 0.  1.
         22    1    3    3    0    0 -0.12508206044E+02  0.46875045804E+02  0.33089898967E+03  0.33443664049E+03  0.00000000000E+00 0.  1.
</event>
<event>
 7    1  0.6140348E-006  0.1482055E+03  0.7818608E-02  0.1323030E+00
          2   -1    0    0  502    0  0.00000000000E+00  0.00000000000E+00  0.28037287863E+04  0.28037287863E+04  0.00000000000E+00 0. -1.
          1   -1    0    0  501    0 -0.00000000000E+00 -0.00000000000E+00 -0.39745566409E+03  0.39745566409E+03  0.00000000000E+00 0. -1.
         25    2    1    2    0    0  0.88679096792E+02 -0.11482668530E+03 -0.26411199914E+03  0.32623256609E+03  0.12499355670E+03 0.  0.
          2    1    1    2  501    0 -0.38313333631E+02 -0.24630048001E+02 -0.95126392488E+02  0.10546839027E+03  0.00000000000E+00 0. -1.
          1    1    1    2  502    0 -0.50365763161E+02  0.13945673330E+03  0.27655115139E+04  0.27694834941E+04  0.00000000000E+00 0. -1.
         22    1    3    3    0    0  0.32337128175E+02 -0.15835576037E+02  0.27178525027E+01  0.36108753083E+02  0.00000000000E+00 0.  1.
         22    1    3    3    0    0  0.56341968617E+02 -0.98991109265E+02 -0.26682985165E+03  0.29012381300E+03  0.00000000000E+00 0.  1.
</event>
<event>
 7    1  0.6140348E-006  0.5479105E+02  0.7818608E-02  0.1434454E+00
          2   -1    0    0  502    0  0.00000000000E+00  0.00000000000E+00  0.20872118491E+03  0.20872118491E+03  0.00000000000E+00 0. -1.
          1   -1    0    0  501    0 -0.00000000000E+00 -0.00000000000E+00 -0.77848407620E+02  0.77848407620E+02  0.00000000000E+00 0. -1.
         25    2    1    2    0    0 -0.30987747162E+02 -0.22558924600E+02  0.75205334775E+02  0.15082975677E+03  0.12499851037E+03 0.  0.
          2    1    1    2  501    0 -0.12285537908E+02  0.56166686755E+02 -0.19135565472E+00  0.57494936818E+02  0.00000000000E+00 0. -1.
          1    1    1    2  502    0  0.43273285070E+02 -0.33607762155E+02  0.55858798168E+02  0.78244898943E+02  0.00000000000E+00 0. -1.
         22    1    3    3    0    0  0.31684187597E+02  0.82903517299E+01 -0.15590760364E+02  0.36272434220E+02  0.00000000000E+00 0.  1.
         22    1    3    3    0    0 -0.62671934759E+02 -0.30849276330E+02  0.90796095138E+02  0.11455732255E+03  0.00000000000E+00 0.  1.
</event>
<event>
 7    1  0.6140348E-006  0.9519238E+02  0.7818608E-02  0.1360032E+00
          2   -1    0    0  502    0  0.00000000000E+00  0.00000000000E+00  0.21316618864E+04  0.21316618864E+04  0.00000000000E+00 0. -1.
          1   -1    0    0  501    0 -0.00000000000E+00 -0.00000000000E+00 -0.19714768802E+03  0.19714768802E+03  0.00000000000E+00 0. -1.
         25    2    1    2    0    0 -0.11391234207E+02  0.71279568527E+02 -0.23315960704E+02  0.14621460780E+03  0.12499816161E+03 0.  0.
          2    1    1    2  501    0 -0.51495305954E+02  0.77187137983E+00 -0.10531568363E+03  0.11723376450E+03  0.00000000000E+00 0. -1.
          1    1    1    2  502    0  0.62886540161E+02 -0.72051439907E+02  0.20631458427E+04  0.20653612021E+04  0.00000000000E+00 0. -1.
         22    1    3    3    0    0  0.39110964613E+02  0.51482649237E+02 -0.53694927647E+02  0.84043298249E+02  0.00000000000E+00 0. -1.
         22    1    3    3    0    0 -0.50502198821E+02  0.19796919290E+02  0.30378966943E+02  0.62171309554E+02  0.00000000000E+00 0. -1.
</event>
<event>
 7    1  0.6140348E-006  0.4144215E+02  0.7818608E-02  0.1513608E+00
          2   -1    0    0  502    0  0.00000000000E+00  0.00000000000E+00  0.10274689967E+04  0.10274689967E+04  0.00000000000E+00 0. -1.
          1   -1    0    0  501    0 -0.00000000000E+00 -0.00000000000E+00 -0.39235352410E+02  0.39235352410E+02  0.00000000000E+00 0. -1.
         25    2    1    2    0    0  0.34280807695E+02  0.58534269548E+02  0.22081500542E+03  0.26264864350E+03  0.12499443518E+03 0.  0.
          2    1    1    2  501    0 -0.32796131261E+02 -0.17606046370E+02  0.17202701024E+01  0.37262828982E+02  0.00000000000E+00 0. -1.
          1    1    1    2  502    0 -0.14846764339E+01 -0.40928223177E+02  0.76569836880E+03  0.76679287666E+03  0.00000000000E+00 0. -1.
         22    1    3    3    0    0 -0.33178315883E+02 -0.44056144838E+01  0.14175195767E+02  0.36347575694E+02  0.00000000000E+00 0. -1.
         22    1    3    3    0    0  0.67459123578E+02  0.62939884031E+02  0.20663980965E+03  0.22630106780E+03  0.00000000000E+00 0. -1.
</event>
<event>
 7    1  0.6140348E-006  0.7057031E+02  0.7818608E-02  0.1526377E+00
          2   -1    0    0  502    0  0.00000000000E+00  0.00000000000E+00  0.17297723678E+04  0.17297723678E+04  0.00000000000E+00 0. -1.
          1   -1    0    0  501    0 -0.00000000000E+00 -0.00000000000E+00 -0.15504034993E+03  0.15504034993E+03  0.00000000000E+00 0. -1.
         25    2    1    2    0    0  0.84881637498E+02  0.24300161098E+02  0.21813239575E+03  0.26645824367E+03  0.12499145304E+03 0.  0.
          2    1    1    2  501    0 -0.68819755643E+02 -0.12265752067E+02 -0.12147011569E+03  0.14014848000E+03  0.00000000000E+00 0. -1.
          1    1    1    2  502    0 -0.16061881854E+02 -0.12034409031E+02  0.14780697378E+04  0.14782059941E+04  0.00000000000E+00 0. -1.
         22    1    3    3    0    0  0.17903228342E+02  0.12975801251E+01 -0.14632511109E+02  0.23158576826E+02  0.00000000000E+00 0.  1.
         22    1    3    3    0    0  0.66978409155E+02  0.23002580973E+02  0.23276490686E+03  0.24329966685E+03  0.00000000000E+00 0.  1.
</event>
<event>
 7    1  0.6140348E-006  0.5379175E+02  0.7818608E-02  0.1467276E+00
          2   -1    0    0  502    0  0.00000000000E+00  0.00000000000E+00  0.19795722669E+03  0.19795722669E+03  0.00000000000E+00 0. -1.
          1   -1    0    0  501    0 -0.00000000000E+00 -0.00000000000E+00 -0.18442513092E+04  0.18442513092E+04  0.00000000000E+00 0. -1.
         25    2    1    2    0    0  0.41935321070E+02  0.76824686503E+02 -0.20227058915E+03  0.25337352646E+03  0.12499659623E+03 0.  0.
          2    1    1    2  501    0 -0.30926540049E+02 -0.24728205627E+02 -0.16120690420E+04  0.16125552800E+04  0.00000000000E+00 0. -1.
          1    1    1    2  502    0 -0.11008781021E+02 -0.52096480876E+02  0.16804554863E+03  0.17627972939E+03  0.00000000000E+00 0. -1.
         22    1    3    3    0    0  0.73068526508E+01 -0.10797319660E+02 -0.13962208533E+03  0.14022945097E+03  0.00000000000E+00 0.  1.
         22    1    3    3    0    0  0.34628468419E+02  0.87622006163E+02 -0.62648503820E+02  0.11314407550E+03  0.00000000000E+00 0.  1.
</event>
<event>
 7    1  0.6140348E-006  0.7966357E+02  0.7818608E-02  0.1494167E+00
          2   -1    0    0  502    0  0.00000000000E+00  0.00000000000E+00  0.18841987441E+04  0.18841987441E+04  0.00000000000E+00 0. -1.
          1   -1    0    0  501    0 -0.00000000000E+00 -0.00000000000E+00 -0.68111663637E+02  0.68111663637E+02  0.00000000000E+00 0. -1.
         25    2    1    2    0    0 -0.49453962682E+02  0.36039775947E+02  0.12109572456E+03  0.18448859585E+03  0.12500923012E+03 0.  0.
          2    1    1    2  501    0 -0.22114799503E+02  0.21757938225E+00 -0.32037969333E+02  0.38929977868E+02  0.00000000000E+00 0. -1.
          1    1    1    2  502    0  0.71568762185E+02 -0.36257355329E+02  0.17270293253E+04  0.17288918341E+04  0.00000000000E+00 0. -1.
         22    1    3    3    0    0 -0.84215452630E+02  0.27557589383E+02  0.42801321363E+02  0.98405367255E+02  0.00000000000E+00 0. -1.
         22    1    3    3    0    0  0.34761489947E+02  0.84821865635E+01  0.78294403201E+02  0.86083228592E+02  0.00000000000E+00 0. -1.
</event>
<event>
 7    1  0.8897857E-006  0.5159276E+02  0.7818608E-02  0.1523757E+00
          2   -1    0    0  502    0  0.00000000000E+00  0.00000000000E+00  0.13533735660E+04  0.13533735660E+04  0.00000000000E+00 0. -1.
          1   -1    0    0  501    0 -0.00000000000E+00 -0.00000000000E+00 -0.19387772608E+04  0.19387772608E+04  0.00000000000E+00 0. -1.
         25    2    1    2    0    0  0.43635022345E+02 -0.53708083969E+02 -0.43672734428E+03  0.45950193623E+03  0.12499073044E+03 0.  0.
          2    1    1    2  501    0 -0.16201746944E+02  0.48440331982E+02 -0.14900796105E+04  0.14909547974E+04  0.00000000000E+00 0. -1.
          1    1    1    2  502    0 -0.27433275401E+02  0.52677519866E+01  0.13414032599E+04  0.13416940931E+04  0.00000000000E+00 0. -1.
         22    1    3    3    0    0  0.30999902209E+02  0.12697862814E+02 -0.33913313298E+03  0.34078367264E+03  0.00000000000E+00 0. -1.
         22    1    3    3    0    0  0.12635120136E+02 -0.66405946782E+02 -0.97594211302E+02  0.11871826358E+03  0.00000000000E+00 0. -1.
</event>
<event>
 7    1  0.6140348E-006  0.1135995E+03  0.7818608E-02  0.1394780E+00
          2   -1    0    0  502    0  0.00000000000E+00  0.00000000000E+00  0.48779973134E+03  0.48779973134E+03  0.00000000000E+00 0. -1.
          1   -1    0    0  501    0 -0.00000000000E+00 -0.00000000000E+00 -0.19146266007E+04  0.19146266007E+04  0.00000000000E+00 0. -1.
         25    2    1    2    0    0  0.46078673401E+02 -0.69941679155E+02 -0.22186538936E+03  0.26807573010E+03  0.12500105379E+03 0.  0.
          2    1    1    2  501    0 -0.64842674072E+02  0.96440641417E+02 -0.16670635013E+04  0.16711092385E+04  0.00000000000E+00 0. -1.
          1    1    1    2  502    0  0.18764000671E+02 -0.26498962262E+02  0.46210202128E+03  0.46324136344E+03  0.00000000000E+00 0. -1.
         22    1    3    3    0    0  0.51093528947E+02 -0.99644428853E+02 -0.20490220505E+03  0.23350476341E+03  0.00000000000E+00 0. -1.
         22    1    3    3    0    0 -0.50148555455E+01  0.29702749699E+02 -0.16963184309E+02  0.34570966688E+02  0.00000000000E+00 0. -1.
</event>
<event>
 7    1  0.6140348E-006  0.1868636E+03  0.7818608E-02  0.1237963E+00
          2   -1    0    0  502    0  0.00000000000E+00  0.00000000000E+00  0.43029727208E+03  0.43029727208E+03  0.00000000000E+00 0. -1.
          1   -1    0    0  501    0 -0.00000000000E+00 -0.00000000000E+00 -0.98437435078E+03  0.98437435078E+03  0.00000000000E+00 0. -1.
         25    2    1    2    0    0  0.84847484533E+02 -0.23285447069E+03 -0.16096979718E+03  0.32086834969E+03  0.12499968829E+03 0.  0.
          2    1    1    2  501    0 -0.61531245109E+02  0.52957007096E+02 -0.71753042900E+03  0.72210834039E+03  0.00000000000E+00 0. -1.
          1    1    1    2  502    0 -0.23316239424E+02  0.17989746360E+03  0.32442314748E+03  0.37169493277E+03  0.00000000000E+00 0. -1.
         22    1    3    3    0    0  0.23982419460E+02  0.38489606888E+00 -0.50095666727E+02  0.55541699767E+02  0.00000000000E+00 0. -1.
         22    1    3    3    0    0  0.60865065073E+02 -0.23323936676E+03 -0.11087413045E+03  0.26532664992E+03  0.00000000000E+00 0. -1.
</event>
<event>
 7    1  0.6140348E-006  0.6902928E+02  0.7818608E-02  0.1413298E+00
          2   -1    0    0  502    0  0.00000000000E+00  0.00000000000E+00  0.21393331125E+03  0.21393331125E+03  0.00000000000E+00 0. -1.
          1   -1    0    0  501    0 -0.00000000000E+00 -0.00000000000E+00 -0.24438485590E+03  0.24438485590E+03  0.00000000000E+00 0. -1.
         25    2    1    2    0    0 -0.12567918769E+02 -0.78015220134E+02 -0.68628385301E+02  0.16302984556E+03  0.12499819246E+03 0.  0.
          2    1    1    2  501    0 -0.30840495939E+02  0.62238020896E+02 -0.11552397080E+03  0.13479797945E+03  0.00000000000E+00 0. -1.
          1    1    1    2  502    0  0.43408414708E+02  0.15777199237E+02  0.15370081145E+03  0.16049034215E+03  0.00000000000E+00 0. -1.
         22    1    3    3    0    0  0.15495676211E+02 -0.54912036809E+02 -0.99922380321E+02  0.11506489411E+03  0.00000000000E+00 0.  1.
         22    1    3    3    0    0 -0.28063594980E+02 -0.23103183324E+02  0.31293995020E+02  0.47964951446E+02  0.00000000000E+00 0.  1.
</event>
<event>
 7    1  0.6140348E-006  0.5434598E+02  0.7818608E-02  0.1510142E+00
          2   -1    0    0  502    0  0.00000000000E+00  0.00000000000E+00  0.62223730198E+03  0.62223730198E+03  0.00000000000E+00 0. -1.
          1   -1    0    0  501    0 -0.00000000000E+00 -0.00000000000E+00 -0.90051236728E+03  0.90051236728E+03  0.00000000000E+00 0. -1.
         25    2    1    2    0    0  0.20811699915E+02 -0.14607390576E+02  0.25946068537E+03  0.28912300698E+03  0.12500305277E+03 0.  0.
          2    1    1    2  501    0 -0.43078381442E+02  0.33276824658E+02 -0.88423611012E+03  0.88591003631E+03  0.00000000000E+00 0. -1.
          1    1    1    2  502    0  0.22266681527E+02 -0.18669434082E+02  0.34650035945E+03  0.34771662597E+03  0.00000000000E+00 0. -1.
         22    1    3    3    0    0 -0.26061820604E+02  0.42545055624E+02  0.14020883495E+03  0.14882142873E+03  0.00000000000E+00 0. -1.
         22    1    3    3    0    0  0.46873520519E+02 -0.57152446199E+02  0.11925185042E+03  0.14030157825E+03  0.00000000000E+00 0. -1.
</event>
<event>
 7    1  0.6140348E-006  0.2725303E+03  0.7818608E-02  0.1297346E+00
          2   -1    0    0  502    0  0.00000000000E+00  0.00000000000E+00  0.46660180413E+03  0.46660180413E+03  0.00000000000E+00 0. -1.
          1   -1    0    0  501    0 -0.00000000000E+00 -0.00000000000E+00 -0.11760425759E+04  0.11760425759E+04  0.00000000000E+00 0. -1.
         25    2    1    2    0    0  0.24609446421E+03 -0.41138722091E+02 -0.19975948060E+03  0.34319537864E+03  0.12499735220E+03 0.  0.
          2    1    1    2  501    0 -0.27706316998E+03  0.36819204419E+02 -0.88230429657E+03  0.92551635627E+03  0.00000000000E+00 0. -1.
          1    1    1    2  502    0  0.30968705767E+02  0.43195176727E+01  0.37262300538E+03  0.37393264515E+03  0.00000000000E+00 0. -1.
         22    1    3    3    0    0  0.27794090439E+02 -0.38898418412E+02 -0.82586846896E+02  0.95426336504E+02  0.00000000000E+00 0.  1.
         22    1    3    3    0    0  0.21830037378E+03 -0.22403036794E+01 -0.11717263370E+03  0.24776904213E+03  0.00000000000E+00 0.  1.
</event>
<event>
 7    1  0.6140348E-006  0.5873339E+02  0.7818608E-02  0.1495694E+00
          2   -1    0    0  502    0  0.00000000000E+00  0.00000000000E+00  0.24198203119E+03  0.24198203119E+03  0.00000000000E+00 0. -1.
          1   -1    0    0  501    0 -0.00000000000E+00 -0.00000000000E+00 -0.19095437506E+04  0.19095437506E+04  0.00000000000E+00 0. -1.
         25    2    1    2    0    0  0.15908707917E+02 -0.86177737118E+02  0.42712877769E+02  0.15851894126E+03  0.12499670175E+03 0.  0.
          2    1    1    2  501    0 -0.56375103351E+01  0.58329795281E+02 -0.18496135125E+04  0.18505416213E+04  0.00000000000E+00 0. -1.
          1    1    1    2  502    0 -0.10271197582E+02  0.27847941837E+02  0.13933891533E+03  0.14246521923E+03  0.00000000000E+00 0. -1.
         22    1    3    3    0    0  0.24265969654E+01 -0.11722320854E+03  0.42374711416E+02  0.12467070691E+03  0.00000000000E+00 0.  1.
         22    1    3    3    0    0  0.13482110951E+02  0.31045471427E+02  0.33816635317E+00  0.33848234345E+02  0.00000000000E+00 0.  1.
</event>
<event>
 7    1  0.6140348E-006  0.4619133E+02  0.7818608E-02  0.1471625E+00
          2   -1    0    0  502    0  0.00000000000E+00  0.00000000000E+00  0.91593006954E+02  0.91593006954E+02  0.00000000000E+00 0. -1.
          1   -1    0    0  501    0 -0.00000000000E+00 -0.00000000000E+00 -0.13006955559E+04  0.13006955559E+04  0.00000000000E+00 0. -1.
         25    2    1    2    0    0  0.49662229225E+02  0.10597603794E+02  0.15664989013E+01  0.13493159816E+03  0.12500174417E+03 0.  0.
          2    1    1    2  501    0 -0.30917623130E+02  0.34318206234E+02 -0.12077141108E+04  0.12085971257E+04  0.00000000000E+00 0. -1.
          1    1    1    2  502    0 -0.18744606095E+02 -0.44915810029E+02 -0.29549370204E+01  0.48759839017E+02  0.00000000000E+00 0. -1.
         22    1    3    3    0    0  0.79614403672E+02 -0.29131765426E+02  0.59407070743E+01  0.84984734096E+02  0.00000000000E+00 0.  1.
         22    1    3    3    0    0 -0.29952174447E+02  0.39729369220E+02 -0.43742081729E+01  0.49946864065E+02  0.00000000000E+00 0.  1.
</event>
<event>
 7    1  0.6140348E-006  0.1880142E+03  0.7818608E-02  0.1161228E+00
          2   -1    0    0  502    0  0.00000000000E+00  0.00000000000E+00  0.26164250656E+04  0.26164250656E+04  0.00000000000E+00 0. -1.
          1   -1    0    0  501    0 -0.00000000000E+00 -0.00000000000E+00 -0.91671993532E+02  0.91671993532E+02  0.00000000000E+00 0. -1.
         25    2    1    2    0    0 -0.10591368365E+03  0.12869268668E+03  0.71916074887E+03  0.74873027436E+03  0.12500130016E+03 0.  0.
          2    1    1    2  501    0  0.20163824221E+03  0.33128653620E+02  0.73588803367E+02  0.21718839838E+03  0.00000000000E+00 0. -1.
          1    1    1    2  502    0 -0.95724558558E+02 -0.16182134030E+03  0.17320035198E+04  0.17421783864E+04  0.00000000000E+00 0. -1.
         22    1    3    3    0    0 -0.11499843625E+03  0.13264074095E+03  0.51062403585E+03  0.53995843589E+03  0.00000000000E+00 0. -1.
         22    1    3    3    0    0  0.90847526044E+01 -0.39480542639E+01  0.20853671302E+03  0.20877183847E+03  0.00000000000E+00 0. -1.
</event>
<event>
 7    1  0.6140348E-006  0.1377798E+03  0.7818608E-02  0.1216582E+00
          2   -1    0    0  502    0  0.00000000000E+00  0.00000000000E+00  0.44762938812E+03  0.44762938812E+03  0.00000000000E+00 0. -1.
          1   -1    0    0  501    0 -0.00000000000E+00 -0.00000000000E+00 -0.62913660201E+03  0.62913660201E+03  0.00000000000E+00 0. -1.
         25    2    1    2    0    0  0.46437444109E+02  0.74122848611E+02 -0.53566755114E+02  0.16169522753E+03  0.12500126580E+03 0.  0.
          2    1    1    2  501    0  0.74287365687E+02 -0.13981340314E+03 -0.49681040147E+03  0.52142782378E+03  0.00000000000E+00 0. -1.
          1    1    1    2  502    0 -0.12072480980E+03  0.65690554527E+02  0.36886994270E+03  0.39364293882E+03  0.00000000000E+00 0. -1.
         22    1    3    3    0    0  0.25265670656E+02  0.10164739439E+03 -0.67139513766E+02  0.12441166026E+03  0.00000000000E+00 0. -1.
         22    1    3    3    0    0  0.21171773453E+02 -0.27524545776E+02  0.13572758652E+02  0.37283567275E+02  0.00000000000E+00 0. -1.
</event>
<event>
 7    1  0.6140348E-006  0.6223549E+02  0.7818608E-02  0.1388783E+00
          2   -1    0    0  502    0  0.00000000000E+00  0.00000000000E+00  0.33145871897E+02  0.33145871897E+02  0.00000000000E+00 0. -1.
          1   -1    0    0  501    0 -0.00000000000E+00 -0.00000000000E+00 -0.70738646701E+03  0.70738646701E+03  0.00000000000E+00 0. -1.
         25    2    1    2    0    0 -0.16407249158E+02 -0.13873253273E+02 -0.25617523837E+03  0.28585262746E+03  0.12499722753E+03 0.  0.
          2    1    1    2  501    0 -0.37798410046E+01 -0.62070434267E+02 -0.33346876777E+03  0.33921740092E+03  0.00000000000E+00 0. -1.
          1    1    1    2  502    0  0.20187090163E+02  0.75943687540E+02 -0.84596588976E+02  0.11546231053E+03  0.00000000000E+00 0. -1.
         22    1    3    3    0    0  0.46880251932E+02 -0.33159014527E+02 -0.87427168147E+02  0.10459822176E+03  0.00000000000E+00 0. -1.
         22    1    3    3    0    0 -0.63287501090E+02  0.19285761254E+02 -0.16874807023E+03  0.18125440570E+03  0.00000000000E+00 0. -1.
</event>
<event>
 7    1  0.6140348E-006  0.7077965E+02  0.7818608E-02  0.1377134E+00
          2   -1    0    0  502    0  0.00000000000E+00  0.00000000000E+00  0.73846265497E+03  0.73846265497E+03  0.00000000000E+00 0. -1.
          1   -1    0    0  501    0 -0.00000000000E+00 -0.00000000000E+00 -0.13731618265E+03  0.13731618265E+03  0.00000000000E+00 0. -1.
         25    2    1    2    0    0 -0.68473714091E+02 -0.66794906044E+02  0.12594057262E+03  0.20158144755E+03  0.12499537259E+03 0.  0.
          2    1    1    2  501    0  0.70028326855E+02  0.67122995798E+01 -0.85249642619E+02  0.11052838140E+03  0.00000000000E+00 0. -1.
          1    1    1    2  502    0 -0.15546127638E+01  0.60082606464E+02  0.56045554232E+03  0.56366900868E+03  0.00000000000E+00 0. -1.
         22    1    3    3    0    0 -0.25574190683E+02 -0.45854075157E+02 -0.13486781919E+02  0.54208197942E+02  0.00000000000E+00 0. -1.
         22    1    3    3    0    0 -0.42899523407E+02 -0.20940830888E+02  0.13942735453E+03  0.14737324960E+03  0.00000000000E+00 0. -1.
</event>
<event>
 7    1  0.6140348E-006  0.9546973E+02  0.7818608E-02  0.1377621E+00
          2   -1    0    0  502    0  0.00000000000E+00  0.00000000000E+00  0.15926524496E+04  0.15926524496E+04  0.00000000000E+00 0. -1.
          1   -1    0    0  501    0 -0.00000000000E+00 -0.00000000000E+00 -0.12689790403E+04  0.12689790403E+04  0.00000000000E+00 0. -1.
         25    2    1    2    0    0 -0.80887558788E+02 -0.47476743235E+02 -0.30049884259E+02  0.15913756264E+03  0.12499971994E+03 0.  0.
          2    1    1    2  501    0 -0.14606925855E+02  0.41909377714E+02 -0.11724680732E+04  0.11733077776E+04  0.00000000000E+00 0. -1.
          1    1    1    2  502    0  0.95494484643E+02  0.55673655207E+01  0.15261913668E+04  0.15291861497E+04  0.00000000000E+00 0. -1.
         22    1    3    3    0    0 -0.33897597949E+02 -0.85902824695E+02 -0.22577382204E+01  0.92376619440E+02  0.00000000000E+00 0. -1.
         22    1    3    3    0    0 -0.46989960839E+02  0.38426081460E+02 -0.27792146039E+02  0.66760943204E+02  0.00000000000E+00 0. -1.
</event>
<event>
 7    1  0.6140348E-006  0.1023386E+03  0.7818608E-02  0.1389862E+00
          2   -1    0    0  502    0  0.00000000000E+00  0.00000000000E+00  0.12494223990E+04  0.12494223990E+04  0.00000000000E+00 0. -1.
          1   -1    0    0  501    0 -0.00000000000E+00 -0.00000000000E+00 -0.85841669873E+03  0.85841669873E+03  0.00000000000E+00 0. -1.
         25    2    1    2    0    0  0.65936110228E+02 -0.64153281084E+02  0.18803591089E+03  0.24381698148E+03  0.12500401021E+03 0.  0.
          2    1    1    2  501    0 -0.94510747746E+02  0.39883882690E+02 -0.82701625447E+03  0.83335400083E+03  0.00000000000E+00 0. -1.
          1    1    1    2  502    0  0.28574637517E+02  0.24269398394E+02  0.10299860438E+04  0.10306681154E+04  0.00000000000E+00 0. -1.
         22    1    3    3    0    0  0.27102038072E+02  0.34709053917E+01  0.15784940825E+03  0.16019676444E+03  0.00000000000E+00 0.  1.
         22    1    3    3    0    0  0.38834072157E+02 -0.67624186476E+02  0.30186502638E+02  0.83620217043E+02  0.00000000000E+00 0.  1.
</event>
<event>
 7    1  0.6140348E-006  0.9550814E+02  0.7818608E-02  0.1388954E+00
          2   -1    0    0  502    0  0.00000000000E+00  0.00000000000E+00  0.29108853947E+03  0.29108853947E+03  0.00000000000E+00 0. -1.
          1   -1    0    0  501    0 -0.00000000000E+00 -0.00000000000E+00 -0.10718474066E+04  0.10718474066E+04  0.00000000000E+00 0. -1.
         25    2    1    2    0    0 -0.79395137315E+01 -0.95409720664E+02  0.92473739268E+02  0.18259854296E+03  0.12499913904E+03 0.  0.
          2    1    1    2  501    0  0.46616403339E+02  0.83511427550E+02 -0.10218466405E+04  0.10263127224E+04  0.00000000000E+00 0. -1.
          1    1    1    2  502    0 -0.38676889607E+02  0.11898293113E+02  0.14861403402E+03  0.15402468073E+03  0.00000000000E+00 0. -1.
         22    1    3    3    0    0 -0.48009187380E+02 -0.83494784432E+02  0.19155107019E+02  0.98199690556E+02  0.00000000000E+00 0.  1.
         22    1    3    3    0    0  0.40069673649E+02 -0.11914936231E+02  0.73318632249E+02  0.84398852401E+02  0.00000000000E+00 0.  1.
</event>
<event>
 7    1  0.6140348E-006  0.9914083E+02  0.7818608E-02  0.1419643E+00
          2   -1    0    0  502    0  0.00000000000E+00  0.00000000000E+00  0.84860620336E+03  0.84860620336E+03  0.00000000000E+00 0. -1.
          1   -1    0    0  501    0 -0.00000000000E+00 -0.00000000000E+00 -0.15975561746E+04  0.15975561746E+04  0.00000000000E+00 0. -1.
         25    2    1    2    0    0 -0.19489865689E+02 -0.71018426788E+02  0.37316443813E+03  0.40037495595E+03  0.12499974262E+03 0.  0.
          2    1    1    2  501    0  0.70529077879E+01  0.98998126588E+02 -0.15818864781E+04  0.15849969092E+04  0.00000000000E+00 0. -1.
          1    1    1    2  502    0  0.12436957901E+02 -0.27979699799E+02  0.45977206873E+03  0.46079051282E+03  0.00000000000E+00 0. -1.
         22    1    3    3    0    0 -0.16961424217E+02  0.28026045599E+02  0.34755905034E+02  0.47761093770E+02  0.00000000000E+00 0. -1.
         22    1    3    3    0    0 -0.25284414726E+01 -0.99044472387E+02  0.33840853310E+03  0.35261386218E+03  0.00000000000E+00 0. -1.
</event>
<event>
 7    1  0.6140348E-006  0.1636619E+03  0.7818608E-02  0.1387662E+00
          2   -1    0    0  502    0  0.00000000000E+00  0.00000000000E+00  0.34338515075E+03  0.34338515075E+03  0.00000000000E+00 0. -1.
          1   -1    0    0  501    0 -0.00000000000E+00 -0.00000000000E+00 -0.15270117222E+04  0.15270117222E+04  0.00000000000E+00 0. -1.
         25    2    1    2    0    0 -0.47078111115E+01 -0.16612251157E+03 -0.62178882229E+02  0.21704905924E+03  0.12500091354E+03 0.  0.
          2    1    1    2  501    0 -0.18879233628E+02  0.16251225576E+03 -0.13820275542E+04  0.13916776995E+04  0.00000000000E+00 0. -1.
          1    1    1    2  502    0  0.23587044740E+02  0.36102558083E+01  0.26057986498E+03  0.26167011419E+03  0.00000000000E+00 0. -1.
         22    1    3    3    0    0 -0.67513414696E+00 -0.16509929685E+03 -0.10747978933E+02  0.16545015164E+03  0.00000000000E+00 0. -1.
         22    1    3    3    0    0 -0.40326769645E+01 -0.10232147209E+01 -0.51430903297E+02  0.51598907603E+02  0.00000000000E+00 0. -1.
</event>
<event>
 7    1  0.6140348E-006  0.6543053E+02  0.7818608E-02  0.1426372E+00
          2   -1    0    0  502    0  0.00000000000E+00  0.00000000000E+00  0.32165657896E+04  0.32165657896E+04  0.00000000000E+00 0. -1.
          1   -1    0    0  501    0 -0.00000000000E+00 -0.00000000000E+00 -0.12233906932E+02  0.12233906932E+02  0.00000000000E+00 0. -1.
         25    2    1    2    0    0  0.17810723781E+02  0.74979883037E+02  0.13328149561E+04  0.13408805773E+04  0.12500324203E+03 0.  0.
          2    1    1    2  501    0 -0.48825924871E+02 -0.43678655468E+02  0.12750264736E+03  0.14334825066E+03  0.00000000000E+00 0. -1.
          1    1    1    2  502    0  0.31015201090E+02 -0.31301227569E+02  0.17440142792E+04  0.17445708686E+04  0.00000000000E+00 0. -1.
         22    1    3    3    0    0  0.26030330505E+01  0.36950043321E+02  0.89120574259E+02  0.96511959045E+02  0.00000000000E+00 0. -1.
         22    1    3    3    0    0  0.15207690731E+02  0.38029839715E+02  0.12436943819E+04  0.12443686182E+04  0.00000000000E+00 0. -1.
</event>
<event>
 7    1  0.6140348E-006  0.1178319E+03  0.7818608E-02  0.1366104E+00
          2   -1    0    0  502    0  0.00000000000E+00  0.00000000000E+00  0.92626092310E+03  0.92626092310E+03  0.00000000000E+00 0. -1.
          1   -1    0    0  501    0 -0.00000000000E+00 -0.00000000000E+00 -0.12784696279E+03  0.12784696279E+03  0.00000000000E+00 0. -1.
         25    2    1    2    0    0  0.96115240901E+02  0.67398249632E+01  0.24349441082E+02  0.15968634821E+03  0.12499307880E+03 0.  0.
          2    1    1    2  501    0 -0.13556412002E+03 -0.95052207909E+01  0.17723982948E+02  0.13704787277E+03  0.00000000000E+00 0. -1.
          1    1    1    2  502    0  0.39448879121E+02  0.27653958277E+01  0.75634053629E+03  0.75737366491E+03  0.00000000000E+00 0. -1.
         22    1    3    3    0    0  0.29999764651E+02 -0.57267323160E+02  0.61523295840E+00  0.64652228829E+02  0.00000000000E+00 0. -1.
         22    1    3    3    0    0  0.66115476250E+02  0.64007148123E+02  0.23734208124E+02  0.95034119377E+02  0.00000000000E+00 0. -1.
</event>
<event>
 7    1  0.6140348E-006  0.4065554E+02  0.7818608E-02  0.1508590E+00
          2   -1    0    0  502    0  0.00000000000E+00  0.00000000000E+00  0.14359771636E+03  0.14359771636E+03  0.00000000000E+00 0. -1.
          1   -1    0    0  501    0 -0.00000000000E+00 -0.00000000000E+00 -0.23054421193E+03  0.23054421193E+03  0.00000000000E+00 0. -1.
         25    2    1    2    0    0 -0.44212082453E+02  0.51175637460E+02 -0.52336129809E+02  0.15145167521E+03  0.12499954134E+03 0.  0.
          2    1    1    2  501    0  0.63128460068E+01 -0.38743020489E+02 -0.12117709180E+03  0.12737645480E+03  0.00000000000E+00 0. -1.
          1    1    1    2  502    0  0.37899236446E+02 -0.12432616971E+02  0.86566726035E+02  0.95313798290E+02  0.00000000000E+00 0. -1.
         22    1    3    3    0    0 -0.41987758616E+02  0.91410561285E+02 -0.28161950852E+02  0.10446031813E+03  0.00000000000E+00 0.  1.
         22    1    3    3    0    0 -0.22243238370E+01 -0.40234923825E+02 -0.24174178957E+02  0.46991357077E+02  0.00000000000E+00 0.  1.
</event>
<event>
 7    1  0.6140348E-006  0.7449334E+02  0.7818608E-02  0.1380839E+00
          2   -1    0    0  502    0  0.00000000000E+00  0.00000000000E+00  0.40803298939E+02  0.40803298939E+02  0.00000000000E+00 0. -1.
          1   -1    0    0  501    0 -0.00000000000E+00 -0.00000000000E+00 -0.11269735436E+04  0.11269735436E+04  0.00000000000E+00 0. -1.
         25    2    1    2    0    0  0.57336944785E+02  0.56888908699E+02 -0.22944031155E+03  0.27348203611E+03  0.12500277733E+03 0.  0.
          2    1    1    2  501    0 -0.51548760462E+02  0.20306585944E+02 -0.79043658889E+03  0.79237594183E+03  0.00000000000E+00 0. -1.
          1    1    1    2  502    0 -0.57881843226E+01 -0.77195494643E+02 -0.66293344201E+02  0.10191886457E+03  0.00000000000E+00 0. -1.
         22    1    3    3    0    0  0.27841698935E+01 -0.36255962340E+02 -0.31896400755E+02  0.48369688735E+02  0.00000000000E+00 0. -1.
         22    1    3    3    0    0  0.54552774891E+02  0.93144871039E+02 -0.19754391080E+03  0.22511234738E+03  0.00000000000E+00 0. -1.
</event>
<event>
 7    1  0.6140348E-006  0.1227074E+03  0.7818608E-02  0.1412070E+00
          2   -1    0    0  502    0  0.00000000000E+00  0.00000000000E+00  0.66843033348E+03  0.66843033348E+03  0.00000000000E+00 0. -1.
          1   -1    0    0  501    0 -0.00000000000E+00 -0.00000000000E+00 -0.35261567298E+03  0.35261567298E+03  0.00000000000E+00 0. -1.
         25    2    1    2    0    0 -0.10342044898E+03  0.48410086703E+02 -0.11706235060E+01  0.16931211515E+03  0.12500358481E+03 0.  0.
          2    1    1    2  501    0  0.12109580971E+03 -0.29027723431E+02 -0.25255688343E+03  0.28158796712E+03  0.00000000000E+00 0. -1.
          1    1    1    2  502    0 -0.17675360730E+02 -0.19382363272E+02  0.56954216744E+03  0.57014592419E+03  0.00000000000E+00 0. -1.
         22    1    3    3    0    0 -0.47477368060E+02 -0.37539154328E+02 -0.22488380915E+02  0.64567916660E+02  0.00000000000E+00 0. -1.
         22    1    3    3    0    0 -0.55943080924E+02  0.85949241031E+02  0.21317757409E+02  0.10474419849E+03  0.00000000000E+00 0. -1.
</event>
<event>
 7    1  0.6140348E-006  0.6422978E+02  0.7818608E-02  0.1496933E+00
          2   -1    0    0  502    0  0.00000000000E+00  0.00000000000E+00  0.19304366840E+04  0.19304366840E+04  0.00000000000E+00 0. -1.
          1   -1    0    0  501    0 -0.00000000000E+00 -0.00000000000E+00 -0.68291966911E+02  0.68291966911E+02  0.00000000000E+00 0. -1.
         25    2    1    2    0    0  0.51180134882E+02 -0.24404350324E+02  0.95913221137E+03  0.96890330598E+03  0.12499615565E+03 0.  0.
          2    1    1    2  501    0 -0.64437074579E+02  0.98583597792E+00 -0.46791529470E+02  0.79640163755E+02  0.00000000000E+00 0. -1.
          1    1    1    2  502    0  0.13256939697E+02  0.23418514346E+02  0.94980403521E+03  0.95018518120E+03  0.00000000000E+00 0. -1.
         22    1    3    3    0    0  0.68664586642E+02  0.29206467840E+02  0.39714109633E+03  0.40409020480E+03  0.00000000000E+00 0.  1.
         22    1    3    3    0    0 -0.17484451760E+02 -0.53610818164E+02  0.56199111504E+03  0.56481310117E+03  0.00000000000E+00 0.  1.
</event>
<event>
 7    1  0.6140348E-006  0.7994831E+02  0.7818608E-02  0.1482519E+00
          2   -1    0    0  502    0  0.00000000000E+00  0.00000000000E+00  0.24852429383E+02  0.24852429383E+02  0.00000000000E+00 0. -1.
          1   -1    0    0  501    0 -0.00000000000E+00 -0.00000000000E+00 -0.23557109108E+04  0.23557109108E+04  0.00000000000E+00 0. -1.
         25    2    1    2    0    0 -0.42926881259E+02 -0.59331995813E+02 -0.46780575384E+03  0.48972878059E+03  0.12501620833E+03 0.  0.
          2    1    1    2  501    0 -0.22155684470E+02  0.89744020325E+01 -0.17542720872E+04  0.17544349432E+04  0.00000000000E+00 0. -1.
          1    1    1    2  502    0  0.65082565729E+02  0.50357593781E+02 -0.10878064037E+03  0.13639961632E+03  0.00000000000E+00 0. -1.
         22    1    3    3    0    0 -0.22471250505E+01  0.38642270049E+02 -0.13304611292E+03  0.13856241471E+03  0.00000000000E+00 0.  1.
         22    1    3    3    0    0 -0.40679756209E+02 -0.97974265862E+02 -0.33475964092E+03  0.35116636588E+03  0.00000000000E+00 0.  1.
</event>
<event>
 7    1  0.6140348E-006  0.5451468E+02  0.7818608E-02  0.1427578E+00
          2   -1    0    0  502    0  0.00000000000E+00  0.00000000000E+00  0.13948121291E+04  0.13948121291E+04  0.00000000000E+00 0. -1.
          1   -1    0    0  501    0 -0.00000000000E+00 -0.00000000000E+00 -0.60405141482E+03  0.60405141482E+03  0.00000000000E+00 0. -1.
         25    2    1    2    0    0  0.15990603601E+02  0.20566918457E+02  0.91298296025E+03  0.92186849606E+03  0.12499976308E+03 0.  0.
          2    1    1    2  501    0  0.30081910548E+02 -0.45538579341E+02 -0.59692178986E+03  0.59941163382E+03  0.00000000000E+00 0. -1.
          1    1    1    2  502    0 -0.46072514149E+02  0.24971660883E+02  0.47469954384E+03  0.47758341401E+03  0.00000000000E+00 0. -1.
         22    1    3    3    0    0 -0.17738251900E+02  0.53456604831E+02  0.75273548695E+03  0.75483969656E+03  0.00000000000E+00 0.  1.
         22    1    3    3    0    0  0.33728855501E+02 -0.32889686374E+02  0.16024747330E+03  0.16702879950E+03  0.00000000000E+00 0.  1.
</event>
<event>
 7    1  0.6140348E-006  0.7450692E+02  0.7818608E-02  0.1352886E+00
          2   -1    0    0  502    0  0.00000000000E+00  0.00000000000E+00  0.10996694818E+04  0.10996694818E+04  0.00000000000E+00 0. -1.
          1   -1    0    0  501    0 -0.00000000000E+00 -0.00000000000E+00 -0.13166334719E+03  0.13166334719E+03  0.00000000000E+00 0. -1.
         25    2    1    2    0    0  0.98220674367E+00 -0.18910484126E+02  0.27924113806E+02  0.12948206051E+03  0.12500910656E+03 0.  0.
          2    1    1    2  501    0  0.57681688537E+02  0.64843353023E+02 -0.55805588344E+02  0.10317994628E+03  0.00000000000E+00 0. -1.
          1    1    1    2  502    0 -0.58663895281E+02 -0.45932868897E+02  0.99588760914E+03  0.99867082219E+03  0.00000000000E+00 0. -1.
         22    1    3    3    0    0  0.11639622162E+02 -0.33141766030E+02 -0.43480949532E+02  0.55896783735E+02  0.00000000000E+00 0. -1.
         22    1    3    3    0    0 -0.10657415418E+02  0.14231281904E+02  0.71405063338E+02  0.73585276777E+02  0.00000000000E+00 0. -1.
</event>
<event>
 7    1  0.6140348E-006  0.9170407E+02  0.7818608E-02  0.1376813E+00
          2   -1    0    0  502    0  0.00000000000E+00  0.00000000000E+00  0.21241492909E+04  0.21241492909E+04  0.00000000000E+00 0. -1.
          1   -1    0    0  501    0 -0.00000000000E+00 -0.00000000000E+00 -0.76028802436E+02  0.76028802436E+02  0.00000000000E+00 0. -1.
         25    2    1    2    0    0 -0.10176941870E+02 -0.87477665080E+02  0.72096317977E+03  0.73699949021E+03  0.12499771979E+03 0.  0.
          2    1    1    2  501    0 -0.45173649393E+02  0.11074521183E+02 -0.58262092631E+02  0.74550486630E+02  0.00000000000E+00 0. -1.
          1    1    1    2  502    0  0.55350591263E+02  0.76403143897E+02  0.13854194013E+04  0.13886281165E+04  0.00000000000E+00 0. -1.
         22    1    3    3    0    0 -0.20975212693E+02 -0.99036588946E+02  0.71129063149E+03  0.71845846640E+03  0.00000000000E+00 0.  1.
         22    1    3    3    0    0  0.10798270823E+02  0.11558923866E+02  0.96725482798E+01  0.18541023810E+02  0.00000000000E+00 0.  1.
</event>
<event>
 7    1  0.6140348E-006  0.4598317E+02  0.7818608E-02  0.1554889E+00
          2   -1    0    0  502    0  0.00000000000E+00  0.00000000000E+00  0.77651099696E+02  0.77651099696E+02  0.00000000000E+00 0. -1.
          1   -1    0    0  501    0 -0.00000000000E+00 -0.00000000000E+00 -0.14481407230E+04  0.14481407230E+04  0.00000000000E+00 0. -1.
         25    2    1    2    0    0 -0.56079066091E+02 -0.16337610432E+02 -0.46134635589E+03  0.48153651535E+03  0.12500070540E+03 0.  0.
          2    1    1    2  501    0  0.10734123778E+02  0.23227756858E+02 -0.96872603733E+03  0.96906392230E+03  0.00000000000E+00 0. -1.
          1    1    1    2  502    0  0.45344942313E+02 -0.68901464259E+01  0.59582769930E+02  0.75191385036E+02  0.00000000000E+00 0. -1.
         22    1    3    3    0    0 -0.96251307656E+02 -0.13206089406E+02 -0.34453074964E+03  0.35796669185E+03  0.00000000000E+00 0. -1.
         22    1    3    3    0    0  0.40172241565E+02 -0.31315210264E+01 -0.11681560625E+03  0.12356982350E+03  0.00000000000E+00 0. -1.
</event>
<event>
 7    1  0.6140348E-006  0.7456376E+02  0.7818608E-02  0.1417088E+00
          2   -1    0    0  502    0  0.00000000000E+00  0.00000000000E+00  0.76593836193E+03  0.76593836193E+03  0.00000000000E+00 0. -1.
          1   -1    0    0  501    0 -0.00000000000E+00 -0.00000000000E+00 -0.63381516190E+02  0.63381516190E+02  0.00000000000E+00 0. -1.
         25    2    1    2    0    0  0.66143424097E+01  0.36854255107E+02  0.15742422439E+03  0.20446991739E+03  0.12499430006E+03 0.  0.
          2    1    1    2  501    0  0.28517111104E+01  0.41423500808E+02 -0.25545532824E+02  0.48750517153E+02  0.00000000000E+00 0. -1.
          1    1    1    2  502    0 -0.94660535201E+01 -0.78277755914E+02  0.57067815417E+03  0.57609944358E+03  0.00000000000E+00 0. -1.
         22    1    3    3    0    0  0.63383765918E+02  0.19098610656E+02  0.55171375638E+02  0.86175050918E+02  0.00000000000E+00 0. -1.
         22    1    3    3    0    0 -0.56769423508E+02  0.17755644451E+02  0.10225284875E+03  0.11829486647E+03  0.00000000000E+00 0. -1.
</event>
<event>
 7    1  0.6140348E-006  0.3648244E+02  0.7818608E-02  0.1621555E+00
          2   -1    0    0  502    0  0.00000000000E+00  0.00000000000E+00  0.16286203081E+03  0.16286203081E+03  0.00000000000E+00 0. -1.
          1   -1    0    0  501    0 -0.00000000000E+00 -0.00000000000E+00 -0.35694187863E+03  0.35694187863E+03  0.00000000000E+00 0. -1.
         25    2    1    2    0    0 -0.88963914289E+01 -0.23731478611E+02 -0.13155967025E+03  0.18320615300E+03  0.12495686777E+03 0.  0.
          2    1    1    2  501    0  0.17868325685E+02 -0.11883196090E+02 -0.19650351730E+03  0.19767174741E+03  0.00000000000E+00 0. -1.
          1    1    1    2  502    0 -0.89719342557E+01  0.35614674700E+02  0.13398333974E+03  0.13892600903E+03  0.00000000000E+00 0. -1.
         22    1    3    3    0    0 -0.26624395041E+02 -0.39972749995E+02  0.14412853729E+01  0.48049520882E+02  0.00000000000E+00 0.  1.
         22    1    3    3    0    0  0.17728003612E+02  0.16241271385E+02 -0.13300095562E+03  0.13515663212E+03  0.00000000000E+00 0.  1.
</event>
<event>
 7    1  0.6140348E-006  0.5245544E+02  0.7818608E-02  0.1454166E+00
          2   -1    0    0  502    0  0.00000000000E+00  0.00000000000E+00  0.74158423215E+03  0.74158423215E+03  0.00000000000E+00 0. -1.
          1   -1    0    0  501    0 -0.00000000000E+00 -0.00000000000E+00 -0.78429377117E+02  0.78429377117E+02  0.00000000000E+00 0. -1.
         25    2    1    2    0    0 -0.27901209606E+02  0.82573379435E+02  0.31682407362E+03  0.35156872005E+03  0.12500492311E+03 0.  0.
          2    1    1    2  501    0  0.30292548494E+02 -0.32813790082E+02 -0.51122650552E+02  0.67881578600E+02  0.00000000000E+00 0. -1.
          1    1    1    2  502    0 -0.23913388888E+01 -0.49759589354E+02  0.39745343196E+03  0.40056331061E+03  0.00000000000E+00 0. -1.
         22    1    3    3    0    0 -0.84296258106E+01 -0.47765653891E+01 -0.92747776517E+01  0.13412519104E+02  0.00000000000E+00 0.  1.
         22    1    3    3    0    0 -0.19471583795E+02  0.87349944824E+02  0.32609885128E+03  0.33815620095E+03  0.00000000000E+00 0.  1.
</event>
<event>
 7    1  0.6140348E-006  0.3776845E+02  0.7818608E-02  0.1554480E+00
          2   -1    0    0  502    0  0.00000000000E+00  0.00000000000E+00  0.13590147729E+04  0.13590147729E+04  0.00000000000E+00 0. -1.
          1   -1    0    0  501    0 -0.00000000000E+00 -0.00000000000E+00 -0.34378101892E+03  0.34378101892E+03  0.00000000000E+00 0. -1.
         25    2    1    2    0    0  0.43362773396E+02 -0.40924700891E+02  0.17640968685E+03  0.22427816883E+03  0.12500063256E+03 0.  0.
          2    1    1    2  501    0 -0.36183339720E+02  0.10526121187E+02 -0.31852540813E+03  0.32074673642E+03  0.00000000000E+00 0. -1.
          1    1    1    2  502    0 -0.71794336758E+01  0.30398579704E+02  0.11573494753E+04  0.11577708866E+04  0.00000000000E+00 0. -1.
         22    1    3    3    0    0 -0.21844369866E+02 -0.11634803201E+01 -0.90767444759E+01  0.23683696324E+02  0.00000000000E+00 0. -1.
         22    1    3    3    0    0  0.65207143262E+02 -0.39761220571E+02  0.18548643133E+03  0.20059447251E+03  0.00000000000E+00 0. -1.
</event>
<event>
 7    1  0.1464895E-005  0.5866048E+02  0.7818608E-02  0.1455251E+00
          2   -1    0    0  502    0  0.00000000000E+00  0.00000000000E+00  0.16019074973E+04  0.16019074973E+04  0.00000000000E+00 0. -1.
          1   -1    0    0  501    0 -0.00000000000E+00 -0.00000000000E+00 -0.76786726937E+03  0.76786726937E+03  0.00000000000E+00 0. -1.
         25    2    1    2    0    0 -0.29373338547E+02  0.43747257288E+02 -0.26096341243E+03  0.29411508151E+03  0.12500065203E+03 0.  0.
          2    1    1    2  501    0 -0.27352656545E+02 -0.28661384980E+02 -0.48898322874E+03  0.49058561006E+03  0.00000000000E+00 0. -1.
          1    1    1    2  502    0  0.56725995092E+02 -0.15085872308E+02  0.15839868691E+04  0.15850740751E+04  0.00000000000E+00 0. -1.
         22    1    3    3    0    0 -0.47394123048E+02  0.65318979238E+02 -0.25200800876E+03  0.26461445242E+03  0.00000000000E+00 0. -1.
         22    1    3    3    0    0  0.18020784501E+02 -0.21571721950E+02 -0.89554036662E+01  0.29500629091E+02  0.00000000000E+00 0. -1.
</event>
<event>
 7    1  0.9934388E-006  0.5834614E+02  0.7818608E-02  0.1405091E+00
          2   -1    0    0  502    0  0.00000000000E+00  0.00000000000E+00  0.28344351855E+04  0.28344351855E+04  0.00000000000E+00 0. -1.
          1   -1    0    0  501    0 -0.00000000000E+00 -0.00000000000E+00 -0.27309020321E+04  0.27309020321E+04  0.00000000000E+00 0. -1.
         25    2    1    2    0    0 -0.10343265943E+03 -0.18383045828E+02 -0.50355113368E+03  0.52936310563E+03  0.12500120787E+03 0.  0.
          2    1    1    2  501    0  0.56105222548E+02 -0.15703766029E+02 -0.22137601934E+04  0.22145267210E+04  0.00000000000E+00 0. -1.
          1    1    1    2  502    0  0.47327436877E+02  0.34086811857E+02  0.28208444805E+04  0.28214473910E+04  0.00000000000E+00 0. -1.
         22    1    3    3    0    0 -0.50071747094E+02  0.75523256287E+01 -0.47372307027E+02  0.69342288342E+02  0.00000000000E+00 0. -1.
         22    1    3    3    0    0 -0.53360912332E+02 -0.25935371457E+02 -0.45617882665E+03  0.46002081729E+03  0.00000000000E+00 0. -1.
</event>
<event>
 7    1  0.6789460E-006  0.1242823E+03  0.7818608E-02  0.1388533E+00
          2   -1    0    0  502    0  0.00000000000E+00  0.00000000000E+00  0.67925495443E+03  0.67925495443E+03  0.00000000000E+00 0. -1.
          1   -1    0    0  501    0 -0.00000000000E+00 -0.00000000000E+00 -0.12967334083E+04  0.12967334083E+04  0.00000000000E+00 0. -1.
         25    2    1    2    0    0 -0.65670165191E+02 -0.12891057520E+03 -0.60551296634E+03  0.63498195940E+03  0.12500251744E+03 0.  0.
          2    1    1    2  501    0 -0.90975485359E+01  0.29846874185E+02 -0.67032477559E+03  0.67105059873E+03  0.00000000000E+00 0. -1.
          1    1    1    2  502    0  0.74767713727E+02  0.99063701013E+02  0.65835928809E+03  0.66995580458E+03  0.00000000000E+00 0. -1.
         22    1    3    3    0    0 -0.68252771036E+02 -0.98069668024E+02 -0.23937037802E+03  0.26753369585E+03  0.00000000000E+00 0. -1.
         22    1    3    3    0    0  0.25826058455E+01 -0.30840907173E+02 -0.36614258831E+03  0.36744826355E+03  0.00000000000E+00 0. -1.
</event>
<event>
 7    1  0.6140348E-006  0.1802243E+03  0.7818608E-02  0.1180483E+00
          2   -1    0    0  502    0  0.00000000000E+00  0.00000000000E+00  0.13510228055E+04  0.13510228055E+04  0.00000000000E+00 0. -1.
          1   -1    0    0  501    0 -0.00000000000E+00 -0.00000000000E+00 -0.11002723376E+04  0.11002723376E+04  0.00000000000E+00 0. -1.
         25    2    1    2    0    0  0.14820399031E+03 -0.25174797808E+03 -0.46212885285E+03  0.56082891521E+03  0.12499811315E+03 0.  0.
          2    1    1    2  501    0 -0.12528393195E+03  0.97775973727E+02 -0.57329045746E+03  0.59491020605E+03  0.00000000000E+00 0. -1.
          1    1    1    2  502    0 -0.22920058361E+02  0.15397200436E+03  0.12861697782E+04  0.12955560218E+04  0.00000000000E+00 0. -1.
         22    1    3    3    0    0  0.13578260362E+03 -0.11071122549E+03 -0.23363901465E+03  0.29202924522E+03  0.00000000000E+00 0.  1.
         22    1    3    3    0    0  0.12421386687E+02 -0.14103675259E+03 -0.22848983820E+03  0.26879966999E+03  0.00000000000E+00 0.  1.
</event>
<event>
 7    1  0.6140348E-006  0.1155678E+03  0.7818608E-02  0.1297227E+00
          2   -1    0    0  502    0  0.00000000000E+00  0.00000000000E+00  0.31767442071E+04  0.31767442071E+04  0.00000000000E+00 0. -1.
          1   -1    0    0  501    0 -0.00000000000E+00 -0.00000000000E+00 -0.92246678703E+02  0.92246678703E+02  0.00000000000E+00 0. -1.
         25    2    1    2    0    0  0.21491790545E+01  0.75225429231E+02  0.11982601797E+03  0.18879619224E+03  0.12498897330E+03 0.  0.
          2    1    1    2  501    0  0.44280217924E+02 -0.13261402363E+03  0.27990068588E+02  0.14258562657E+03  0.00000000000E+00 0. -1.
          1    1    1    2  502    0 -0.46429396978E+02  0.57388594404E+02  0.29366814418E+04  0.29376090670E+04  0.00000000000E+00 0. -1.
         22    1    3    3    0    0 -0.32093292646E+02 -0.16194023141E+02  0.71141750810E+02  0.79708058104E+02  0.00000000000E+00 0. -1.
         22    1    3    3    0    0  0.34242471700E+02  0.91419452372E+02  0.48684267164E+02  0.10908813414E+03  0.00000000000E+00 0. -1.
</event>
<event>
 7    1  0.6140348E-006  0.3317719E+02  0.7818608E-02  0.1581209E+00
          2   -1    0    0  502    0  0.00000000000E+00  0.00000000000E+00  0.65932608805E+03  0.65932608805E+03  0.00000000000E+00 0. -1.
          1   -1    0    0  501    0 -0.00000000000E+00 -0.00000000000E+00 -0.64460786325E+02  0.64460786325E+02  0.00000000000E+00 0. -1.
         25    2    1    2    0    0  0.10761142568E+02 -0.17159290069E+02  0.67156895165E+02  0.14333576026E+03  0.12499939270E+03 0.  0.
          2    1    1    2  501    0 -0.35717442728E+02  0.38858177087E+00 -0.13664386047E+02  0.38243981969E+02  0.00000000000E+00 0. -1.
          1    1    1    2  502    0  0.24956300160E+02  0.16770708298E+02  0.54137279261E+03  0.54220713215E+03  0.00000000000E+00 0. -1.
         22    1    3    3    0    0  0.28149526617E+02 -0.13140234255E+02 -0.30812146154E+02  0.43754427841E+02  0.00000000000E+00 0. -1.
         22    1    3    3    0    0 -0.17388384049E+02 -0.40190558137E+01  0.97969041318E+02  0.99581332419E+02  0.00000000000E+00 0. -1.
</event>
<event>
 7    1  0.6140348E-006  0.6965212E+02  0.7818608E-02  0.1455678E+00
          2   -1    0    0  502    0  0.00000000000E+00  0.00000000000E+00  0.16621506712E+04  0.16621506712E+04  0.00000000000E+00 0. -1.
          1   -1    0    0  501    0 -0.00000000000E+00 -0.00000000000E+00 -0.13992031057E+03  0.13992031057E+03  0.00000000000E+00 0. -1.
         25    2    1    2    0    0 -0.51147648002E+02 -0.18049263506E+02  0.81145985622E+03  0.82282145813E+03  0.12500478347E+03 0.  0.
          2    1    1    2  501    0 -0.23980915468E+02  0.23050276355E+02 -0.13047143454E+03  0.13464469829E+03  0.00000000000E+00 0. -1.
          1    1    1    2  502    0  0.75128563470E+02 -0.50010128494E+01  0.84124193898E+03  0.84460482539E+03  0.00000000000E+00 0. -1.
         22    1    3    3    0    0 -0.72415648169E+01 -0.77236160040E+01  0.72696246427E+03  0.72703955805E+03  0.00000000000E+00 0. -1.
         22    1    3    3    0    0 -0.43906083185E+02 -0.10325647502E+02  0.84497391950E+02  0.95781900082E+02  0.00000000000E+00 0. -1.
</event>
<event>
 7    1  0.6140348E-006  0.5091072E+02  0.7818608E-02  0.1475350E+00
          2   -1    0    0  502    0  0.00000000000E+00  0.00000000000E+00  0.16357544009E+03  0.16357544009E+03  0.00000000000E+00 0. -1.
          1   -1    0    0  501    0 -0.00000000000E+00 -0.00000000000E+00 -0.12789226614E+04  0.12789226614E+04  0.00000000000E+00 0. -1.
         25    2    1    2    0    0  0.60920768691E+02  0.48811884548E+02 -0.18629423760E+03  0.23753313178E+03  0.12499002200E+03 0.  0.
          2    1    1    2  501    0 -0.49220441597E+02 -0.11093865302E+02 -0.10635724507E+04  0.10647685588E+04  0.00000000000E+00 0. -1.
          1    1    1    2  502    0 -0.11700327093E+02 -0.37718019245E+02  0.13451946704E+03  0.14019641095E+03  0.00000000000E+00 0. -1.
         22    1    3    3    0    0  0.95767809198E+02  0.13083723016E+02 -0.13425280230E+03  0.16542814758E+03  0.00000000000E+00 0. -1.
         22    1    3    3    0    0 -0.34847040507E+02  0.35728161532E+02 -0.52041435296E+02  0.72104984198E+02  0.00000000000E+00 0. -1.
</event>
<event>
 7    1  0.6140348E-006  0.1298363E+03  0.7818608E-02  0.1249662E+00
          2   -1    0    0  502    0  0.00000000000E+00  0.00000000000E+00  0.24906667846E+03  0.24906667846E+03  0.00000000000E+00 0. -1.
          1   -1    0    0  501    0 -0.00000000000E+00 -0.00000000000E+00 -0.23591602863E+04  0.23591602863E+04  0.00000000000E+00 0. -1.
         25    2    1    2    0    0  0.21053905255E+03 -0.81741071280E+02 -0.16329386467E+04  0.16532151784E+04  0.12499402668E+03 0.  0.
          2    1    1    2  501    0 -0.10332048851E+03  0.10262254382E+02 -0.69456481763E+03  0.70228250947E+03  0.00000000000E+00 0. -1.
          1    1    1    2  502    0 -0.10721856403E+03  0.71478816898E+02  0.21740985647E+03  0.25272927695E+03  0.00000000000E+00 0. -1.
         22    1    3    3    0    0  0.11280926921E+03 -0.96903614577E+02 -0.73846315225E+03  0.75328883502E+03  0.00000000000E+00 0.  1.
         22    1    3    3    0    0  0.97729783339E+02  0.15162543297E+02 -0.89447549444E+03  0.89992634334E+03  0.00000000000E+00 0.  1.
</event>
<event>
 7    1  0.6140348E-006  0.5201361E+02  0.7818608E-02  0.1450289E+00
          2   -1    0    0  502    0  0.00000000000E+00  0.00000000000E+00  0.17746151985E+03  0.17746151985E+03  0.00000000000E+00 0. -1.
          1   -1    0    0  501    0 -0.00000000000E+00 -0.00000000000E+00 -0.21606744114E+04  0.21606744114E+04  0.00000000000E+00 0. -1.
         25    2    1    2    0    0 -0.90548511745E+02 -0.11894910648E+02 -0.27694680956E+03  0.31727827049E+03  0.12500177488E+03 0.  0.
          2    1    1    2  501    0  0.40228828381E+02  0.22998183409E+02 -0.18590450768E+04  0.18596225081E+04  0.00000000000E+00 0. -1.
          1    1    1    2  502    0  0.50319683364E+02 -0.11103272762E+02  0.15277899480E+03  0.16123515266E+03  0.00000000000E+00 0. -1.
         22    1    3    3    0    0 -0.72692848736E+02 -0.62152897114E+02 -0.21638209465E+03  0.23657650721E+03  0.00000000000E+00 0. -1.
         22    1    3    3    0    0 -0.17855663009E+02  0.50257986467E+02 -0.60564714906E+02  0.80701763282E+02  0.00000000000E+00 0. -1.
</event>
<event>
 7    1  0.6140348E-006  0.6312307E+02  0.7818608E-02  0.1385808E+00
          2   -1    0    0  502    0  0.00000000000E+00  0.00000000000E+00  0.34176009097E+03  0.34176009097E+03  0.00000000000E+00 0. -1.
          1   -1    0    0  501    0 -0.00000000000E+00 -0.00000000000E+00 -0.65841086058E+03  0.65841086058E+03  0.00000000000E+00 0. -1.
         25    2    1    2    0    0 -0.33620793203E+02  0.14184350484E+02  0.80181483131E+02  0.15292626527E+03  0.12500327531E+03 0.  0.
          2    1    1    2  501    0 -0.19595419145E+02 -0.59664947887E+02 -0.61496045591E+03  0.61815875695E+03  0.00000000000E+00 0. -1.
          1    1    1    2  502    0  0.53216212348E+02  0.45480597403E+02  0.21812820318E+03  0.22908592933E+03  0.00000000000E+00 0. -1.
         22    1    3    3    0    0 -0.38252913941E+02 -0.43366468388E+02  0.75357956788E+02  0.94988197460E+02  0.00000000000E+00 0. -1.
         22    1    3    3    0    0  0.46321207378E+01  0.57550818872E+02  0.48235263423E+01  0.57938067811E+02  0.00000000000E+00 0. -1.
</event>
<event>
 7    1  0.6140348E-006  0.8320579E+02  0.7818608E-02  0.1332641E+00
          2   -1    0    0  502    0  0.00000000000E+00  0.00000000000E+00  0.15101201938E+04  0.15101201938E+04  0.00000000000E+00 0. -1.
          1   -1    0    0  501    0 -0.00000000000E+00 -0.00000000000E+00 -0.62082910294E+03  0.62082910294E+03  0.00000000000E+00 0. -1.
         25    2    1    2    0    0 -0.63000095624E+02 -0.28107396222E+02  0.19790622345E+03  0.24402866510E+03  0.12499631330E+03 0.  0.
          2    1    1    2  501    0  0.48505398093E+02 -0.56586038304E+02 -0.59400481157E+03  0.59866223327E+03  0.00000000000E+00 0. -1.
          1    1    1    2  502    0  0.14494697532E+02  0.84693434526E+02  0.12853896790E+04  0.12882583983E+04  0.00000000000E+00 0. -1.
         22    1    3    3    0    0  0.68888254659E+01 -0.37745033012E+01  0.16125499133E+03  0.16144619853E+03  0.00000000000E+00 0. -1.
         22    1    3    3    0    0 -0.69888921090E+02 -0.24332892921E+02  0.36651232123E+02  0.82582466572E+02  0.00000000000E+00 0. -1.
</event>
<event>
 7    1  0.6140348E-006  0.1376552E+03  0.7818608E-02  0.1372771E+00
          2   -1    0    0  502    0  0.00000000000E+00  0.00000000000E+00  0.21984961833E+04  0.21984961833E+04  0.00000000000E+00 0. -1.
          1   -1    0    0  501    0 -0.00000000000E+00 -0.00000000000E+00 -0.11669267875E+03  0.11669267875E+03  0.00000000000E+00 0. -1.
         25    2    1    2    0    0 -0.13284550190E+03  0.29007957876E+02  0.84783977300E+02  0.20322891145E+03  0.12499711456E+03 0.  0.
          2    1    1    2  501    0  0.13999626713E+03  0.22155488600E+01  0.28132177391E+02  0.14281205436E+03  0.00000000000E+00 0. -1.
          1    1    1    2  502    0 -0.71507652303E+01 -0.31223506736E+02  0.19688873499E+04  0.19691478963E+04  0.00000000000E+00 0. -1.
         22    1    3    3    0    0 -0.45661965633E+02 -0.12856945413E+02  0.94791014409E+02  0.10599836114E+03  0.00000000000E+00 0. -1.
         22    1    3    3    0    0 -0.87183536264E+02  0.41864903288E+02 -0.10007037109E+02  0.97230550315E+02  0.00000000000E+00 0. -1.
</event>
<event>
 7    1  0.6140348E-006  0.1869289E+03  0.7818608E-02  0.1320632E+00
          2   -1    0    0  502    0  0.00000000000E+00  0.00000000000E+00  0.68647738504E+03  0.68647738504E+03  0.00000000000E+00 0. -1.
          1   -1    0    0  501    0 -0.00000000000E+00 -0.00000000000E+00 -0.27180203972E+04  0.27180203972E+04  0.00000000000E+00 0. -1.
         25    2    1    2    0    0  0.16352431874E+03  0.12453949946E+03 -0.20292002236E+03  0.31472519458E+03  0.12500049153E+03 0.  0.
          2    1    1    2  501    0 -0.35397389260E+02  0.10393027566E+02 -0.24453287459E+04  0.24456070138E+04  0.00000000000E+00 0. -1.
          1    1    1    2  502    0 -0.12812692948E+03 -0.13493252703E+03  0.61670575613E+03  0.64416557387E+03  0.00000000000E+00 0. -1.
         22    1    3    3    0    0  0.55639065571E+02  0.27936942042E+01 -0.11964622053E+03  0.13198003043E+03  0.00000000000E+00 0. -1.
         22    1    3    3    0    0  0.10788525317E+03  0.12174580526E+03 -0.83273801831E+02  0.18274516415E+03  0.00000000000E+00 0. -1.
</event>
<event>
 7    1  0.6140348E-006  0.3511623E+02  0.7818608E-02  0.1564044E+00
          2   -1    0    0  502    0  0.00000000000E+00  0.00000000000E+00  0.94940659302E+03  0.94940659302E+03  0.00000000000E+00 0. -1.
          1   -1    0    0  501    0 -0.00000000000E+00 -0.00000000000E+00 -0.18233382792E+04  0.18233382792E+04  0.00000000000E+00 0. -1.
         25    2    1    2    0    0  0.22539800409E+02 -0.24565210141E+02  0.53891310692E+02  0.14014548441E+03  0.12499996513E+03 0.  0.
          2    1    1    2  501    0 -0.30032954376E+02 -0.98790602590E+01 -0.17797062971E+04  0.17799871006E+04  0.00000000000E+00 0. -1.
          1    1    1    2  502    0  0.74931539671E+01  0.34444270400E+02  0.85188330024E+03  0.85261228724E+03  0.00000000000E+00 0. -1.
         22    1    3    3    0    0  0.61908055476E+02  0.22702859273E+02  0.39857701313E+02  0.77049746956E+02  0.00000000000E+00 0.  1.
         22    1    3    3    0    0 -0.39368255067E+02 -0.47268069414E+02  0.14033609379E+02  0.63095737458E+02  0.00000000000E+00 0.  1.
</event>
<event>
 7    1  0.6140348E-006  0.3288921E+02  0.7818608E-02  0.1598439E+00
          2   -1    0    0  502    0  0.00000000000E+00  0.00000000000E+00  0.17243689938E+03  0.17243689938E+03  0.00000000000E+00 0. -1.
          1   -1    0    0  501    0 -0.00000000000E+00 -0.00000000000E+00 -0.10826245969E+04  0.10826245969E+04  0.00000000000E+00 0. -1.
         25    2    1    2    0    0  0.37854577121E+02  0.39525884778E+02  0.86275859443E+02  0.16144479291E+03  0.12500253061E+03 0.  0.
          2    1    1    2  501    0 -0.11233581253E+02 -0.24889137491E+02 -0.10400935664E+04  0.10404519640E+04  0.00000000000E+00 0. -1.
          1    1    1    2  502    0 -0.26620995868E+02 -0.14636747287E+02  0.43630009425E+02  0.53164739392E+02  0.00000000000E+00 0. -1.
         22    1    3    3    0    0 -0.34367658534E+02 -0.20516249313E+02  0.40577923173E+02  0.56996669095E+02  0.00000000000E+00 0.  1.
         22    1    3    3    0    0  0.72222235655E+02  0.60042134091E+02  0.45697936271E+02  0.10444812382E+03  0.00000000000E+00 0.  1.
</event>
<event>
 7    1  0.6140348E-006  0.1029335E+03  0.7818608E-02  0.1398804E+00
          2   -1    0    0  502    0  0.00000000000E+00  0.00000000000E+00  0.95085973296E+03  0.95085973296E+03  0.00000000000E+00 0. -1.
          1   -1    0    0  501    0 -0.00000000000E+00 -0.00000000000E+00 -0.13329967100E+03  0.13329967100E+03  0.00000000000E+00 0. -1.
         25    2    1    2    0    0  0.11349076195E+03  0.42899686340E+02  0.23104330655E+03  0.28935415190E+03  0.12499711830E+03 0.  0.
          2    1    1    2  501    0 -0.31052779024E+02  0.15497767239E+02 -0.97435616252E+02  0.10343188671E+03  0.00000000000E+00 0. -1.
          1    1    1    2  502    0 -0.82437982926E+02 -0.58397453579E+02  0.68395237166E+03  0.69137336535E+03  0.00000000000E+00 0. -1.
         22    1    3    3    0    0  0.12758709681E+03  0.36077963003E+02  0.12520423646E+03  0.18236279093E+03  0.00000000000E+00 0. -1.
         22    1    3    3    0    0 -0.14096334857E+02  0.68217233375E+01  0.10583907009E+03  0.10699136097E+03  0.00000000000E+00 0. -1.
</event>
<event>
 7    1  0.6849954E-006  0.5513431E+02  0.7818608E-02  0.1478745E+00
          2   -1    0    0  502    0  0.00000000000E+00  0.00000000000E+00  0.10292095059E+04  0.10292095059E+04  0.00000000000E+00 0. -1.
          1   -1    0    0  501    0 -0.00000000000E+00 -0.00000000000E+00 -0.83951216130E+03  0.83951216130E+03  0.00000000000E+00 0. -1.
         25    2    1    2    0    0 -0.48162057266E+02  0.71244231349E+02 -0.38411402473E+03  0.41299748527E+03  0.12501205777E+03 0.  0.
          2    1    1    2  501    0  0.22057049158E+02 -0.47041352886E+02 -0.43911222157E+03  0.44217524290E+03  0.00000000000E+00 0. -1.
          1    1    1    2  502    0  0.26105008108E+02 -0.24202878463E+02  0.10129235909E+04  0.10135489390E+04  0.00000000000E+00 0. -1.
         22    1    3    3    0    0 -0.88724276324E+02  0.65936544059E+02 -0.26881114227E+03  0.29065280879E+03  0.00000000000E+00 0. -1.
         22    1    3    3    0    0  0.40562219058E+02  0.53076872894E+01 -0.11530288246E+03  0.12234467648E+03  0.00000000000E+00 0. -1.
</event>
<event>
 7    1  0.6140348E-006  0.1408140E+03  0.7818608E-02  0.1328292E+00
          2   -1    0    0  502    0  0.00000000000E+00  0.00000000000E+00  0.37164173787E+03  0.37164173787E+03  0.00000000000E+00 0. -1.
          1   -1    0    0  501    0 -0.00000000000E+00 -0.00000000000E+00 -0.12303508346E+04  0.12303508346E+04  0.00000000000E+00 0. -1.
         25    2    1    2    0    0 -0.67986226810E+02 -0.71594472483E+02 -0.37718705633E+03  0.40944370579E+03  0.12500470882E+03 0.  0.
          2    1    1    2  501    0 -0.41355235322E+02 -0.19577455203E+02 -0.82212123286E+03  0.82339349874E+03  0.00000000000E+00 0. -1.
          1    1    1    2  502    0  0.10934146213E+03  0.91171927685E+02  0.34059919248E+03  0.36915536791E+03  0.00000000000E+00 0. -1.
         22    1    3    3    0    0  0.25607583515E+00  0.33597443237E+02 -0.90479159590E+02  0.96515968042E+02  0.00000000000E+00 0.  1.
         22    1    3    3    0    0 -0.68242302645E+02 -0.10519191572E+03 -0.28670789673E+03  0.31292773775E+03  0.00000000000E+00 0.  1.
</event>
<event>
 7    1  0.6140348E-006  0.8626122E+02  0.7818608E-02  0.1330079E+00
          2   -1    0    0  502    0  0.00000000000E+00  0.00000000000E+00  0.78421448540E+03  0.78421448540E+03  0.00000000000E+00 0. -1.
          1   -1    0    0  501    0 -0.00000000000E+00 -0.00000000000E+00 -0.29438578459E+03  0.29438578459E+03  0.00000000000E+00 0. -1.
         25    2    1    2    0    0  0.93648718108E+01 -0.10097710477E+03 -0.87391835248E+02  0.18314919144E+03  0.12498886729E+03 0.  0.
          2    1    1    2  501    0  0.57407296408E+02  0.45938081935E+02 -0.14790958760E+03  0.16517612163E+03  0.00000000000E+00 0. -1.
          1    1    1    2  502    0 -0.66772168219E+02  0.55039022834E+02  0.72513012365E+03  0.73027495693E+03  0.00000000000E+00 0. -1.
         22    1    3    3    0    0  0.92045608336E+01 -0.61062339521E+02 -0.11777746760E+03  0.13298445444E+03  0.00000000000E+00 0. -1.
         22    1    3    3    0    0  0.16031097723E+00 -0.39914765249E+02  0.30385632356E+02  0.50164736999E+02  0.00000000000E+00 0. -1.
</event>
<event>
 7    1  0.6140348E-006  0.1994914E+03  0.7818608E-02  0.1247862E+00
          2   -1    0    0  502    0  0.00000000000E+00  0.00000000000E+00  0.87796649797E+03  0.87796649797E+03  0.00000000000E+00 0. -1.
          1   -1    0    0  501    0 -0.00000000000E+00 -0.00000000000E+00 -0.17800706983E+04  0.17800706983E+04  0.00000000000E+00 0. -1.
         25    2    1    2    0    0  0.21762301209E+03  0.92150825955E+02 -0.62747931337E+02  0.27461533910E+03  0.12499892586E+03 0.  0.
          2    1    1    2  501    0 -0.62210566571E+02  0.29390844631E+02 -0.15980318715E+04  0.15995123753E+04  0.00000000000E+00 0. -1.
          1    1    1    2  502    0 -0.15541244552E+03 -0.12154167059E+03  0.75867560253E+03  0.78390948188E+03  0.00000000000E+00 0. -1.
         22    1    3    3    0    0  0.14707722837E+03  0.11537635912E+03 -0.17739841748E+02  0.18777144973E+03  0.00000000000E+00 0.  1.
         22    1    3    3    0    0  0.70545783720E+02 -0.23225533167E+02 -0.45008089589E+02  0.86843889364E+02  0.00000000000E+00 0.  1.
</event>
<event>
 7    1  0.6140348E-006  0.1277015E+03  0.7818608E-02  0.1280682E+00
          2   -1    0    0  502    0  0.00000000000E+00  0.00000000000E+00  0.12840074328E+03  0.12840074328E+03  0.00000000000E+00 0. -1.
          1   -1    0    0  501    0 -0.00000000000E+00 -0.00000000000E+00 -0.13197183431E+04  0.13197183431E+04  0.00000000000E+00 0. -1.
         25    2    1    2    0    0  0.26382230363E+02  0.18533317108E+03 -0.70538150540E+02  0.23589192887E+03  0.12499986017E+03 0.  0.
          2    1    1    2  501    0  0.21465136817E+02 -0.12370592119E+03 -0.11269872470E+04  0.11339595063E+04  0.00000000000E+00 0. -1.
          1    1    1    2  502    0 -0.47847367180E+02 -0.61627249886E+02  0.62077977148E+01  0.78267651217E+02  0.00000000000E+00 0. -1.
         22    1    3    3    0    0 -0.73963554308E+00 -0.18597806771E+02 -0.66911277057E+00  0.18624531923E+02  0.00000000000E+00 0.  1.
         22    1    3    3    0    0  0.27121865906E+02  0.20393097785E+03 -0.69869037770E+02  0.21726739695E+03  0.00000000000E+00 0.  1.
</event>
<event>
 7    1  0.6140348E-006  0.9923560E+02  0.7818608E-02  0.1297153E+00
          2   -1    0    0  502    0  0.00000000000E+00  0.00000000000E+00  0.12340258527E+04  0.12340258527E+04  0.00000000000E+00 0. -1.
          1   -1    0    0  501    0 -0.00000000000E+00 -0.00000000000E+00 -0.10201370652E+04  0.10201370652E+04  0.00000000000E+00 0. -1.
         25    2    1    2    0    0 -0.40033584223E+02  0.84247527772E+02  0.13221405314E+03  0.20447992283E+03  0.12502459435E+03 0.  0.
          2    1    1    2  501    0  0.85751233018E+02  0.68775312507E+01 -0.97967658802E+03  0.98344638466E+03  0.00000000000E+00 0. -1.
          1    1    1    2  502    0 -0.45717648794E+02 -0.91125059023E+02  0.10613513224E+04  0.10662366104E+04  0.00000000000E+00 0. -1.
         22    1    3    3    0    0 -0.21943201932E+01  0.34145004683E+02  0.13728979140E+03  0.14148916286E+03  0.00000000000E+00 0.  1.
         22    1    3    3    0    0 -0.37839264030E+02  0.50102523090E+02 -0.50757382596E+01  0.62990759967E+02  0.00000000000E+00 0.  1.
</event>
<event>
 7    1  0.6140348E-006  0.4400304E+02  0.7818608E-02  0.1544019E+00
          2   -1    0    0  502    0  0.00000000000E+00  0.00000000000E+00  0.33232995187E+03  0.33232995187E+03  0.00000000000E+00 0. -1.
          1   -1    0    0  501    0 -0.00000000000E+00 -0.00000000000E+00 -0.10078410844E+04  0.10078410844E+04  0.00000000000E+00 0. -1.
         25    2    1    2    0    0 -0.19620218131E+00 -0.50384200392E+02 -0.62521742753E+03  0.63957843601E+03  0.12500055193E+03 0.  0.
          2    1    1    2  501    0 -0.24895161433E+02  0.14228909890E+02 -0.37340179270E+03  0.37450117454E+03  0.00000000000E+00 0. -1.
          1    1    1    2  502    0  0.25091363615E+02  0.36155290502E+02  0.32310808772E+03  0.32609142569E+03  0.00000000000E+00 0. -1.
         22    1    3    3    0    0 -0.39912890691E+01 -0.52232459143E+02 -0.88480396195E+02  0.10282480580E+03  0.00000000000E+00 0. -1.
         22    1    3    3    0    0  0.37950868878E+01  0.18482587516E+01 -0.53673703133E+03  0.53675363021E+03  0.00000000000E+00 0. -1.
</event>
<event>
 7    1  0.6140348E-006  0.7540705E+02  0.7818608E-02  0.1375193E+00
          2   -1    0    0  502    0  0.00000000000E+00  0.00000000000E+00  0.27629848464E+03  0.27629848464E+03  0.00000000000E+00 0. -1.
          1   -1    0    0  501    0 -0.00000000000E+00 -0.00000000000E+00 -0.34492146286E+03  0.34492146286E+03  0.00000000000E+00 0. -1.
         25    2    1    2    0    0 -0.45419256208E+02  0.15802118101E+02 -0.12938363264E+03  0.18622353806E+03  0.12500586371E+03 0.  0.
          2    1    1    2  501    0  0.84751399644E+02  0.25893653620E+02 -0.17296458156E+03  0.19434512475E+03  0.00000000000E+00 0. -1.
          1    1    1    2  502    0 -0.39332143436E+02 -0.41695771721E+02  0.23372523598E+03  0.24065128468E+03  0.00000000000E+00 0. -1.
         22    1    3    3    0    0  0.83615743177E+01 -0.35339295837E+02 -0.10002422104E+03  0.10641253004E+03  0.00000000000E+00 0. -1.
         22    1    3    3    0    0 -0.53780830525E+02  0.51141413938E+02 -0.29359411597E+02  0.79811008018E+02  0.00000000000E+00 0. -1.
</event>
<event>
 7    1  0.6140348E-006  0.4308759E+02  0.7818608E-02  0.1540691E+00
          2   -1    0    0  502    0  0.00000000000E+00  0.00000000000E+00  0.41780612405E+03  0.41780612405E+03  0.00000000000E+00 0. -1.
          1   -1    0    0  501    0 -0.00000000000E+00 -0.00000000000E+00 -0.20351325646E+04  0.20351325646E+04  0.00000000000E+00 0. -1.
         25    2    1    2    0    0 -0.36899424040E+02  0.38089162395E+02 -0.46168198548E+03  0.48123718300E+03  0.12500647504E+03 0.  0.
          2    1    1    2  501    0  0.72936585528E+01 -0.42434788452E+02 -0.15628274695E+04  0.15634204835E+04  0.00000000000E+00 0. -1.
          1    1    1    2  502    0  0.29605765487E+02  0.43456260569E+01  0.40718301444E+03  0.40828102217E+03  0.00000000000E+00 0. -1.
         22    1    3    3    0    0  0.52351416361E+01  0.55295958043E+02 -0.40381335945E+03  0.40761535662E+03  0.00000000000E+00 0.  1.
         22    1    3    3    0    0 -0.42134565676E+02 -0.17206795648E+02 -0.57868626030E+02  0.73621826382E+02  0.00000000000E+00 0.  1.
</event>
<event>
 7    1  0.6140348E-006  0.2314221E+02  0.7818608E-02  0.1714586E+00
          2   -1    0    0  502    0  0.00000000000E+00  0.00000000000E+00  0.69732660795E+03  0.69732660795E+03  0.00000000000E+00 0. -1.
          1   -1    0    0  501    0 -0.00000000000E+00 -0.00000000000E+00 -0.52868946823E+02  0.52868946823E+02  0.00000000000E+00 0. -1.
         25    2    1    2    0    0  0.23582039531E+01  0.20653769006E+01  0.93866112378E+02  0.15636003800E+03  0.12501114960E+03 0.  0.
          2    1    1    2  501    0  0.11799825332E+02  0.16434443173E+02 -0.16597198445E+02  0.26168565044E+02  0.00000000000E+00 0. -1.
          1    1    1    2  502    0 -0.14158029285E+02 -0.18499820073E+02  0.56718874719E+03  0.56766695172E+03  0.00000000000E+00 0. -1.
         22    1    3    3    0    0  0.36593321237E+02 -0.23325549338E+02  0.10387693196E+03  0.11257694881E+03  0.00000000000E+00 0. -1.
         22    1    3    3    0    0 -0.34235117284E+02  0.25390926239E+02 -0.10010819578E+02  0.43783089193E+02  0.00000000000E+00 0. -1.
</event>
<event>
 7    1  0.6140348E-006  0.1072086E+03  0.7818608E-02  0.1273540E+00
          2   -1    0    0  502    0  0.00000000000E+00  0.00000000000E+00  0.22866713029E+04  0.22866713029E+04  0.00000000000E+00 0. -1.
          1   -1    0    0  501    0 -0.00000000000E+00 -0.00000000000E+00 -0.28242808332E+03  0.28242808332E+03  0.00000000000E+00 0. -1.
         25    2    1    2    0    0  0.10989018196E+03 -0.55333402130E+02  0.20881308529E+02  0.17663142077E+03  0.12499996910E+03 0.  0.
          2    1    1    2  501    0 -0.10162286102E+03 -0.43823801987E+02 -0.18836119858E+03  0.21846663963E+03  0.00000000000E+00 0. -1.
          1    1    1    2  502    0 -0.82673209420E+01  0.99157204117E+02  0.21717231096E+04  0.21740013258E+04  0.00000000000E+00 0. -1.
         22    1    3    3    0    0  0.78167916086E+02  0.28900914290E+02 -0.33845485170E+01  0.83408279688E+02  0.00000000000E+00 0. -1.
         22    1    3    3    0    0  0.31722265875E+02 -0.84234316419E+02  0.24265857046E+02  0.93223141081E+02  0.00000000000E+00 0. -1.
</event>
<event>
 7    1  0.6140348E-006  0.4174389E+02  0.7818608E-02  0.1509322E+00
          2   -1    0    0  502    0  0.00000000000E+00  0.00000000000E+00  0.30477717100E+04  0.30477717100E+04  0.00000000000E+00 0. -1.
          1   -1    0    0  501    0 -0.00000000000E+00 -0.00000000000E+00 -0.10326935494E+04  0.10326935494E+04  0.00000000000E+00 0. -1.
         25    2    1    2    0    0  0.99954650008E+01 -0.11771104648E+02  0.35751125961E+03  0.37904910139E+03  0.12500180914E+03 0.  0.
          2    1    1    2  501    0 -0.40219741924E+02 -0.11328972190E+02 -0.10213624036E+04  0.10222167739E+04  0.00000000000E+00 0. -1.
          1    1    1    2  502    0  0.30224276923E+02  0.23100076839E+02  0.26789293046E+04  0.26791993841E+04  0.00000000000E+00 0. -1.
         22    1    3    3    0    0 -0.22298633080E+02  0.48382052107E+02  0.10888085805E+03  0.12121507024E+03  0.00000000000E+00 0.  1.
         22    1    3    3    0    0  0.32294098081E+02 -0.60153156755E+02  0.24863040156E+03  0.25783403115E+03  0.00000000000E+00 0.  1.
</event>
<event>
 7    1  0.6140348E-006  0.2197427E+03  0.7818608E-02  0.1281654E+00
          2   -1    0    0  502    0  0.00000000000E+00  0.00000000000E+00  0.24582165095E+04  0.24582165095E+04  0.00000000000E+00 0. -1.
          1   -1    0    0  501    0 -0.00000000000E+00 -0.00000000000E+00 -0.27789689620E+03  0.27789689620E+03  0.00000000000E+00 0. -1.
         25    2    1    2    0    0 -0.92458344339E+01  0.24220763582E+03  0.39707299935E+03  0.48170491937E+03  0.12499055257E+03 0.  0.
          2    1    1    2  501    0 -0.27087366083E+02 -0.21578623147E+03 -0.18507764087E+03  0.28557163067E+03  0.00000000000E+00 0. -1.
          1    1    1    2  502    0  0.36333200516E+02 -0.26421404348E+02  0.19683242548E+04  0.19688368556E+04  0.00000000000E+00 0. -1.
         22    1    3    3    0    0 -0.65739772450E+02  0.11171733095E+03  0.16994339934E+03  0.21373637663E+03  0.00000000000E+00 0.  1.
         22    1    3    3    0    0  0.56493938016E+02  0.13049030487E+03  0.22712960001E+03  0.26796854274E+03  0.00000000000E+00 0.  1.
</event>
<event>
 7    1  0.6140348E-006  0.1001845E+03  0.7818608E-02  0.1423279E+00
          2   -1    0    0  502    0  0.00000000000E+00  0.00000000000E+00  0.48234090475E+03  0.48234090475E+03  0.00000000000E+00 0. -1.
          1   -1    0    0  501    0 -0.00000000000E+00 -0.00000000000E+00 -0.48126155270E+03  0.48126155270E+03  0.00000000000E+00 0. -1.
         25    2    1    2    0    0  0.69278644093E+02  0.27686898095E+02  0.60607640186E+02  0.15768640095E+03  0.12500248055E+03 0.  0.
          2    1    1    2  501    0  0.26447018989E+02  0.12993338483E+02 -0.42495496797E+03  0.42597534724E+03  0.00000000000E+00 0. -1.
          1    1    1    2  502    0 -0.95725663082E+02 -0.40680236578E+02  0.36542667983E+03  0.37994070926E+03  0.00000000000E+00 0. -1.
         22    1    3    3    0    0  0.10523714630E+03  0.29585796652E+02  0.41561679063E+02  0.11695105596E+03  0.00000000000E+00 0. -1.
         22    1    3    3    0    0 -0.35958502203E+02 -0.18988985573E+01  0.19045961124E+02  0.40735344991E+02  0.00000000000E+00 0. -1.
</event>
<event>
 7    1  0.6140348E-006  0.1121264E+03  0.7818608E-02  0.1419637E+00
          2   -1    0    0  502    0  0.00000000000E+00  0.00000000000E+00  0.46531449747E+03  0.46531449747E+03  0.00000000000E+00 0. -1.
          1   -1    0    0  501    0 -0.00000000000E+00 -0.00000000000E+00 -0.50506022428E+03  0.50506022428E+03  0.00000000000E+00 0. -1.
         25    2    1    2    0    0 -0.11624500483E+03  0.71451975701E+02 -0.48565643611E+02  0.19130389259E+03  0.12498108498E+03 0.  0.
          2    1    1    2  501    0  0.92158187218E+02 -0.59088599463E+02 -0.37686162203E+03  0.39244015623E+03  0.00000000000E+00 0. -1.
          1    1    1    2  502    0  0.24086817609E+02 -0.12363376239E+02  0.38568153883E+03  0.38663067293E+03  0.00000000000E+00 0. -1.
         22    1    3    3    0    0  0.59441578121E+01 -0.16808874081E+02  0.19058083639E+02  0.26097544175E+02  0.00000000000E+00 0. -1.
         22    1    3    3    0    0 -0.12218916264E+03  0.88260849783E+02 -0.67623727250E+02  0.16520634842E+03  0.00000000000E+00 0. -1.
</event>
<event>
 7    1  0.6140348E-006  0.1339758E+03  0.7818608E-02  0.1275322E+00
          2   -1    0    0  502    0  0.00000000000E+00  0.00000000000E+00  0.11639174193E+04  0.11639174193E+04  0.00000000000E+00 0. -1.
          1   -1    0    0  501    0 -0.00000000000E+00 -0.00000000000E+00 -0.22763652640E+04  0.22763652640E+04  0.00000000000E+00 0. -1.
         25    2    1    2    0    0 -0.13951671954E+03  0.94704582333E+02 -0.67292311714E+02  0.22044675465E+03  0.12503856794E+03 0.  0.
          2    1    1    2  501    0  0.13245912297E+03 -0.16752053090E+02 -0.21289932455E+04  0.21331756351E+04  0.00000000000E+00 0. -1.
          1    1    1    2  502    0  0.70575965644E+01 -0.77952529243E+02  0.10838377126E+04  0.10866602936E+04  0.00000000000E+00 0. -1.
         22    1    3    3    0    0 -0.11689737030E+03  0.53100987469E+02 -0.10012928561E+03  0.16282071088E+03  0.00000000000E+00 0.  1.
         22    1    3    3    0    0 -0.22619349232E+02  0.41603594864E+02  0.32836973897E+02  0.57626043766E+02  0.00000000000E+00 0.  1.
</event>
<event>
 7    1  0.6140348E-006  0.5743288E+02  0.7818608E-02  0.1414857E+00
          2   -1    0    0  502    0  0.00000000000E+00  0.00000000000E+00  0.86765956115E+03  0.86765956115E+03  0.00000000000E+00 0. -1.
          1   -1    0    0  501    0 -0.00000000000E+00 -0.00000000000E+00 -0.85112381544E+02  0.85112381544E+02  0.00000000000E+00 0. -1.
         25    2    1    2    0    0  0.42607199994E+02 -0.58694275828E+02  0.29713507080E+03  0.33041539485E+03  0.12499876539E+03 0.  0.
          2    1    1    2  501    0 -0.54811287255E+02  0.19202990202E+01 -0.55681221573E+02  0.78156018289E+02  0.00000000000E+00 0. -1.
          1    1    1    2  502    0  0.12204087261E+02  0.56773976807E+02  0.54109333038E+03  0.54420052955E+03  0.00000000000E+00 0. -1.
         22    1    3    3    0    0 -0.62879954636E-01 -0.90501771719E+02  0.20339315765E+03  0.22261929659E+03  0.00000000000E+00 0. -1.
         22    1    3    3    0    0  0.42670079949E+02  0.31807495891E+02  0.93741913156E+02  0.10779609826E+03  0.00000000000E+00 0. -1.
</event>
<event>
 7    1  0.6140348E-006  0.6946462E+02  0.7818608E-02  0.1467428E+00
          2   -1    0    0  502    0  0.00000000000E+00  0.00000000000E+00  0.23985699740E+02  0.23985699740E+02  0.00000000000E+00 0. -1.
          1   -1    0    0  501    0 -0.00000000000E+00 -0.00000000000E+00 -0.28641314109E+04  0.28641314109E+04  0.00000000000E+00 0. -1.
         25    2    1    2    0    0  0.48685565451E+02 -0.69446877887E+02 -0.86069931821E+03  0.87385316275E+03  0.12499152197E+03 0.  0.
          2    1    1    2  501    0 -0.30451083566E+02  0.33012205567E+01 -0.19286521151E+04  0.19288953180E+04  0.00000000000E+00 0. -1.
          1    1    1    2  502    0 -0.18234481885E+02  0.66145657331E+02 -0.50794277852E+02  0.85368629928E+02  0.00000000000E+00 0. -1.
         22    1    3    3    0    0 -0.91615606625E+01  0.43865361563E+01 -0.53032218623E+03  0.53041945392E+03  0.00000000000E+00 0. -1.
         22    1    3    3    0    0  0.57847126113E+02 -0.73833414044E+02 -0.33037713197E+03  0.34343370883E+03  0.00000000000E+00 0. -1.
</event>
<event>
 7    1  0.6140348E-006  0.1442245E+03  0.7818608E-02  0.1272582E+00
          2   -1    0    0  502    0  0.00000000000E+00  0.00000000000E+00  0.16928849750E+04  0.16928849750E+04  0.00000000000E+00 0. -1.
          1   -1    0    0  501    0 -0.00000000000E+00 -0.00000000000E+00 -0.22417308877E+03  0.22417308877E+03  0.00000000000E+00 0. -1.
         25    2    1    2    0    0 -0.65394207328E+02  0.20029268978E+03  0.15852454255E+03  0.29180407822E+03  0.12500410212E+03 0.  0.
          2    1    1    2  501    0  0.42785847728E+02 -0.61170354727E+02 -0.14508987912E+03  0.16316713544E+03  0.00000000000E+00 0. -1.
          1    1    1    2  502    0  0.22608359601E+02 -0.13912233505E+03  0.14552772228E+04  0.14620868501E+04  0.00000000000E+00 0. -1.
         22    1    3    3    0    0 -0.75539113230E+01  0.18482987459E+03  0.12385548785E+03  0.22261923993E+03  0.00000000000E+00 0. -1.
         22    1    3    3    0    0 -0.57840296005E+02  0.15462815181E+02  0.34669054703E+02  0.69184838291E+02  0.00000000000E+00 0. -1.
</event>
<event>
 7    1  0.6140348E-006  0.7457585E+02  0.7818608E-02  0.1362032E+00
          2   -1    0    0  502    0  0.00000000000E+00  0.00000000000E+00  0.21822863109E+03  0.21822863109E+03  0.00000000000E+00 0. -1.
          1   -1    0    0  501    0 -0.00000000000E+00 -0.00000000000E+00 -0.52861201924E+03  0.52861201924E+03  0.00000000000E+00 0. -1.
         25    2    1    2    0    0  0.11862553061E+02  0.54535641534E+02 -0.16065656051E+03  0.21106817696E+03  0.12499755409E+03 0.  0.
          2    1    1    2  501    0  0.52175895150E+02 -0.63366706808E+02 -0.33219799910E+03  0.34218879901E+03  0.00000000000E+00 0. -1.
          1    1    1    2  502    0 -0.64038448211E+02  0.88310652742E+01  0.18247117146E+03  0.19358367436E+03  0.00000000000E+00 0. -1.
         22    1    3    3    0    0 -0.34254504174E+02  0.33441623926E+02 -0.59236654079E+01  0.48236947238E+02  0.00000000000E+00 0.  1.
         22    1    3    3    0    0  0.46117057235E+02  0.21094017608E+02 -0.15473289510E+03  0.16283122973E+03  0.00000000000E+00 0.  1.
</event>
<event>
 7    1  0.6140348E-006  0.3450966E+02  0.7818608E-02  0.1557698E+00
          2   -1    0    0  502    0  0.00000000000E+00  0.00000000000E+00  0.28670902388E+02  0.28670902388E+02  0.00000000000E+00 0. -1.
          1   -1    0    0  501    0 -0.00000000000E+00 -0.00000000000E+00 -0.39771638722E+03  0.39771638722E+03  0.00000000000E+00 0. -1.
         25    2    1    2    0    0  0.68600192978E+00 -0.32038867795E+02 -0.26355654616E+03  0.29345207860E+03  0.12500043906E+03 0.  0.
          2    1    1    2  501    0 -0.31183723938E+02  0.12214826265E+02 -0.84603607552E+02  0.90991192047E+02  0.00000000000E+00 0. -1.
          1    1    1    2  502    0  0.30497722008E+02  0.19824041530E+02 -0.20885331117E+02  0.41944018955E+02  0.00000000000E+00 0. -1.
         22    1    3    3    0    0 -0.10545887885E+02 -0.76408157599E+02 -0.11889718480E+03  0.14172495494E+03  0.00000000000E+00 0. -1.
         22    1    3    3    0    0  0.11231889815E+02  0.44369289804E+02 -0.14465936136E+03  0.15172712366E+03  0.00000000000E+00 0. -1.
</event>
<event>
 7    1  0.6140348E-006  0.1136063E+03  0.7818608E-02  0.1293349E+00
          2   -1    0    0  502    0  0.00000000000E+00  0.00000000000E+00  0.10123730243E+04  0.10123730243E+04  0.00000000000E+00 0. -1.
          1   -1    0    0  501    0 -0.00000000000E+00 -0.00000000000E+00 -0.11337950131E+04  0.11337950131E+04  0.00000000000E+00 0. -1.
         25    2    1    2    0    0 -0.84905443248E+02 -0.20184356845E+02 -0.39340244888E+03  0.42190939874E+03  0.12500284560E+03 0.  0.
          2    1    1    2  501    0  0.11990108426E+03 -0.49352234224E+02 -0.71881204203E+03  0.73041266747E+03  0.00000000000E+00 0. -1.
          1    1    1    2  502    0 -0.34995641016E+02  0.69536591069E+02  0.99079250208E+03  0.99384597125E+03  0.00000000000E+00 0. -1.
         22    1    3    3    0    0  0.23562014513E+02  0.14434108204E+02 -0.28667904988E+02  0.39816589306E+02  0.00000000000E+00 0. -1.
         22    1    3    3    0    0 -0.10846745776E+03 -0.34618465049E+02 -0.36473454389E+03  0.38209280944E+03  0.00000000000E+00 0. -1.
</event>
<event>
 7    1  0.6450247E-006  0.7135821E+02  0.7818608E-02  0.1468227E+00
          2   -1    0    0  502    0  0.00000000000E+00  0.00000000000E+00  0.13625958381E+04  0.13625958381E+04  0.00000000000E+00 0. -1.
          1   -1    0    0  501    0 -0.00000000000E+00 -0.00000000000E+00 -0.11800068189E+04  0.11800068189E+04  0.00000000000E+00 0. -1.
         25    2    1    2    0    0 -0.30944011287E+02 -0.46417380883E+02 -0.28569059640E+03  0.31678675407E+03  0.12499050205E+03 0.  0.
          2    1    1    2  501    0  0.60213285873E+02  0.41705202021E+02 -0.87707828598E+03  0.88013140122E+03  0.00000000000E+00 0. -1.
          1    1    1    2  502    0 -0.29269274587E+02  0.47121788618E+01  0.13453579015E+04  0.13456845018E+04  0.00000000000E+00 0. -1.
         22    1    3    3    0    0 -0.79298489043E+02 -0.23426267123E+02 -0.15809369862E+03  0.17841148477E+03  0.00000000000E+00 0.  1.
         22    1    3    3    0    0  0.48354477756E+02 -0.22991113760E+02 -0.12759689778E+03  0.13837526930E+03  0.00000000000E+00 0.  1.
</event>
<event>
 7    1  0.6140348E-006  0.6901050E+02  0.7818608E-02  0.1402950E+00
          2   -1    0    0  502    0  0.00000000000E+00  0.00000000000E+00  0.92465217765E+03  0.92465217765E+03  0.00000000000E+00 0. -1.
          1   -1    0    0  501    0 -0.00000000000E+00 -0.00000000000E+00 -0.69113699150E+02  0.69113699150E+02  0.00000000000E+00 0. -1.
         25    2    1    2    0    0 -0.10771280561E+01 -0.57251400301E+02  0.54334642087E+03  0.56047329522E+03  0.12500439405E+03 0.  0.
          2    1    1    2  501    0 -0.48563115792E+02  0.50514705348E+02 -0.37879199463E+02  0.79655165707E+02  0.00000000000E+00 0. -1.
          1    1    1    2  502    0  0.49640243849E+02  0.67366949525E+01  0.35007125709E+03  0.35363741588E+03  0.00000000000E+00 0. -1.
         22    1    3    3    0    0  0.31043563214E+02  0.24158876750E+02  0.82596474375E+02  0.91485144816E+02  0.00000000000E+00 0. -1.
         22    1    3    3    0    0 -0.32120691270E+02 -0.81410277050E+02  0.46074994650E+03  0.46898815040E+03  0.00000000000E+00 0. -1.
</event>
<event>
 7    1  0.6140348E-006  0.1281885E+03  0.7818608E-02  0.1301273E+00
          2   -1    0    0  502    0  0.00000000000E+00  0.00000000000E+00  0.36766694062E+02  0.36766694062E+02  0.00000000000E+00 0. -1.
          1   -1    0    0  501    0 -0.00000000000E+00 -0.00000000000E+00 -0.21109077869E+04  0.21109077869E+04  0.00000000000E+00 0. -1.
         25    2    1    2    0    0 -0.10583946206E+03 -0.22885873076E+02 -0.62457921604E+03  0.64610372234E+03  0.12500027202E+03 0.  0.
          2    1    1    2  501    0  0.14754205987E+00 -0.64111143514E+02 -0.12889210160E+04  0.12905144888E+04  0.00000000000E+00 0. -1.
          1    1    1    2  502    0  0.10569192000E+03  0.86997016591E+02 -0.16064086087E+03  0.21105626982E+03  0.00000000000E+00 0. -1.
         22    1    3    3    0    0 -0.68674028036E+02 -0.71630123380E+02 -0.30621344167E+03  0.32189077117E+03  0.00000000000E+00 0. -1.
         22    1    3    3    0    0 -0.37165434023E+02  0.48744250304E+02 -0.31836577436E+03  0.32421295117E+03  0.00000000000E+00 0. -1.
</event>
<event>
 7    1  0.6140348E-006  0.9840546E+02  0.7818608E-02  0.1321077E+00
          2   -1    0    0  502    0  0.00000000000E+00  0.00000000000E+00  0.11410242167E+04  0.11410242167E+04  0.00000000000E+00 0. -1.
          1   -1    0    0  501    0 -0.00000000000E+00 -0.00000000000E+00 -0.23935935510E+03  0.23935935510E+03  0.00000000000E+00 0. -1.
         25    2    1    2    0    0 -0.24576949043E+02 -0.14503207945E+03  0.31277635286E+03  0.36754946713E+03  0.12500093351E+03 0.  0.
          2    1    1    2  501    0  0.53164185955E+02  0.81353800727E+02 -0.19920937130E+03  0.22165117905E+03  0.00000000000E+00 0. -1.
          1    1    1    2  502    0 -0.28587236912E+02  0.63678278723E+02  0.78809788006E+03  0.79118292566E+03  0.00000000000E+00 0. -1.
         22    1    3    3    0    0 -0.37860252476E+02 -0.31165518752E+02  0.20295679332E+03  0.20879690666E+03  0.00000000000E+00 0. -1.
         22    1    3    3    0    0  0.13283303433E+02 -0.11386656070E+03  0.10981955954E+03  0.15875256046E+03  0.00000000000E+00 0. -1.
</event>
<event>
 7    1  0.6140348E-006  0.5856733E+02  0.7818608E-02  0.1553610E+00
          2   -1    0    0  502    0  0.00000000000E+00  0.00000000000E+00  0.20579316351E+03  0.20579316351E+03  0.00000000000E+00 0. -1.
          1   -1    0    0  501    0 -0.00000000000E+00 -0.00000000000E+00 -0.54990500411E+03  0.54990500411E+03  0.00000000000E+00 0. -1.
         25    2    1    2    0    0 -0.72566611335E+01  0.74490293840E+02  0.41142088717E+02  0.15139497429E+03  0.12500521497E+03 0.  0.
          2    1    1    2  501    0  0.15785996431E+02 -0.56118904917E+02 -0.49210666034E+03  0.49554767109E+03  0.00000000000E+00 0. -1.
          1    1    1    2  502    0 -0.85293352975E+01 -0.18371388923E+02  0.10685273102E+03  0.10875552224E+03  0.00000000000E+00 0. -1.
         22    1    3    3    0    0 -0.16816329993E+02  0.53745116848E+02 -0.38712796160E+02  0.68337450391E+02  0.00000000000E+00 0. -1.
         22    1    3    3    0    0  0.95596688599E+01  0.20745176992E+02  0.79854884877E+02  0.83057523897E+02  0.00000000000E+00 0. -1.
</event>
<event>
 7    1  0.6140348E-006  0.7604341E+02  0.7818608E-02  0.1464573E+00
          2   -1    0    0  502    0  0.00000000000E+00  0.00000000000E+00  0.17887852625E+04  0.17887852625E+04  0.00000000000E+00 0. -1.
          1   -1    0    0  501    0 -0.00000000000E+00 -0.00000000000E+00 -0.11537377863E+04  0.11537377863E+04  0.00000000000E+00 0. -1.
         25    2    1    2    0    0 -0.11439367372E+02 -0.46571018440E+02  0.17659641120E+03  0.22160898635E+03  0.12499812598E+03 0.  0.
          2    1    1    2  501    0  0.23119442408E+02  0.72634590935E+02 -0.11298189001E+04  0.11323873187E+04  0.00000000000E+00 0. -1.
          1    1    1    2  502    0 -0.11680075036E+02 -0.26063572496E+02  0.15882699651E+04  0.15885267438E+04  0.00000000000E+00 0. -1.
         22    1    3    3    0    0  0.19846405263E+02 -0.64899924747E+02  0.17219118046E+03  0.18508290754E+03  0.00000000000E+00 0.  1.
         22    1    3    3    0    0 -0.31285772635E+02  0.18328906308E+02  0.44052307416E+01  0.36526078817E+02  0.00000000000E+00 0.  1.
</event>
<event>
 7    1  0.7135784E-006  0.4663455E+02  0.7818608E-02  0.1473768E+00
          2   -1    0    0  502    0  0.00000000000E+00  0.00000000000E+00  0.99313913963E+03  0.99313913963E+03  0.00000000000E+00 0. -1.
          1   -1    0    0  501    0 -0.00000000000E+00 -0.00000000000E+00 -0.79124565930E+03  0.79124565930E+03  0.00000000000E+00 0. -1.
         25    2    1    2    0    0  0.76685584049E+02  0.21890717871E+02 -0.43024299150E+03  0.45507443689E+03  0.12499531610E+03 0.  0.
          2    1    1    2  501    0 -0.43200194063E+02  0.60331563349E+01 -0.34673522296E+03  0.34946812528E+03  0.00000000000E+00 0. -1.
          1    1    1    2  502    0 -0.33485389987E+02 -0.27923874206E+02  0.97887169479E+03  0.97984223677E+03  0.00000000000E+00 0. -1.
         22    1    3    3    0    0 -0.18419177682E+01  0.18924180886E+02 -0.13717005954E+01  0.19063022997E+02  0.00000000000E+00 0. -1.
         22    1    3    3    0    0  0.78527501818E+02  0.29665369857E+01 -0.42887129090E+03  0.43601141389E+03  0.00000000000E+00 0. -1.
</event>
<event>
 7    1  0.6140348E-006  0.3947629E+02  0.7818608E-02  0.1569547E+00
          2   -1    0    0  502    0  0.00000000000E+00  0.00000000000E+00  0.73501027448E+03  0.73501027448E+03  0.00000000000E+00 0. -1.
          1   -1    0    0  501    0 -0.00000000000E+00 -0.00000000000E+00 -0.30064111010E+03  0.30064111010E+03  0.00000000000E+00 0. -1.
         25    2    1    2    0    0  0.12787737689E+02  0.44427239230E+01  0.20902644262E+03  0.24392604703E+03  0.12499839467E+03 0.  0.
          2    1    1    2  501    0  0.26172999817E+02  0.72871660734E+01 -0.28172289003E+03  0.28302988442E+03  0.00000000000E+00 0. -1.
          1    1    1    2  502    0 -0.38960737506E+02 -0.11729889996E+02  0.50706561179E+03  0.50869545314E+03  0.00000000000E+00 0. -1.
         22    1    3    3    0    0 -0.30133457766E+01 -0.30073713783E+02  0.20330102391E+03  0.20553543450E+03  0.00000000000E+00 0.  1.
         22    1    3    3    0    0  0.15801083466E+02  0.34516437705E+02  0.57254187155E+01  0.38390612525E+02  0.00000000000E+00 0.  1.
</event>
<event>
 7    1  0.6140348E-006  0.1086059E+03  0.7818608E-02  0.1306365E+00
          2   -1    0    0  502    0  0.00000000000E+00  0.00000000000E+00  0.12778061014E+04  0.12778061014E+04  0.00000000000E+00 0. -1.
          1   -1    0    0  501    0 -0.00000000000E+00 -0.00000000000E+00 -0.84947079914E+02  0.84947079914E+02  0.00000000000E+00 0. -1.
         25    2    1    2    0    0  0.41047778259E+02 -0.86893296380E+01  0.20639600666E+02  0.13345163426E+03  0.12499168381E+03 0.  0.
          2    1    1    2  501    0  0.58574131496E+02 -0.42250139761E+02  0.24683301761E+02  0.76323447093E+02  0.00000000000E+00 0. -1.
          1    1    1    2  502    0 -0.99621909755E+02  0.50939469399E+02  0.11475361191E+04  0.11529781000E+04  0.00000000000E+00 0. -1.
         22    1    3    3    0    0  0.81349166632E+02  0.17616585759E+02  0.75507574358E+01  0.83576581309E+02  0.00000000000E+00 0.  1.
         22    1    3    3    0    0 -0.40301388373E+02 -0.26305915397E+02  0.13088843230E+02  0.49875052949E+02  0.00000000000E+00 0.  1.
</event>
<event>
 7    1  0.6140348E-006  0.5902942E+02  0.7818608E-02  0.1454592E+00
          2   -1    0    0  502    0  0.00000000000E+00  0.00000000000E+00  0.49899927516E+03  0.49899927516E+03  0.00000000000E+00 0. -1.
          1   -1    0    0  501    0 -0.00000000000E+00 -0.00000000000E+00 -0.78741003056E+03  0.78741003056E+03  0.00000000000E+00 0. -1.
         25    2    1    2    0    0 -0.16069191632E+02  0.76323811676E+02 -0.33175357532E+03  0.36299964824E+03  0.12499906694E+03 0.  0.
          2    1    1    2  501    0  0.34047386304E+02 -0.20146861892E+02 -0.43733786892E+03  0.43912359553E+03  0.00000000000E+00 0. -1.
          1    1    1    2  502    0 -0.17978194672E+02 -0.56176949785E+02  0.48068068885E+03  0.48428606195E+03  0.00000000000E+00 0. -1.
         22    1    3    3    0    0 -0.15090109510E+02 -0.18000298463E+02 -0.19766279827E+03  0.19905352036E+03  0.00000000000E+00 0.  1.
         22    1    3    3    0    0 -0.97908212184E+00  0.94324110140E+02 -0.13409077705E+03  0.16394612788E+03  0.00000000000E+00 0.  1.
</event>
<event>
 7    1  0.6140348E-006  0.6624340E+02  0.7818608E-02  0.1435787E+00
          2   -1    0    0  502    0  0.00000000000E+00  0.00000000000E+00  0.99563909765E+03  0.99563909765E+03  0.00000000000E+00 0. -1.
          1   -1    0    0  501    0 -0.00000000000E+00 -0.00000000000E+00 -0.14571284237E+03  0.14571284237E+03  0.00000000000E+00 0. -1.
         25    2    1    2    0    0  0.99357335098E+02 -0.34782087079E+02  0.38791616704E+03  0.42093628965E+03  0.12500693451E+03 0.  0.
          2    1    1    2  501    0 -0.59552621969E+02  0.27146154246E+02 -0.12016457398E+03  0.13683184320E+03  0.00000000000E+00 0. -1.
          1    1    1    2  502    0 -0.39804713128E+02  0.76359328332E+01  0.58217466221E+03  0.58358380716E+03  0.00000000000E+00 0. -1.
         22    1    3    3    0    0  0.11355456476E+03 -0.63025866060E+02  0.28333274612E+03  0.31167987422E+03  0.00000000000E+00 0.  1.
         22    1    3    3    0    0 -0.14197229664E+02  0.28243778981E+02  0.10458342092E+03  0.10925641543E+03  0.00000000000E+00 0.  1.
</event>
<event>
 7    1  0.6140348E-006  0.7850684E+02  0.7818608E-02  0.1383301E+00
          2   -1    0    0  502    0  0.00000000000E+00  0.00000000000E+00  0.78368616419E+03  0.78368616419E+03  0.00000000000E+00 0. -1.
          1   -1    0    0  501    0 -0.00000000000E+00 -0.00000000000E+00 -0.12856606846E+03  0.12856606846E+03  0.00000000000E+00 0. -1.
         25    2    1    2    0    0  0.63273369425E+02 -0.10509648274E+03  0.40434611080E+02  0.17974829667E+03  0.12500280964E+03 0.  0.
          2    1    1    2  501    0 -0.41031073210E+02  0.31173572334E+02 -0.44941849795E+02  0.68374779297E+02  0.00000000000E+00 0. -1.
          1    1    1    2  502    0 -0.22242296215E+02  0.73922910409E+02  0.65962733444E+03  0.66412915669E+03  0.00000000000E+00 0. -1.
         22    1    3    3    0    0  0.32992304050E+01 -0.10376309275E+03  0.55746455787E+02  0.11783603723E+03  0.00000000000E+00 0.  1.
         22    1    3    3    0    0  0.59974139020E+02 -0.13333899984E+01 -0.15311844707E+02  0.61912259436E+02  0.00000000000E+00 0.  1.
</event>
<event>
 7    1  0.6140348E-006  0.4948455E+02  0.7818608E-02  0.1517757E+00
          2   -1    0    0  502    0  0.00000000000E+00  0.00000000000E+00  0.16818212220E+03  0.16818212220E+03  0.00000000000E+00 0. -1.
          1   -1    0    0  501    0 -0.00000000000E+00 -0.00000000000E+00 -0.45532307180E+03  0.45532307180E+03  0.00000000000E+00 0. -1.
         25    2    1    2    0    0 -0.21915893642E+02 -0.23190004936E+01 -0.50758899011E+02  0.13670022601E+03  0.12499920722E+03 0.  0.
          2    1    1    2  501    0 -0.25730407919E+02 -0.16030743903E+02 -0.35571687056E+03  0.35700634538E+03  0.00000000000E+00 0. -1.
          1    1    1    2  502    0  0.47646301561E+02  0.18349744397E+02  0.11933481998E+03  0.12979862261E+03  0.00000000000E+00 0. -1.
         22    1    3    3    0    0 -0.66802886397E+02 -0.87032320206E+01  0.16679308846E+01  0.67388084050E+02  0.00000000000E+00 0. -1.
         22    1    3    3    0    0  0.44886992755E+02  0.63842315270E+01 -0.52426829896E+02  0.69312141964E+02  0.00000000000E+00 0. -1.
</event>
<event>
 7    1  0.6152238E-006  0.8691307E+02  0.7818608E-02  0.1376475E+00
          2   -1    0    0  502    0  0.00000000000E+00  0.00000000000E+00  0.89508076618E+03  0.89508076618E+03  0.00000000000E+00 0. -1.
          1   -1    0    0  501    0 -0.00000000000E+00 -0.00000000000E+00 -0.12314136861E+04  0.12314136861E+04  0.00000000000E+00 0. -1.
         25    2    1    2    0    0 -0.10812444603E+03 -0.54646926243E+02 -0.65637843785E+03  0.67906893652E+03  0.12499913799E+03 0.  0.
          2    1    1    2  501    0  0.58941567426E+02  0.52976976200E+02 -0.56021382715E+03  0.56579165822E+03  0.00000000000E+00 0. -1.
          1    1    1    2  502    0  0.49182878609E+02  0.16699500434E+01  0.88025934505E+03  0.88163385757E+03  0.00000000000E+00 0. -1.
         22    1    3    3    0    0 -0.32916326115E+02 -0.26022780551E+02 -0.41740741686E+02  0.59185801921E+02  0.00000000000E+00 0. -1.
         22    1    3    3    0    0 -0.75208119920E+02 -0.28624145692E+02 -0.61463769616E+03  0.61988313460E+03  0.00000000000E+00 0. -1.
</event>
<event>
 7    1  0.6140348E-006  0.6252738E+02  0.7818608E-02  0.1410272E+00
          2   -1    0    0  502    0  0.00000000000E+00  0.00000000000E+00  0.30874120636E+03  0.30874120636E+03  0.00000000000E+00 0. -1.
          1   -1    0    0  501    0 -0.00000000000E+00 -0.00000000000E+00 -0.19479855751E+03  0.19479855751E+03  0.00000000000E+00 0. -1.
         25    2    1    2    0    0  0.80330885568E+02 -0.34552947758E+02  0.10505509586E+03  0.18523419241E+03  0.12501270134E+03 0.  0.
          2    1    1    2  501    0 -0.60581954891E+02 -0.13771560572E+02 -0.14395731690E+03  0.15679138442E+03  0.00000000000E+00 0. -1.
          1    1    1    2  502    0 -0.19748930677E+02  0.48324508330E+02  0.15284486988E+03  0.16151418705E+03  0.00000000000E+00 0. -1.
         22    1    3    3    0    0  0.11067309686E+03 -0.46352280887E+02  0.83806056226E+02  0.14635751902E+03  0.00000000000E+00 0.  1.
         22    1    3    3    0    0 -0.30342211295E+02  0.11799333129E+02  0.21249039632E+02  0.38876673390E+02  0.00000000000E+00 0.  1.
</event>
<event>
 7    1  0.6140348E-006  0.7781660E+02  0.7818608E-02  0.1437984E+00
          2   -1    0    0  502    0  0.00000000000E+00  0.00000000000E+00  0.14518214745E+04  0.14518214745E+04  0.00000000000E+00 0. -1.
          1   -1    0    0  501    0 -0.00000000000E+00 -0.00000000000E+00 -0.63172450703E+03  0.63172450703E+03  0.00000000000E+00 0. -1.
         25    2    1    2    0    0 -0.34366973564E+02  0.37962071437E+02  0.80370550508E+03  0.81497853843E+03  0.12500108585E+03 0.  0.
          2    1    1    2  501    0  0.30512548265E+02 -0.71680792329E+02 -0.62321291861E+03  0.62806328783E+03  0.00000000000E+00 0. -1.
          1    1    1    2  502    0  0.38544252985E+01  0.33718720892E+02  0.63960438100E+03  0.64050415528E+03  0.00000000000E+00 0. -1.
         22    1    3    3    0    0 -0.39530487056E+02  0.23628495730E+02  0.89893755442E+02  0.10100422013E+03  0.00000000000E+00 0.  1.
         22    1    3    3    0    0  0.51635134923E+01  0.14333575707E+02  0.71381174964E+03  0.71397431830E+03  0.00000000000E+00 0.  1.
</event>
<event>
 7    1  0.6140348E-006  0.5170219E+02  0.7818608E-02  0.1445588E+00
          2   -1    0    0  502    0  0.00000000000E+00  0.00000000000E+00  0.28320701362E+03  0.28320701362E+03  0.00000000000E+00 0. -1.
          1   -1    0    0  501    0 -0.00000000000E+00 -0.00000000000E+00 -0.11480109243E+04  0.11480109243E+04  0.00000000000E+00 0. -1.
         25    2    1    2    0    0 -0.36909733789E+02  0.84594438202E+02 -0.49766704624E+01  0.15546099379E+03  0.12499922367E+03 0.  0.
          2    1    1    2  501    0  0.36386273321E+02 -0.36331758716E+02 -0.10643626269E+04  0.10656039411E+04  0.00000000000E+00 0. -1.
          1    1    1    2  502    0  0.52346046876E+00 -0.48262679486E+02  0.20453538677E+03  0.21015300303E+03  0.00000000000E+00 0. -1.
         22    1    3    3    0    0  0.24264517366E+02 -0.12675244402E+01 -0.37895009769E+02  0.45015610476E+02  0.00000000000E+00 0.  1.
         22    1    3    3    0    0 -0.61174251155E+02  0.85861962642E+02  0.32918339306E+02  0.11044538332E+03  0.00000000000E+00 0.  1.
</event>
<event>
 7    1  0.6140348E-006  0.1324103E+03  0.7818608E-02  0.1270610E+00
          2   -1    0    0  502    0  0.00000000000E+00  0.00000000000E+00  0.16349641458E+04  0.16349641458E+04  0.00000000000E+00 0. -1.
          1   -1    0    0  501    0 -0.00000000000E+00 -0.00000000000E+00 -0.55367797141E+03  0.55367797141E+03  0.00000000000E+00 0. -1.
         25    2    1    2    0    0  0.58508214299E+02 -0.53803182654E+02  0.34724197511E+02  0.15214830146E+03  0.12500136855E+03 0.  0.
          2    1    1    2  501    0  0.75764871963E+02  0.33573577529E+02 -0.48847903365E+03  0.49545864333E+03  0.00000000000E+00 0. -1.
          1    1    1    2  502    0 -0.13427308626E+03  0.20229605125E+02  0.15350410105E+04  0.15410351724E+04  0.00000000000E+00 0. -1.
         22    1    3    3    0    0  0.57256795690E+01 -0.85145980218E+02  0.30467155033E+02  0.90613844912E+02  0.00000000000E+00 0. -1.
         22    1    3    3    0    0  0.52782534731E+02  0.31342797564E+02  0.42570424785E+01  0.61534456546E+02  0.00000000000E+00 0. -1.
</event>
<event>
 7    1  0.6140348E-006  0.5493977E+02  0.7818608E-02  0.1454927E+00
          2   -1    0    0  502    0  0.00000000000E+00  0.00000000000E+00  0.31338216796E+03  0.31338216796E+03  0.00000000000E+00 0. -1.
          1   -1    0    0  501    0 -0.00000000000E+00 -0.00000000000E+00 -0.79893547993E+03  0.79893547993E+03  0.00000000000E+00 0. -1.
         25    2    1    2    0    0 -0.55618001581E+02  0.71924419292E+02 -0.27872985932E+03  0.31871671548E+03  0.12499410409E+03 0.  0.
          2    1    1    2  501    0  0.10475377874E+02 -0.41087960715E+02 -0.49675437601E+03  0.49856079282E+03  0.00000000000E+00 0. -1.
          1    1    1    2  502    0  0.45142623708E+02 -0.30836458577E+02  0.28993092336E+03  0.29504013959E+03  0.00000000000E+00 0. -1.
         22    1    3    3    0    0 -0.56505185050E+02  0.62048441421E+02 -0.29104679592E+03  0.30290441138E+03  0.00000000000E+00 0. -1.
         22    1    3    3    0    0  0.88718346894E+00  0.98759778707E+01  0.12316936603E+02  0.15812304092E+02  0.00000000000E+00 0. -1.
</event>
<event>
 7    1  0.6140348E-006  0.9468074E+02  0.7818608E-02  0.1357830E+00
          2   -1    0    0  502    0  0.00000000000E+00  0.00000000000E+00  0.63222775293E+02  0.63222775293E+02  0.00000000000E+00 0. -1.
          1   -1    0    0  501    0 -0.00000000000E+00 -0.00000000000E+00 -0.16976598071E+04  0.16976598071E+04  0.00000000000E+00 0. -1.
         25    2    1    2    0    0  0.84965327390E+01 -0.43205974203E+02 -0.61257860953E+02  0.14600050047E+03  0.12499869333E+03 0.  0.
          2    1    1    2  501    0 -0.26827465091E+02  0.92666333481E+02 -0.15566048256E+04  0.15595914033E+04  0.00000000000E+00 0. -1.
          1    1    1    2  502    0  0.18330932352E+02 -0.49460359279E+02 -0.16574345280E+02  0.55290678621E+02  0.00000000000E+00 0. -1.
         22    1    3    3    0    0 -0.22419421958E+02  0.21686805167E+02 -0.66985379283E+02  0.73891738625E+02  0.00000000000E+00 0. -1.
         22    1    3    3    0    0  0.30915954697E+02 -0.64892779369E+02  0.57275183300E+01  0.72108761848E+02  0.00000000000E+00 0. -1.
</event>
<event>
 7    1  0.6140348E-006  0.1441225E+03  0.7818608E-02  0.1301282E+00
          2   -1    0    0  502    0  0.00000000000E+00  0.00000000000E+00  0.59226026724E+03  0.59226026724E+03  0.00000000000E+00 0. -1.
          1   -1    0    0  501    0 -0.00000000000E+00 -0.00000000000E+00 -0.94790232984E+03  0.94790232984E+03  0.00000000000E+00 0. -1.
         25    2    1    2    0    0  0.47652318147E+02  0.12634065258E+03  0.47892104750E+02  0.19013888692E+03  0.12500575468E+03 0.  0.
          2    1    1    2  501    0 -0.53155629461E+02  0.20630319625E+02 -0.86439010706E+03  0.86626865822E+03  0.00000000000E+00 0. -1.
          1    1    1    2  502    0  0.55033113138E+01 -0.14697097221E+03  0.46085593971E+03  0.48375505194E+03  0.00000000000E+00 0. -1.
         22    1    3    3    0    0 -0.12939380547E+02  0.11464799295E+03  0.59579361172E+01  0.11552959301E+03  0.00000000000E+00 0. -1.
         22    1    3    3    0    0  0.60591698694E+02  0.11692659627E+02  0.41934168633E+02  0.74609293916E+02  0.00000000000E+00 0. -1.
</event>
<event>
 7    1  0.6140348E-006  0.3997365E+02  0.7818608E-02  0.1578456E+00
          2   -1    0    0  502    0  0.00000000000E+00  0.00000000000E+00  0.90763296914E+03  0.90763296914E+03  0.00000000000E+00 0. -1.
          1   -1    0    0  501    0 -0.00000000000E+00 -0.00000000000E+00 -0.17060736835E+02  0.17060736835E+02  0.00000000000E+00 0. -1.
         25    2    1    2    0    0 -0.27116945375E+02 -0.90752025170E+00  0.67629735256E+03  0.68828717877E+03  0.12499991626E+03 0.  0.
          2    1    1    2  501    0 -0.15296403128E+02  0.20256961036E+02  0.10673681662E+02  0.27536374113E+02  0.00000000000E+00 0. -1.
          1    1    1    2  502    0  0.42413348503E+02 -0.19349440785E+02  0.20360119808E+03  0.20887015309E+03  0.00000000000E+00 0. -1.
         22    1    3    3    0    0  0.26696753197E+02 -0.42321936124E+02  0.16271720076E+03  0.17023733531E+03  0.00000000000E+00 0.  1.
         22    1    3    3    0    0 -0.53813698572E+02  0.41414415872E+02  0.51358015179E+03  0.51804984346E+03  0.00000000000E+00 0.  1.
</event>
<event>
 7    1  0.6140348E-006  0.1462213E+03  0.7818608E-02  0.1235059E+00
          2   -1    0    0  502    0  0.00000000000E+00  0.00000000000E+00  0.16238048985E+04  0.16238048985E+04  0.00000000000E+00 0. -1.
          1   -1    0    0  501    0 -0.00000000000E+00 -0.00000000000E+00 -0.53639304199E+02  0.53639304199E+02  0.00000000000E+00 0. -1.
         25    2    1    2    0    0  0.42501680610E+02 -0.12058581099E+02  0.27078803804E+03  0.30150136882E+03  0.12500044649E+03 0.  0.
          2    1    1    2  501    0 -0.11879692245E+03 -0.11267997222E+03  0.16597195206E+03  0.23314410521E+03  0.00000000000E+00 0. -1.
          1    1    1    2  502    0  0.76295241839E+02  0.12473855332E+03  0.11334056042E+04  0.11427987287E+04  0.00000000000E+00 0. -1.
         22    1    3    3    0    0  0.50136564203E+02  0.95954071561E+01  0.29166654174E+02  0.58791501293E+02  0.00000000000E+00 0.  1.
         22    1    3    3    0    0 -0.76348835927E+01 -0.21653988255E+02  0.24162138386E+03  0.24270986753E+03  0.00000000000E+00 0.  1.
</event>
<event>
 7    1  0.6140348E-006  0.9574389E+02  0.7818608E-02  0.1309538E+00
          2   -1    0    0  502    0  0.00000000000E+00  0.00000000000E+00  0.33768512065E+03  0.33768512065E+03  0.00000000000E+00 0. -1.
          1   -1    0    0  501    0 -0.00000000000E+00 -0.00000000000E+00 -0.56043587916E+03  0.56043587916E+03  0.00000000000E+00 0. -1.
         25    2    1    2    0    0  0.32044706317E+02 -0.43225678573E+02 -0.14647433855E+03  0.19993643995E+03  0.12499810268E+03 0.  0.
          2    1    1    2  501    0  0.81459461079E+01  0.11192448289E+03 -0.37375696661E+03  0.39024058784E+03  0.00000000000E+00 0. -1.
          1    1    1    2  502    0 -0.40190652425E+02 -0.68698804316E+02  0.29748054666E+03  0.30794397202E+03  0.00000000000E+00 0. -1.
         22    1    3    3    0    0  0.80273311890E+02 -0.23540915788E+02 -0.83284851086E+02  0.11804382973E+03  0.00000000000E+00 0.  1.
         22    1    3    3    0    0 -0.48228605573E+02 -0.19684762785E+02 -0.63189487467E+02  0.81892610215E+02  0.00000000000E+00 0.  1.
</event>
<event>
 7    1  0.6140348E-006  0.1373762E+03  0.7818608E-02  0.1318673E+00
          2   -1    0    0  502    0  0.00000000000E+00  0.00000000000E+00  0.17079536625E+03  0.17079536625E+03  0.00000000000E+00 0. -1.
          1   -1    0    0  501    0 -0.00000000000E+00 -0.00000000000E+00 -0.50316323731E+03  0.50316323731E+03  0.00000000000E+00 0. -1.
         25    2    1    2    0    0  0.12916645489E+03  0.41511553586E+02 -0.30035316449E+03  0.35249039849E+03  0.12502110007E+03 0.  0.
          2    1    1    2  501    0 -0.14410728211E+03  0.73400909033E+01 -0.14059921091E+03  0.20146692979E+03  0.00000000000E+00 0. -1.
          1    1    1    2  502    0  0.14940827223E+02 -0.48851644489E+02  0.10858450434E+03  0.12000127528E+03  0.00000000000E+00 0. -1.
         22    1    3    3    0    0  0.14976889450E+01 -0.20377731522E+02 -0.13251925171E+00  0.20433124468E+02  0.00000000000E+00 0.  1.
         22    1    3    3    0    0  0.12766876594E+03  0.61889285108E+02 -0.30022064523E+03  0.33205727402E+03  0.00000000000E+00 0.  1.
</event>
<event>
 7    1  0.6140348E-006  0.6229602E+02  0.7818608E-02  0.1433576E+00
          2   -1    0    0  502    0  0.00000000000E+00  0.00000000000E+00  0.28941790244E+03  0.28941790244E+03  0.00000000000E+00 0. -1.
          1   -1    0    0  501    0 -0.00000000000E+00 -0.00000000000E+00 -0.89905403505E+02  0.89905403505E+02  0.00000000000E+00 0. -1.
         25    2    1    2    0    0  0.35876031093E+02  0.50991063303E+02  0.13675053082E+03  0.19548087576E+03  0.12499954785E+03 0.  0.
          2    1    1    2  501    0 -0.41268009574E+02  0.14742290867E+02 -0.41576172518E+02  0.60406637677E+02  0.00000000000E+00 0. -1.
          1    1    1    2  502    0  0.53919784812E+01 -0.65733354170E+02  0.10433814063E+03  0.12343579251E+03  0.00000000000E+00 0. -1.
         22    1    3    3    0    0  0.68440078948E+02  0.59815532416E+02  0.53067363509E+02  0.10525249353E+03  0.00000000000E+00 0. -1.
         22    1    3    3    0    0 -0.32564047856E+02 -0.88244691129E+01  0.83683167310E+02  0.90228382225E+02  0.00000000000E+00 0. -1.
</event>
<event>
 7    1  0.6140348E-006  0.1267053E+03  0.7818608E-02  0.1365374E+00
          2   -1    0    0  502    0  0.00000000000E+00  0.00000000000E+00  0.12207882923E+03  0.12207882923E+03  0.00000000000E+00 0. -1.
          1   -1    0    0  501    0 -0.00000000000E+00 -0.00000000000E+00 -0.23217399961E+04  0.23217399961E+04  0.00000000000E+00 0. -1.
         25    2    1    2    0    0 -0.81926094064E+02  0.59062437677E+02  0.70021356674E+01  0.16084772891E+03  0.12499082190E+03 0.  0.
          2    1    1    2  501    0  0.83598881248E+02 -0.96025234205E+02 -0.22335863258E+04  0.22372119911E+04  0.00000000000E+00 0. -1.
          1    1    1    2  502    0 -0.16727871839E+01  0.36962796528E+02  0.26923023189E+02  0.45759105343E+02  0.00000000000E+00 0. -1.
         22    1    3    3    0    0 -0.17106057835E+00  0.13961693292E+02  0.54380866064E+02  0.56144783686E+02  0.00000000000E+00 0. -1.
         22    1    3    3    0    0 -0.81755033486E+02  0.45100744385E+02 -0.47378730396E+02  0.10470294522E+03  0.00000000000E+00 0. -1.
</event>
<event>
 7    1  0.7985615E-006  0.8101016E+02  0.7818608E-02  0.1384908E+00
          2   -1    0    0  502    0  0.00000000000E+00  0.00000000000E+00  0.11848229701E+04  0.11848229701E+04  0.00000000000E+00 0. -1.
          1   -1    0    0  501    0 -0.00000000000E+00 -0.00000000000E+00 -0.56549648329E+03  0.56549648329E+03  0.00000000000E+00 0. -1.
         25    2    1    2    0    0  0.49575630353E+02 -0.27931217991E+02 -0.47089209071E+02  0.14519154959E+03  0.12500118558E+03 0.  0.
          2    1    1    2  501    0 -0.16301832287E+02 -0.46517785377E+02 -0.46659251543E+03  0.46918890603E+03  0.00000000000E+00 0. -1.
          1    1    1    2  502    0 -0.33273798066E+02  0.74449003369E+02  0.11330082113E+04  0.11359389978E+04  0.00000000000E+00 0. -1.
         22    1    3    3    0    0 -0.42311054858E+02 -0.53578332663E+01 -0.16869440642E+02  0.45864035672E+02  0.00000000000E+00 0. -1.
         22    1    3    3    0    0  0.91886685211E+02 -0.22573384725E+02 -0.30219768430E+02  0.99327513917E+02  0.00000000000E+00 0. -1.
</event>
<event>
 7    1  0.6140348E-006  0.5056951E+02  0.7818608E-02  0.1519520E+00
          2   -1    0    0  502    0  0.00000000000E+00  0.00000000000E+00  0.34954065461E+03  0.34954065461E+03  0.00000000000E+00 0. -1.
          1   -1    0    0  501    0 -0.00000000000E+00 -0.00000000000E+00 -0.51298957552E+03  0.51298957552E+03  0.00000000000E+00 0. -1.
         25    2    1    2    0    0  0.51335490209E+02 -0.19140145449E+02 -0.16449855532E+03  0.21374558999E+03  0.12500289922E+03 0.  0.
          2    1    1    2  501    0 -0.31029244725E+02  0.40285626823E+02 -0.32120200391E+03  0.32520220336E+03  0.00000000000E+00 0. -1.
          1    1    1    2  502    0 -0.20306245483E+02 -0.21145481374E+02  0.32225163832E+03  0.32358243678E+03  0.00000000000E+00 0. -1.
         22    1    3    3    0    0 -0.32409868317E+02 -0.38436934652E+02 -0.67227541418E+02  0.83948435571E+02  0.00000000000E+00 0. -1.
         22    1    3    3    0    0  0.83745358526E+02  0.19296789202E+02 -0.97271013906E+02  0.12979715442E+03  0.00000000000E+00 0. -1.
</event>
<event>
 7    1  0.6140348E-006  0.1512167E+03  0.7818608E-02  0.1241979E+00
          2   -1    0    0  502    0  0.00000000000E+00  0.00000000000E+00  0.40876550036E+03  0.40876550036E+03  0.00000000000E+00 0. -1.
          1   -1    0    0  501    0 -0.00000000000E+00 -0.00000000000E+00 -0.15821245579E+04  0.15821245579E+04  0.00000000000E+00 0. -1.
         25    2    1    2    0    0  0.94798404403E+02  0.50412136430E+02 -0.52097528259E+03  0.54641485693E+03  0.12500331925E+03 0.  0.
          2    1    1    2  501    0 -0.18309031002E+03 -0.11938748368E+02 -0.10343790625E+04  0.10505258875E+04  0.00000000000E+00 0. -1.
          1    1    1    2  502    0  0.88291905617E+02 -0.38473388062E+02  0.38199528754E+03  0.39394931386E+03  0.00000000000E+00 0. -1.
         22    1    3    3    0    0 -0.14932950017E+01  0.11408088142E+02 -0.31971355087E+03  0.31992050422E+03  0.00000000000E+00 0. -1.
         22    1    3    3    0    0  0.96291699404E+02  0.39004048287E+02 -0.20126173172E+03  0.22649435271E+03  0.00000000000E+00 0. -1.
</event>
<event>
 7    1  0.6140348E-006  0.4277293E+02  0.7818608E-02  0.1526481E+00
          2   -1    0    0  502    0  0.00000000000E+00  0.00000000000E+00  0.19116126454E+03  0.19116126454E+03  0.00000000000E+00 0. -1.
          1   -1    0    0  501    0 -0.00000000000E+00 -0.00000000000E+00 -0.52740880921E+03  0.52740880921E+03  0.00000000000E+00 0. -1.
         25    2    1    2    0    0  0.17186284910E+02 -0.12405732927E+01 -0.90201957825E+02  0.15510703649E+03  0.12499956865E+03 0.  0.
          2    1    1    2  501    0  0.16644136086E+02  0.28600147725E+02 -0.40107813304E+03  0.40244088326E+03  0.00000000000E+00 0. -1.
          1    1    1    2  502    0 -0.33830420997E+02 -0.27359574433E+02  0.15503254620E+03  0.16102215400E+03  0.00000000000E+00 0. -1.
         22    1    3    3    0    0 -0.25196471933E+02  0.13165758503E+02  0.20927205561E+02  0.35300811994E+02  0.00000000000E+00 0. -1.
         22    1    3    3    0    0  0.42382756844E+02 -0.14406331796E+02 -0.11112916339E+03  0.11980622450E+03  0.00000000000E+00 0. -1.
</event>
<event>
 7    1  0.6140348E-006  0.1074726E+03  0.7818608E-02  0.1327041E+00
          2   -1    0    0  502    0  0.00000000000E+00  0.00000000000E+00  0.89227337241E+02  0.89227337241E+02  0.00000000000E+00 0. -1.
          1   -1    0    0  501    0 -0.00000000000E+00 -0.00000000000E+00 -0.18055686325E+04  0.18055686325E+04  0.00000000000E+00 0. -1.
         25    2    1    2    0    0 -0.13686782698E+03  0.81265096973E+02 -0.73899314357E+03  0.76620631334E+03  0.12499772122E+03 0.  0.
          2    1    1    2  501    0  0.59820549428E+02 -0.97873806891E+01 -0.10151073617E+04  0.10169155554E+04  0.00000000000E+00 0. -1.
          1    1    1    2  502    0  0.77047277548E+02 -0.71477716284E+02  0.37759210012E+02  0.11167410104E+03  0.00000000000E+00 0. -1.
         22    1    3    3    0    0 -0.12682840749E+03  0.65500998389E+01 -0.46630803050E+03  0.48329238362E+03  0.00000000000E+00 0.  1.
         22    1    3    3    0    0 -0.10039419488E+02  0.74714997135E+02 -0.27268511307E+03  0.28291392972E+03  0.00000000000E+00 0.  1.
</event>
<event>
 7    1  0.6140348E-006  0.3132179E+03  0.7818608E-02  0.1195996E+00
          2   -1    0    0  502    0  0.00000000000E+00  0.00000000000E+00  0.35216440261E+04  0.35216440261E+04  0.00000000000E+00 0. -1.
          1   -1    0    0  501    0 -0.00000000000E+00 -0.00000000000E+00 -0.38496211388E+03  0.38496211388E+03  0.00000000000E+00 0. -1.
         25    2    1    2    0    0 -0.17496960974E+03 -0.31040123497E+03  0.60179774564E+03  0.71045688240E+03  0.12500065637E+03 0.  0.
          2    1    1    2  501    0 -0.19938081572E+02  0.72741503157E+02 -0.31796613091E+03  0.32678940280E+03  0.00000000000E+00 0. -1.
          1    1    1    2  502    0  0.19490769131E+03  0.23765973181E+03  0.28528502975E+04  0.28693598548E+04  0.00000000000E+00 0. -1.
         22    1    3    3    0    0 -0.21129880810E+02 -0.50911623699E+02  0.20338697512E+03  0.21072429129E+03  0.00000000000E+00 0. -1.
         22    1    3    3    0    0 -0.15383972893E+03 -0.25948961127E+03  0.39841077052E+03  0.49973259111E+03  0.00000000000E+00 0. -1.
</event>
<event>
 7    1  0.6140348E-006  0.3883295E+02  0.7818608E-02  0.1553140E+00
          2   -1    0    0  502    0  0.00000000000E+00  0.00000000000E+00  0.49026848428E+03  0.49026848428E+03  0.00000000000E+00 0. -1.
          1   -1    0    0  501    0 -0.00000000000E+00 -0.00000000000E+00 -0.46741007867E+03  0.46741007867E+03  0.00000000000E+00 0. -1.
         25    2    1    2    0    0  0.43926111893E+02 -0.52470969332E+02 -0.25983394369E+03  0.29634783424E+03  0.12500261852E+03 0.  0.
          2    1    1    2  501    0 -0.23701965835E+02  0.19417033754E+02 -0.18727682339E+03  0.18976673303E+03  0.00000000000E+00 0. -1.
          1    1    1    2  502    0 -0.20224146058E+02  0.33053935578E+02  0.46996917269E+03  0.47156399568E+03  0.00000000000E+00 0. -1.
         22    1    3    3    0    0 -0.34817628353E+02 -0.23694294467E+01 -0.23022100507E+02  0.41807876671E+02  0.00000000000E+00 0. -1.
         22    1    3    3    0    0  0.78743740246E+02 -0.50101539885E+02 -0.23681184318E+03  0.25453995756E+03  0.00000000000E+00 0. -1.
</event>
<event>
 7    1  0.6140348E-006  0.2097516E+03  0.7818608E-02  0.1187586E+00
          2   -1    0    0  502    0  0.00000000000E+00  0.00000000000E+00  0.90254933594E+03  0.90254933594E+03  0.00000000000E+00 0. -1.
          1   -1    0    0  501    0 -0.00000000000E+00 -0.00000000000E+00 -0.66548542346E+03  0.66548542346E+03  0.00000000000E+00 0. -1.
         25    2    1    2    0    0 -0.11178560502E+03  0.18673438900E+02 -0.26779986928E+03  0.31652247993E+03  0.12499996601E+03 0.  0.
          2    1    1    2  501    0 -0.93783699219E+02 -0.80449106352E+02 -0.34944649999E+03  0.37064848214E+03  0.00000000000E+00 0. -1.
          1    1    1    2  502    0  0.20556930424E+03  0.61775667453E+02  0.85431028175E+03  0.88086379733E+03  0.00000000000E+00 0. -1.
         22    1    3    3    0    0 -0.13370629411E+02  0.28227800241E+02 -0.18481610324E+03  0.18743685458E+03  0.00000000000E+00 0. -1.
         22    1    3    3    0    0 -0.98414975610E+02 -0.95543613409E+01 -0.82983766037E+02  0.12908562534E+03  0.00000000000E+00 0. -1.
</event>
<event>
 7    1  0.6140348E-006  0.6560996E+02  0.7818608E-02  0.1446722E+00
          2   -1    0    0  502    0  0.00000000000E+00  0.00000000000E+00  0.28195815542E+04  0.28195815542E+04  0.00000000000E+00 0. -1.
          1   -1    0    0  501    0 -0.00000000000E+00 -0.00000000000E+00 -0.10519395701E+03  0.10519395701E+03  0.00000000000E+00 0. -1.
         25    2    1    2    0    0 -0.75822795941E+02  0.56800180962E+02  0.22242721971E+03  0.27216602314E+03  0.12500047656E+03 0.  0.
          2    1    1    2  501    0  0.60227765117E+02 -0.22459145109E+02 -0.67303627561E+02  0.93067583899E+02  0.00000000000E+00 0. -1.
          1    1    1    2  502    0  0.15595030824E+02 -0.34341035853E+02  0.25592640051E+04  0.25595419042E+04  0.00000000000E+00 0. -1.
         22    1    3    3    0    0 -0.29659818918E+02 -0.13305268305E+02 -0.19861908622E+01  0.32568082183E+02  0.00000000000E+00 0. -1.
         22    1    3    3    0    0 -0.46162977023E+02  0.70105449267E+02  0.22441341057E+03  0.23959794095E+03  0.00000000000E+00 0. -1.
</event>
<event>
 7    1  0.6140348E-006  0.1960047E+03  0.7818608E-02  0.1198989E+00
          2   -1    0    0  502    0  0.00000000000E+00  0.00000000000E+00  0.18850302318E+04  0.18850302318E+04  0.00000000000E+00 0. -1.
          1   -1    0    0  501    0 -0.00000000000E+00 -0.00000000000E+00 -0.52601281154E+03  0.52601281154E+03  0.00000000000E+00 0. -1.
         25    2    1    2    0    0  0.39151160399E+02  0.12533890471E+03 -0.19040316650E+02  0.18229033319E+03  0.12499831008E+03 0.  0.
          2    1    1    2  501    0 -0.14848780802E+03 -0.16601753379E+03 -0.39413889332E+03  0.45272057373E+03  0.00000000000E+00 0. -1.
          1    1    1    2  502    0  0.10933664762E+03  0.40678629083E+02  0.17721966302E+04  0.17760321364E+04  0.00000000000E+00 0. -1.
         22    1    3    3    0    0  0.79147694633E+02  0.88480834466E+02 -0.38066797826E+02  0.12466874801E+03  0.00000000000E+00 0.  1.
         22    1    3    3    0    0 -0.39996534235E+02  0.36858070239E+02  0.19026481175E+02  0.57621585178E+02  0.00000000000E+00 0.  1.
</event>
<event>
 7    1  0.6140348E-006  0.5818354E+02  0.7818608E-02  0.1432102E+00
          2   -1    0    0  502    0  0.00000000000E+00  0.00000000000E+00  0.12683369743E+04  0.12683369743E+04  0.00000000000E+00 0. -1.
          1   -1    0    0  501    0 -0.00000000000E+00 -0.00000000000E+00 -0.74346016706E+03  0.74346016706E+03  0.00000000000E+00 0. -1.
         25    2    1    2    0    0 -0.32284102888E+01  0.66265639658E+02  0.20860510131E+03  0.25208291541E+03  0.12501260064E+03 0.  0.
          2    1    1    2  501    0  0.41887217108E+02 -0.22281189667E+02 -0.72011410940E+03  0.72167535702E+03  0.00000000000E+00 0. -1.
          1    1    1    2  502    0 -0.38658806819E+02 -0.43984449991E+02  0.10363858153E+04  0.10380388689E+04  0.00000000000E+00 0. -1.
         22    1    3    3    0    0 -0.51584330595E+02  0.85354017344E+01  0.14281717158E+03  0.15208728002E+03  0.00000000000E+00 0.  1.
         22    1    3    3    0    0  0.48355920306E+02  0.57730237923E+02  0.65787929732E+02  0.99995635394E+02  0.00000000000E+00 0.  1.
</event>
<event>
 7    1  0.6140348E-006  0.3035258E+02  0.7818608E-02  0.1659926E+00
          2   -1    0    0  502    0  0.00000000000E+00  0.00000000000E+00  0.49861167021E+02  0.49861167021E+02  0.00000000000E+00 0. -1.
          1   -1    0    0  501    0 -0.00000000000E+00 -0.00000000000E+00 -0.10723485936E+04  0.10723485936E+04  0.00000000000E+00 0. -1.
         25    2    1    2    0    0 -0.40961021220E+02 -0.27650739480E+02 -0.64292054691E+03  0.65682031138E+03  0.12499489248E+03 0.  0.
          2    1    1    2  501    0  0.22458308303E+02  0.18335860286E+02 -0.41944823428E+03  0.42044904641E+03  0.00000000000E+00 0. -1.
          1    1    1    2  502    0  0.18502712917E+02  0.93148791938E+01  0.39881354621E+02  0.44940402825E+02  0.00000000000E+00 0. -1.
         22    1    3    3    0    0  0.18242592433E+02 -0.67731782770E+00 -0.49365818630E+03  0.49399560305E+03  0.00000000000E+00 0. -1.
         22    1    3    3    0    0 -0.59203613653E+02 -0.26973421653E+02 -0.14926236061E+03  0.16282470833E+03  0.00000000000E+00 0. -1.
</event>
<event>
 7    1  0.6140348E-006  0.7174975E+02  0.7818608E-02  0.1396088E+00
          2   -1    0    0  502    0  0.00000000000E+00  0.00000000000E+00  0.22359216419E+04  0.22359216419E+04  0.00000000000E+00 0. -1.
          1   -1    0    0  501    0 -0.00000000000E+00 -0.00000000000E+00 -0.20120413981E+03  0.20120413981E+03  0.00000000000E+00 0. -1.
         25    2    1    2    0    0  0.10565462048E+03 -0.12568222248E+02 -0.17651113672E+02  0.16508014642E+03  0.12497613327E+03 0.  0.
          2    1    1    2  501    0 -0.37479510650E+02  0.34403114860E+02 -0.10332120006E+03  0.11516752325E+03  0.00000000000E+00 0. -1.
          1    1    1    2  502    0 -0.68175109831E+02 -0.21834892612E+02  0.21556898158E+04  0.21568781121E+04  0.00000000000E+00 0. -1.
         22    1    3    3    0    0  0.46800561995E+02 -0.11054359444E+02  0.54023554739E+02  0.72325900840E+02  0.00000000000E+00 0. -1.
         22    1    3    3    0    0  0.58854058487E+02 -0.15138628042E+01 -0.71674668411E+02  0.92754245578E+02  0.00000000000E+00 0. -1.
</event>
<event>
 7    1  0.6140348E-006  0.1893347E+03  0.7818608E-02  0.1250000E+00
          2   -1    0    0  502    0  0.00000000000E+00  0.00000000000E+00  0.17391213044E+04  0.17391213044E+04  0.00000000000E+00 0. -1.
          1   -1    0    0  501    0 -0.00000000000E+00 -0.00000000000E+00 -0.90577125188E+03  0.90577125188E+03  0.00000000000E+00 0. -1.
         25    2    1    2    0    0 -0.13950590325E+03  0.42411851652E+02 -0.28693467416E+03  0.34527889530E+03  0.12500138440E+03 0.  0.
          2    1    1    2  501    0 -0.14275150775E+02  0.69509366863E+02 -0.58221472494E+03  0.58652307538E+03  0.00000000000E+00 0. -1.
          1    1    1    2  502    0  0.15378105403E+03 -0.11192121852E+03  0.17024994516E+04  0.17130905856E+04  0.00000000000E+00 0. -1.
         22    1    3    3    0    0 -0.69227971426E+02 -0.42410159345E+02 -0.10716439112E+03  0.13444456243E+03  0.00000000000E+00 0. -1.
         22    1    3    3    0    0 -0.70277931828E+02  0.84822010997E+02 -0.17977028303E+03  0.21083433286E+03  0.00000000000E+00 0. -1.
</event>
<event>
 7    1  0.6140348E-006  0.2908134E+02  0.7818608E-02  0.1631365E+00
          2   -1    0    0  502    0  0.00000000000E+00  0.00000000000E+00  0.11646397058E+04  0.11646397058E+04  0.00000000000E+00 0. -1.
          1   -1    0    0  501    0 -0.00000000000E+00 -0.00000000000E+00 -0.66568830838E+03  0.66568830838E+03  0.00000000000E+00 0. -1.
         25    2    1    2    0    0 -0.10102973962E+02 -0.19645037308E+02 -0.13325517587E+01  0.12694334577E+03  0.12499935906E+03 0.  0.
          2    1    1    2  501    0  0.29053697081E+02  0.26917488181E+01 -0.60104970872E+03  0.60175752191E+03  0.00000000000E+00 0. -1.
          1    1    1    2  502    0 -0.18950723120E+02  0.16953288490E+02  0.11013336578E+04  0.11016271465E+04  0.00000000000E+00 0. -1.
         22    1    3    3    0    0 -0.44768385514E+02 -0.53038022238E+02  0.22858015284E+02  0.73073449400E+02  0.00000000000E+00 0. -1.
         22    1    3    3    0    0  0.34665411552E+02  0.33392984930E+02 -0.24190567043E+02  0.53869896366E+02  0.00000000000E+00 0. -1.
</event>
<event>
 7    1  0.1038712E-005  0.7133789E+02  0.7818608E-02  0.1373875E+00
          2   -1    0    0  502    0  0.00000000000E+00  0.00000000000E+00  0.52325873599E+03  0.52325873599E+03  0.00000000000E+00 0. -1.
          1   -1    0    0  501    0 -0.00000000000E+00 -0.00000000000E+00 -0.16618891945E+04  0.16618891945E+04  0.00000000000E+00 0. -1.
         25    2    1    2    0    0  0.22015792757E+02  0.21418619665E+02 -0.46273130281E+03  0.48029923033E+03  0.12499455850E+03 0.  0.
          2    1    1    2  501    0 -0.22207446515E+00 -0.78660035120E+02 -0.11872448323E+04  0.11898477811E+04  0.00000000000E+00 0. -1.
          1    1    1    2  502    0 -0.21793718292E+02  0.57241415455E+02  0.51134567651E+03  0.51500091911E+03  0.00000000000E+00 0. -1.
         22    1    3    3    0    0  0.65678772679E+02 -0.13509771450E+02 -0.32117346212E+03  0.32809847283E+03  0.00000000000E+00 0. -1.
         22    1    3    3    0    0 -0.43662979922E+02  0.34928391114E+02 -0.14155784070E+03  0.15220075750E+03  0.00000000000E+00 0. -1.
</event>
<event>
 7    1  0.6140348E-006  0.5590277E+02  0.7818608E-02  0.1428398E+00
          2   -1    0    0  502    0  0.00000000000E+00  0.00000000000E+00  0.95276511065E+02  0.95276511065E+02  0.00000000000E+00 0. -1.
          1   -1    0    0  501    0 -0.00000000000E+00 -0.00000000000E+00 -0.98912744645E+03  0.98912744645E+03  0.00000000000E+00 0. -1.
         25    2    1    2    0    0 -0.20711100469E+02 -0.17423627206E+02 -0.33269614678E+02  0.13215324475E+03  0.12500032148E+03 0.  0.
          2    1    1    2  501    0 -0.13331563700E+02  0.55110318939E+02 -0.89116508881E+03  0.89296701695E+03  0.00000000000E+00 0. -1.
          1    1    1    2  502    0  0.34042664169E+02 -0.37686691733E+02  0.30583768106E+02  0.59283695811E+02  0.00000000000E+00 0. -1.
         22    1    3    3    0    0  0.25043046967E+02  0.44404599097E+02 -0.13459652537E+02  0.52726510114E+02  0.00000000000E+00 0. -1.
         22    1    3    3    0    0 -0.45754147436E+02 -0.61828226303E+02 -0.19809962141E+02  0.79426734639E+02  0.00000000000E+00 0. -1.
</event>
<event>
 7    1  0.6140348E-006  0.1004269E+03  0.7818608E-02  0.1321545E+00
          2   -1    0    0  502    0  0.00000000000E+00  0.00000000000E+00  0.51254104721E+03  0.51254104721E+03  0.00000000000E+00 0. -1.
          1   -1    0    0  501    0 -0.00000000000E+00 -0.00000000000E+00 -0.33105391279E+03  0.33105391279E+03  0.00000000000E+00 0. -1.
         25    2    1    2    0    0 -0.13575821691E+02  0.34527079835E+02  0.24890148803E+03  0.28098573764E+03  0.12499844733E+03 0.  0.
          2    1    1    2  501    0  0.66878136726E+01 -0.10228854461E+03 -0.30169230073E+03  0.31863131913E+03  0.00000000000E+00 0. -1.
          1    1    1    2  502    0  0.68880080184E+01  0.67761464773E+02  0.23427794712E+03  0.24397790324E+03  0.00000000000E+00 0. -1.
         22    1    3    3    0    0 -0.47892945072E+02 -0.27945163091E+02  0.14258227910E+03  0.15298487717E+03  0.00000000000E+00 0. -1.
         22    1    3    3    0    0  0.34317123381E+02  0.62472242926E+02  0.10631920893E+03  0.12800086047E+03  0.00000000000E+00 0. -1.
</event>
<event>
 7    1  0.6140348E-006  0.8964140E+02  0.7818608E-02  0.1391597E+00
          2   -1    0    0  502    0  0.00000000000E+00  0.00000000000E+00  0.25032547937E+04  0.25032547937E+04  0.00000000000E+00 0. -1.
          1   -1    0    0  501    0 -0.00000000000E+00 -0.00000000000E+00 -0.22135944672E+03  0.22135944672E+03  0.00000000000E+00 0. -1.
         25    2    1    2    0    0 -0.32606437991E+01 -0.13013461618E+03  0.25588720796E+03  0.31312110631E+03  0.12498365450E+03 0.  0.
          2    1    1    2  501    0 -0.39104558894E+01  0.42026984076E+02 -0.18953966416E+03  0.19418250011E+03  0.00000000000E+00 0. -1.
          1    1    1    2  502    0  0.71710996886E+01  0.88107632100E+02  0.22155478032E+04  0.22173106340E+04  0.00000000000E+00 0. -1.
         22    1    3    3    0    0 -0.55934859483E+02 -0.81849322232E+02  0.19695550356E+03  0.22049827763E+03  0.00000000000E+00 0.  1.
         22    1    3    3    0    0  0.52674215684E+02 -0.48285293944E+02  0.58931704404E+02  0.92622828682E+02  0.00000000000E+00 0.  1.
</event>
<event>
 7    1  0.6140348E-006  0.6792462E+02  0.7818608E-02  0.1393294E+00
          2   -1    0    0  502    0  0.00000000000E+00  0.00000000000E+00  0.16528388478E+03  0.16528388478E+03  0.00000000000E+00 0. -1.
          1   -1    0    0  501    0 -0.00000000000E+00 -0.00000000000E+00 -0.73928182926E+03  0.73928182926E+03  0.00000000000E+00 0. -1.
         25    2    1    2    0    0 -0.15788223907E+01 -0.46996034510E+02  0.41551159874E+02  0.13986641740E+03  0.12499998356E+03 0.  0.
          2    1    1    2  501    0 -0.53233867955E+02 -0.13632112861E+02 -0.66625391487E+03  0.66851623636E+03  0.00000000000E+00 0. -1.
          1    1    1    2  502    0  0.54812690346E+02  0.60628147371E+02  0.50704810506E+02  0.96183060282E+02  0.00000000000E+00 0. -1.
         22    1    3    3    0    0  0.49807347464E+02 -0.45000654247E+02  0.54922840748E+02  0.86731477445E+02  0.00000000000E+00 0.  1.
         22    1    3    3    0    0 -0.51386169854E+02 -0.19953802629E+01 -0.13371680874E+02  0.53134939956E+02  0.00000000000E+00 0.  1.
</event>
<event>
 7    1  0.6140348E-006  0.1283827E+03  0.7818608E-02  0.1263122E+00
          2   -1    0    0  502    0  0.00000000000E+00  0.00000000000E+00  0.57877060409E+02  0.57877060409E+02  0.00000000000E+00 0. -1.
          1   -1    0    0  501    0 -0.00000000000E+00 -0.00000000000E+00 -0.22670291375E+04  0.22670291375E+04  0.00000000000E+00 0. -1.
         25    2    1    2    0    0 -0.19045890380E+03 -0.40492424392E+02 -0.60515958715E+03  0.64788714325E+03  0.12500157602E+03 0.  0.
          2    1    1    2  501    0  0.89177997383E+02 -0.22291943845E+02 -0.15381145340E+04  0.15408588403E+04  0.00000000000E+00 0. -1.
          1    1    1    2  502    0  0.10128090642E+03  0.62784368237E+02 -0.65877955959E+02  0.13616021438E+03  0.00000000000E+00 0. -1.
         22    1    3    3    0    0 -0.53062046054E+01 -0.31538762335E+02 -0.30979448769E+02  0.44526122478E+02  0.00000000000E+00 0. -1.
         22    1    3    3    0    0 -0.18515269920E+03 -0.89536620569E+01 -0.57418013838E+03  0.60336102077E+03  0.00000000000E+00 0. -1.
</event>
<event>
 7    1  0.6140348E-006  0.5411219E+02  0.7818608E-02  0.1508130E+00
          2   -1    0    0  502    0  0.00000000000E+00  0.00000000000E+00  0.23674516641E+03  0.23674516641E+03  0.00000000000E+00 0. -1.
          1   -1    0    0  501    0 -0.00000000000E+00 -0.00000000000E+00 -0.58466608184E+03  0.58466608184E+03  0.00000000000E+00 0. -1.
         25    2    1    2    0    0 -0.26350198555E+02 -0.78348067220E+02 -0.13876281262E+03  0.20423770959E+03  0.12500068500E+03 0.  0.
          2    1    1    2  501    0  0.13277142361E+02  0.26437845818E+02 -0.40911085323E+03  0.41017914675E+03  0.00000000000E+00 0. -1.
          1    1    1    2  502    0  0.13073056195E+02  0.51910221402E+02  0.19995275041E+03  0.20699439191E+03  0.00000000000E+00 0. -1.
         22    1    3    3    0    0 -0.79787914377E+01  0.40049866628E+00  0.22478480759E+02  0.23855892548E+02  0.00000000000E+00 0.  1.
         22    1    3    3    0    0 -0.18371407118E+02 -0.78748565886E+02 -0.16124129337E+03  0.18038181704E+03  0.00000000000E+00 0.  1.
</event>
<event>
 7    1  0.6140348E-006  0.1684261E+03  0.7818608E-02  0.1383513E+00
          2   -1    0    0  502    0  0.00000000000E+00  0.00000000000E+00  0.13878271177E+04  0.13878271177E+04  0.00000000000E+00 0. -1.
          1   -1    0    0  501    0 -0.00000000000E+00 -0.00000000000E+00 -0.42959020439E+03  0.42959020439E+03  0.00000000000E+00 0. -1.
         25    2    1    2    0    0 -0.13960403203E+03  0.65896705515E+02  0.10847860194E+04  0.11028218308E+04  0.12499448429E+03 0.  0.
          2    1    1    2  501    0  0.14285907921E+03 -0.89652701006E+02 -0.40312339572E+03  0.43698374739E+03  0.00000000000E+00 0. -1.
          1    1    1    2  502    0 -0.32550471774E+01  0.23755995491E+02  0.27657428961E+03  0.27761174386E+03  0.00000000000E+00 0. -1.
         22    1    3    3    0    0 -0.84434268601E+02  0.98800429295E+02  0.60854936448E+03  0.62227244801E+03  0.00000000000E+00 0.  1.
         22    1    3    3    0    0 -0.55169763427E+02 -0.32903723780E+02  0.47623665494E+03  0.48054938284E+03  0.00000000000E+00 0.  1.
</event>
<event>
 7    1  0.6140348E-006  0.1282231E+03  0.7818608E-02  0.1299371E+00
          2   -1    0    0  502    0  0.00000000000E+00  0.00000000000E+00  0.20545329987E+04  0.20545329987E+04  0.00000000000E+00 0. -1.
          1   -1    0    0  501    0 -0.00000000000E+00 -0.00000000000E+00 -0.23797441180E+03  0.23797441180E+03  0.00000000000E+00 0. -1.
         25    2    1    2    0    0  0.88368299139E+02  0.14475731643E+03  0.69230608169E+02  0.22177014155E+03  0.12500192648E+03 0.  0.
          2    1    1    2  501    0 -0.28279337581E+02 -0.11938231338E+03 -0.13778852232E+03  0.18449264095E+03  0.00000000000E+00 0. -1.
          1    1    1    2  502    0 -0.60088961558E+02 -0.25375003047E+02  0.18851165010E+04  0.18862446280E+04  0.00000000000E+00 0. -1.
         22    1    3    3    0    0 -0.99662400850E+01  0.12481553723E+01 -0.22833094323E+02  0.24944619252E+02  0.00000000000E+00 0. -1.
         22    1    3    3    0    0  0.98334539224E+02  0.14350916106E+03  0.92063702492E+02  0.19682552230E+03  0.00000000000E+00 0. -1.
</event>
<event>
 7    1  0.6140348E-006  0.6148784E+02  0.7818608E-02  0.1410034E+00
          2   -1    0    0  502    0  0.00000000000E+00  0.00000000000E+00  0.45732889262E+03  0.45732889262E+03  0.00000000000E+00 0. -1.
          1   -1    0    0  501    0 -0.00000000000E+00 -0.00000000000E+00 -0.43965259500E+02  0.43965259500E+02  0.00000000000E+00 0. -1.
         25    2    1    2    0    0  0.72350168787E+02  0.49886705515E+02  0.29651105089E+03  0.33356731116E+03  0.12500046984E+03 0.  0.
          2    1    1    2  501    0 -0.59503940083E+02  0.17240812436E+01  0.32002814552E+02  0.67586030219E+02  0.00000000000E+00 0. -1.
          1    1    1    2  502    0 -0.12846228704E+02 -0.51610786758E+02  0.84849767672E+02  0.10014081074E+03  0.00000000000E+00 0. -1.
         22    1    3    3    0    0  0.91816942712E+02  0.45019176222E+02  0.29635375723E+03  0.31350060067E+03  0.00000000000E+00 0. -1.
         22    1    3    3    0    0 -0.19466773925E+02  0.48675292928E+01  0.15729366306E+00  0.20066710486E+02  0.00000000000E+00 0. -1.
</event>
<event>
 7    1  0.6140348E-006  0.7423202E+02  0.7818608E-02  0.1379232E+00
          2   -1    0    0  502    0  0.00000000000E+00  0.00000000000E+00  0.50290904214E+02  0.50290904214E+02  0.00000000000E+00 0. -1.
          1   -1    0    0  501    0 -0.00000000000E+00 -0.00000000000E+00 -0.15252462366E+04  0.15252462366E+04  0.00000000000E+00 0. -1.
         25    2    1    2    0    0 -0.25307637310E+02  0.11832246925E+01 -0.38150416424E+03  0.40225915669E+03  0.12500050113E+03 0.  0.
          2    1    1    2  501    0  0.80835302635E+02  0.83064167010E+01 -0.11112370035E+04  0.11142042096E+04  0.00000000000E+00 0. -1.
          1    1    1    2  502    0 -0.55527665325E+02 -0.94896413934E+01  0.17785835278E+02  0.59073774611E+02  0.00000000000E+00 0. -1.
         22    1    3    3    0    0 -0.54124969716E+02 -0.37192415533E+02 -0.30468026987E+03  0.31167748550E+03  0.00000000000E+00 0. -1.
         22    1    3    3    0    0  0.28817332406E+02  0.38375640225E+02 -0.76823894369E+02  0.90581671191E+02  0.00000000000E+00 0. -1.
</event>
<event>
 7    1  0.6140348E-006  0.5334874E+02  0.7818608E-02  0.1478853E+00
          2   -1    0    0  502    0  0.00000000000E+00  0.00000000000E+00  0.22678437543E+04  0.22678437543E+04  0.00000000000E+00 0. -1.
          1   -1    0    0  501    0 -0.00000000000E+00 -0.00000000000E+00 -0.38599866333E+03  0.38599866333E+03  0.00000000000E+00 0. -1.
         25    2    1    2    0    0  0.42893540583E+02  0.19837767509E+02  0.24337594713E+03  0.27765118003E+03  0.12499973315E+03 0.  0.
          2    1    1    2  501    0 -0.51031986900E+02  0.16011694333E+02 -0.36675285598E+03  0.37063229138E+03  0.00000000000E+00 0. -1.
          1    1    1    2  502    0  0.81384463177E+01 -0.35849461842E+02  0.20052219998E+04  0.20055589462E+04  0.00000000000E+00 0. -1.
         22    1    3    3    0    0 -0.22007106204E+02  0.49722115723E+02  0.60667152719E+02  0.81468429066E+02  0.00000000000E+00 0.  1.
         22    1    3    3    0    0  0.64900646787E+02 -0.29884348214E+02  0.18270879441E+03  0.19618275097E+03  0.00000000000E+00 0.  1.
</event>
<event>
 7    1  0.6140348E-006  0.7365402E+02  0.7818608E-02  0.1361613E+00
          2   -1    0    0  502    0  0.00000000000E+00  0.00000000000E+00  0.32549082953E+03  0.32549082953E+03  0.00000000000E+00 0. -1.
          1   -1    0    0  501    0 -0.00000000000E+00 -0.00000000000E+00 -0.25917376790E+04  0.25917376790E+04  0.00000000000E+00 0. -1.
         25    2    1    2    0    0 -0.14042739432E+02 -0.20193242737E+02 -0.41794497028E+03  0.43693183860E+03  0.12500587111E+03 0.  0.
          2    1    1    2  501    0  0.77838719396E+02  0.45573172755E+01 -0.21601749579E+04  0.21615817089E+04  0.00000000000E+00 0. -1.
          1    1    1    2  502    0 -0.63795979964E+02  0.15635925461E+02  0.31187307868E+03  0.31871496110E+03  0.00000000000E+00 0. -1.
         22    1    3    3    0    0  0.11630936235E+02 -0.65076811084E+02 -0.14820550725E+03  0.16228105989E+03  0.00000000000E+00 0. -1.
         22    1    3    3    0    0 -0.25673675667E+02  0.44883568347E+02 -0.26973946303E+03  0.27465077871E+03  0.00000000000E+00 0. -1.
</event>
<event>
 7    1  0.6140348E-006  0.4457635E+02  0.7818608E-02  0.1488894E+00
          2   -1    0    0  502    0  0.00000000000E+00  0.00000000000E+00  0.18085536947E+03  0.18085536947E+03  0.00000000000E+00 0. -1.
          1   -1    0    0  501    0 -0.00000000000E+00 -0.00000000000E+00 -0.22329812175E+04  0.22329812175E+04  0.00000000000E+00 0. -1.
         25    2    1    2    0    0 -0.93475760718E+01 -0.31184428860E+02 -0.19620911676E+04  0.19663381480E+04  0.12499646480E+03 0.  0.
          2    1    1    2  501    0 -0.25968920443E+02  0.58383615821E+02 -0.26208768455E+03  0.26976468601E+03  0.00000000000E+00 0. -1.
          1    1    1    2  502    0  0.35316496515E+02 -0.27199186961E+02  0.17205300418E+03  0.17773375297E+03  0.00000000000E+00 0. -1.
         22    1    3    3    0    0 -0.38211659642E+02  0.28418169876E+02 -0.13161273851E+04  0.13169886170E+04  0.00000000000E+00 0.  1.
         22    1    3    3    0    0  0.28864083571E+02 -0.59602598736E+02 -0.64596378251E+03  0.64934953100E+03  0.00000000000E+00 0.  1.
</event>
<event>
 7    1  0.6140348E-006  0.5198658E+02  0.7818608E-02  0.1491437E+00
          2   -1    0    0  502    0  0.00000000000E+00  0.00000000000E+00  0.52690887525E+03  0.52690887525E+03  0.00000000000E+00 0. -1.
          1   -1    0    0  501    0 -0.00000000000E+00 -0.00000000000E+00 -0.19475610122E+04  0.19475610122E+04  0.00000000000E+00 0. -1.
         25    2    1    2    0    0 -0.31100545619E+02 -0.77164410545E+01 -0.62570283406E+02  0.14339948705E+03  0.12498633973E+03 0.  0.
          2    1    1    2  501    0  0.17764141047E+00 -0.34537749509E+02 -0.18430049824E+04  0.18433285798E+04  0.00000000000E+00 0. -1.
          1    1    1    2  502    0  0.30922904208E+02  0.42254190564E+02  0.48492312891E+03  0.48774182062E+03  0.00000000000E+00 0. -1.
         22    1    3    3    0    0 -0.34229147847E+02 -0.42810903529E+02  0.16159833401E+02  0.57144975622E+02  0.00000000000E+00 0.  1.
         22    1    3    3    0    0  0.31286022279E+01  0.35094462475E+02 -0.78730116807E+02  0.86254511423E+02  0.00000000000E+00 0.  1.
</event>
<event>
 7    1  0.6140348E-006  0.1236812E+03  0.7818608E-02  0.1336377E+00
          2   -1    0    0  502    0  0.00000000000E+00  0.00000000000E+00  0.42732358916E+02  0.42732358916E+02  0.00000000000E+00 0. -1.
          1   -1    0    0  501    0 -0.00000000000E+00 -0.00000000000E+00 -0.20236222535E+04  0.20236222535E+04  0.00000000000E+00 0. -1.
         25    2    1    2    0    0  0.26180197958E+02 -0.84809412962E+02 -0.47525085983E+03  0.49936642406E+03  0.12500162569E+03 0.  0.
          2    1    1    2  501    0  0.31628611691E+02 -0.36806921265E+02 -0.13860340404E+04  0.13868833691E+04  0.00000000000E+00 0. -1.
          1    1    1    2  502    0 -0.57808809649E+02  0.12161633423E+03 -0.11960499441E+03  0.18010481923E+03  0.00000000000E+00 0. -1.
         22    1    3    3    0    0 -0.38408012051E+02  0.88812049071E+01 -0.11490456187E+03  0.12147884396E+03  0.00000000000E+00 0. -1.
         22    1    3    3    0    0  0.64588210009E+02 -0.93690617869E+02 -0.36034629796E+03  0.37788758011E+03  0.00000000000E+00 0. -1.
</event>
<event>
 7    1  0.6140348E-006  0.6192139E+02  0.7818608E-02  0.1465738E+00
          2   -1    0    0  502    0  0.00000000000E+00  0.00000000000E+00  0.13376591777E+03  0.13376591777E+03  0.00000000000E+00 0. -1.
          1   -1    0    0  501    0 -0.00000000000E+00 -0.00000000000E+00 -0.35989269690E+03  0.35989269690E+03  0.00000000000E+00 0. -1.
         25    2    1    2    0    0  0.16000261124E+02 -0.85506806945E+02 -0.18976547547E+03  0.24331880596E+03  0.12500273304E+03 0.  0.
          2    1    1    2  501    0  0.36852743153E+01  0.56832498453E+02 -0.13458540435E+03  0.14613947171E+03  0.00000000000E+00 0. -1.
          1    1    1    2  502    0 -0.19685535440E+02  0.28674308492E+02  0.98224100694E+02  0.10420033700E+03  0.00000000000E+00 0. -1.
         22    1    3    3    0    0  0.35164642049E+02 -0.76085040540E+02 -0.41511046995E+02  0.93534231525E+02  0.00000000000E+00 0.  1.
         22    1    3    3    0    0 -0.19164380924E+02 -0.94217664054E+01 -0.14825442847E+03  0.14978457444E+03  0.00000000000E+00 0.  1.
</event>
<event>
 7    1  0.6140348E-006  0.2093550E+03  0.7818608E-02  0.1263705E+00
          2   -1    0    0  502    0  0.00000000000E+00  0.00000000000E+00  0.12136177867E+04  0.12136177867E+04  0.00000000000E+00 0. -1.
          1   -1    0    0  501    0 -0.00000000000E+00 -0.00000000000E+00 -0.84573481692E+03  0.84573481692E+03  0.00000000000E+00 0. -1.
         25    2    1    2    0    0  0.10798887270E+03  0.11938319434E+03  0.29640445102E+03  0.35971456214E+03  0.12500009566E+03 0.  0.
          2    1    1    2  501    0 -0.16128931792E+03 -0.13671940617E+03 -0.79943457186E+03  0.82692325810E+03  0.00000000000E+00 0. -1.
          1    1    1    2  502    0  0.53300445225E+02  0.17336211834E+02  0.87091309066E+03  0.87271478341E+03  0.00000000000E+00 0. -1.
         22    1    3    3    0    0  0.65033395672E+02  0.72978475290E+02  0.59319311886E+02  0.11434151114E+03  0.00000000000E+00 0.  1.
         22    1    3    3    0    0  0.42955477026E+02  0.46404719048E+02  0.23708513914E+03  0.24537305100E+03  0.00000000000E+00 0.  1.
</event>
<event>
 7    1  0.6140348E-006  0.9721692E+02  0.7818608E-02  0.1402723E+00
          2   -1    0    0  502    0  0.00000000000E+00  0.00000000000E+00  0.24635872053E+03  0.24635872053E+03  0.00000000000E+00 0. -1.
          1   -1    0    0  501    0 -0.00000000000E+00 -0.00000000000E+00 -0.80505553445E+03  0.80505553445E+03  0.00000000000E+00 0. -1.
         25    2    1    2    0    0 -0.10032143408E+03  0.69554402107E+02 -0.51016670784E+03  0.53925936599E+03  0.12501355537E+03 0.  0.
          2    1    1    2  501    0  0.35545254172E+02  0.23744709321E+01 -0.26901191496E+03  0.27136048643E+03  0.00000000000E+00 0. -1.
          1    1    1    2  502    0  0.64776179903E+02 -0.71928873039E+02  0.22048180888E+03  0.24079440256E+03  0.00000000000E+00 0. -1.
         22    1    3    3    0    0  0.27916398994E+02  0.15501395261E+02 -0.14498700062E+03  0.14846160762E+03  0.00000000000E+00 0.  1.
         22    1    3    3    0    0 -0.12823783307E+03  0.54053006846E+02 -0.36517970722E+03  0.39079775837E+03  0.00000000000E+00 0.  1.
</event>
<event>
 7    1  0.6140348E-006  0.1263041E+03  0.7818608E-02  0.1439386E+00
          2   -1    0    0  502    0  0.00000000000E+00  0.00000000000E+00  0.33597057072E+03  0.33597057072E+03  0.00000000000E+00 0. -1.
          1   -1    0    0  501    0 -0.00000000000E+00 -0.00000000000E+00 -0.15763647683E+04  0.15763647683E+04  0.00000000000E+00 0. -1.
         25    2    1    2    0    0 -0.14250012847E+03  0.15370907501E+02 -0.36652488108E+03  0.41292436893E+03  0.12499397822E+03 0.  0.
          2    1    1    2  501    0  0.16775718017E+02 -0.12112033067E+02 -0.11739024470E+04  0.11740847844E+04  0.00000000000E+00 0. -1.
          1    1    1    2  502    0  0.12572441046E+03 -0.32588744342E+01  0.30003313051E+03  0.32532618562E+03  0.00000000000E+00 0. -1.
         22    1    3    3    0    0 -0.96448136274E+02  0.11846571826E+02 -0.89608541731E+02  0.13218273339E+03  0.00000000000E+00 0.  1.
         22    1    3    3    0    0 -0.46051992199E+02  0.35243356760E+01 -0.27691633935E+03  0.28074163554E+03  0.00000000000E+00 0.  1.
</event>
<event>
 7    1  0.6140348E-006  0.1448478E+03  0.7818608E-02  0.1295046E+00
          2   -1    0    0  502    0  0.00000000000E+00  0.00000000000E+00  0.11909722952E+04  0.11909722952E+04  0.00000000000E+00 0. -1.
          1   -1    0    0  501    0 -0.00000000000E+00 -0.00000000000E+00 -0.76637792872E+03  0.76637792872E+03  0.00000000000E+00 0. -1.
         25    2    1    2    0    0  0.72719519450E+02  0.15247103380E+03 -0.35416650100E+02  0.21312023443E+03  0.12502140041E+03 0.  0.
          2    1    1    2  501    0  0.30604321538E+02 -0.51723978695E+02 -0.63596264323E+03  0.63879611619E+03  0.00000000000E+00 0. -1.
          1    1    1    2  502    0 -0.10332384099E+03 -0.10074705511E+03  0.10959736598E+04  0.11054338733E+04  0.00000000000E+00 0. -1.
         22    1    3    3    0    0  0.38861169320E+02 -0.12500496742E+02  0.92858813060E+00  0.40832770854E+02  0.00000000000E+00 0.  1.
         22    1    3    3    0    0  0.33858350129E+02  0.16497153054E+03 -0.36345238231E+02  0.17228746357E+03  0.00000000000E+00 0.  1.
</event>
<event>
 7    1  0.6140348E-006  0.8880740E+02  0.7818608E-02  0.1314895E+00
          2   -1    0    0  502    0  0.00000000000E+00  0.00000000000E+00  0.11050745633E+04  0.11050745633E+04  0.00000000000E+00 0. -1.
          1   -1    0    0  501    0 -0.00000000000E+00 -0.00000000000E+00 -0.88687715404E+03  0.88687715404E+03  0.00000000000E+00 0. -1.
         25    2    1    2    0    0  0.16101511956E+01 -0.15854188874E+03  0.14531833871E+03  0.24876085177E+03  0.12500567480E+03 0.  0.
          2    1    1    2  501    0  0.29588256190E+02  0.82978829818E+02 -0.83098282584E+03  0.83563952033E+03  0.00000000000E+00 0. -1.
          1    1    1    2  502    0 -0.31198407386E+02  0.75563058925E+02  0.90386189637E+03  0.90755134521E+03  0.00000000000E+00 0. -1.
         22    1    3    3    0    0  0.87000470938E+01  0.17668232020E+02  0.36676747460E+02  0.41629809589E+02  0.00000000000E+00 0.  1.
         22    1    3    3    0    0 -0.70898958982E+01 -0.17621012076E+03  0.10864159125E+03  0.20713104218E+03  0.00000000000E+00 0.  1.
</event>
<event>
 7    1  0.6140348E-006  0.8480568E+02  0.7818608E-02  0.1342097E+00
          2   -1    0    0  502    0  0.00000000000E+00  0.00000000000E+00  0.53345022505E+03  0.53345022505E+03  0.00000000000E+00 0. -1.
          1   -1    0    0  501    0 -0.00000000000E+00 -0.00000000000E+00 -0.50115067209E+03  0.50115067209E+03  0.00000000000E+00 0. -1.
         25    2    1    2    0    0 -0.73368267890E+02  0.80246190235E+02 -0.10604261086E+02  0.16601217721E+03  0.12500095539E+03 0.  0.
          2    1    1    2  501    0  0.67215489996E+02  0.42592958104E+01 -0.40610680889E+03  0.41165374276E+03  0.00000000000E+00 0. -1.
          1    1    1    2  502    0  0.61527778944E+01 -0.84505486046E+02  0.44901062294E+03  0.45693497717E+03  0.00000000000E+00 0. -1.
         22    1    3    3    0    0 -0.83018712063E+02  0.40525262378E+01 -0.27166008831E+02  0.87444391228E+02  0.00000000000E+00 0.  1.
         22    1    3    3    0    0  0.96504441724E+01  0.76193663998E+02  0.16561747744E+02  0.78567785984E+02  0.00000000000E+00 0.  1.
</event>
<event>
 7    1  0.6140348E-006  0.4742704E+02  0.7818608E-02  0.1498641E+00
          2   -1    0    0  502    0  0.00000000000E+00  0.00000000000E+00  0.99424595833E+03  0.99424595833E+03  0.00000000000E+00 0. -1.
          1   -1    0    0  501    0 -0.00000000000E+00 -0.00000000000E+00 -0.15002105903E+04  0.15002105903E+04  0.00000000000E+00 0. -1.
         25    2    1    2    0    0  0.69205322220E+02  0.40315400226E+02  0.36363267332E+03  0.39275762294E+03  0.12496047836E+03 0.  0.
          2    1    1    2  501    0 -0.34306345631E+02 -0.10971807034E+02 -0.14845857114E+04  0.14850225723E+04  0.00000000000E+00 0. -1.
          1    1    1    2  502    0 -0.34898976589E+02 -0.29343593192E+02  0.61498840614E+03  0.61667635330E+03  0.00000000000E+00 0. -1.
         22    1    3    3    0    0 -0.91107020462E+00  0.37535752380E+02  0.28460986588E+03  0.28707584104E+03  0.00000000000E+00 0.  1.
         22    1    3    3    0    0  0.70116392425E+02  0.27796478463E+01  0.79022807444E+02  0.10568178190E+03  0.00000000000E+00 0.  1.
</event>
<event>
 7    1  0.6140348E-006  0.6831777E+02  0.7818608E-02  0.1392380E+00
          2   -1    0    0  502    0  0.00000000000E+00  0.00000000000E+00  0.10232564372E+04  0.10232564372E+04  0.00000000000E+00 0. -1.
          1   -1    0    0  501    0 -0.00000000000E+00 -0.00000000000E+00 -0.32686204414E+03  0.32686204414E+03  0.00000000000E+00 0. -1.
         25    2    1    2    0    0  0.96121634919E+01  0.12721495625E+02  0.72771356315E+02  0.14551645678E+03  0.12500055502E+03 0.  0.
          2    1    1    2  501    0 -0.27788127422E+02 -0.64670204243E+02 -0.28538108963E+03  0.29393329458E+03  0.00000000000E+00 0. -1.
          1    1    1    2  502    0  0.18175963930E+02  0.51948708617E+02  0.90900412637E+03  0.91066872997E+03  0.00000000000E+00 0. -1.
         22    1    3    3    0    0  0.19055569637E+02  0.64048823186E+02  0.16624169201E+02  0.68860217015E+02  0.00000000000E+00 0.  1.
         22    1    3    3    0    0 -0.94434061451E+01 -0.51327327561E+02  0.56147187115E+02  0.76656239766E+02  0.00000000000E+00 0.  1.
</event>
<event>
 7    1  0.6140348E-006  0.2382717E+02  0.7818608E-02  0.1686035E+00
          2   -1    0    0  502    0  0.00000000000E+00  0.00000000000E+00  0.75419512989E+03  0.75419512989E+03  0.00000000000E+00 0. -1.
          1   -1    0    0  501    0 -0.00000000000E+00 -0.00000000000E+00 -0.22466788982E+03  0.22466788982E+03  0.00000000000E+00 0. -1.
         25    2    1    2    0    0 -0.83783033888E+01  0.37245697102E+01  0.15750018702E+03  0.20128511924E+03  0.12500128772E+03 0.  0.
          2    1    1    2  501    0  0.15878955231E+02  0.17875780144E+02 -0.20184212933E+03  0.20325336383E+03  0.00000000000E+00 0. -1.
          1    1    1    2  502    0 -0.75006518425E+01 -0.21600349855E+02  0.57386918239E+03  0.57432453664E+03  0.00000000000E+00 0. -1.
         22    1    3    3    0    0  0.54970209449E+02 -0.96436664558E+01  0.45881652837E+02  0.72248531450E+02  0.00000000000E+00 0.  1.
         22    1    3    3    0    0 -0.63348512838E+02  0.13368236166E+02  0.11161853418E+03  0.12903658779E+03  0.00000000000E+00 0.  1.
</event>
<event>
 7    1  0.6140348E-006  0.1428340E+03  0.7818608E-02  0.1295843E+00
          2   -1    0    0  502    0  0.00000000000E+00  0.00000000000E+00  0.29815262694E+03  0.29815262694E+03  0.00000000000E+00 0. -1.
          1   -1    0    0  501    0 -0.00000000000E+00 -0.00000000000E+00 -0.44940169010E+03  0.44940169010E+03  0.00000000000E+00 0. -1.
         25    2    1    2    0    0  0.18002186766E+03 -0.25206347565E+02 -0.19399903452E+03  0.29379428208E+03  0.12504487993E+03 0.  0.
          2    1    1    2  501    0 -0.12135672036E+03  0.39985060350E+02 -0.18123510774E+03  0.22174855784E+03  0.00000000000E+00 0. -1.
          1    1    1    2  502    0 -0.58665147296E+02 -0.14778712785E+02  0.22398507909E+03  0.23201147712E+03  0.00000000000E+00 0. -1.
         22    1    3    3    0    0  0.12423537186E+03  0.41395175514E+02 -0.93249065996E+02  0.16075875244E+03  0.00000000000E+00 0.  1.
         22    1    3    3    0    0  0.55786495805E+02 -0.66601523079E+02 -0.10074996852E+03  0.13303552964E+03  0.00000000000E+00 0.  1.
</event>
<event>
 7    1  0.6140348E-006  0.1099067E+03  0.7818608E-02  0.1367644E+00
          2   -1    0    0  502    0  0.00000000000E+00  0.00000000000E+00  0.48936555995E+03  0.48936555995E+03  0.00000000000E+00 0. -1.
          1   -1    0    0  501    0 -0.00000000000E+00 -0.00000000000E+00 -0.18861734918E+04  0.18861734918E+04  0.00000000000E+00 0. -1.
         25    2    1    2    0    0  0.84816967539E+02  0.93748313523E+02 -0.90560705482E+03  0.92289312862E+03  0.12499969936E+03 0.  0.
          2    1    1    2  501    0 -0.43066613214E+02 -0.96744940372E+02 -0.96811943736E+03  0.97389401972E+03  0.00000000000E+00 0. -1.
          1    1    1    2  502    0 -0.41750354325E+02  0.29966268499E+01  0.47691856031E+03  0.47875190342E+03  0.00000000000E+00 0. -1.
         22    1    3    3    0    0  0.43091952440E+02  0.23559510056E+02 -0.69918540538E+03  0.70090812377E+03  0.00000000000E+00 0.  1.
         22    1    3    3    0    0  0.41725015100E+02  0.70188803467E+02 -0.20642164945E+03  0.22198500485E+03  0.00000000000E+00 0.  1.
</event>
<event>
 7    1  0.6140348E-006  0.6012178E+02  0.7818608E-02  0.1511676E+00
          2   -1    0    0  502    0  0.00000000000E+00  0.00000000000E+00  0.61375028867E+03  0.61375028867E+03  0.00000000000E+00 0. -1.
          1   -1    0    0  501    0 -0.00000000000E+00 -0.00000000000E+00 -0.11569308513E+04  0.11569308513E+04  0.00000000000E+00 0. -1.
         25    2    1    2    0    0  0.37393359229E+02  0.31318515483E+02  0.17659293068E+03  0.22178611957E+03  0.12499962777E+03 0.  0.
          2    1    1    2  501    0 -0.25584771360E+02 -0.54476599262E+02 -0.11331273522E+04  0.11347245819E+04  0.00000000000E+00 0. -1.
          1    1    1    2  502    0 -0.11808587869E+02  0.23158083779E+02  0.41335385883E+03  0.41417043859E+03  0.00000000000E+00 0. -1.
         22    1    3    3    0    0  0.26360910375E+02  0.78327820490E+02  0.86916095346E+02  0.11993561893E+03  0.00000000000E+00 0. -1.
         22    1    3    3    0    0  0.11032448854E+02 -0.47009305007E+02  0.89676835334E+02  0.10185050064E+03  0.00000000000E+00 0. -1.
</event>
<event>
 7    1  0.6140348E-006  0.9775782E+02  0.7818608E-02  0.1388963E+00
          2   -1    0    0  502    0  0.00000000000E+00  0.00000000000E+00  0.61002392475E+03  0.61002392475E+03  0.00000000000E+00 0. -1.
          1   -1    0    0  501    0 -0.00000000000E+00 -0.00000000000E+00 -0.10920136683E+04  0.10920136683E+04  0.00000000000E+00 0. -1.
         25    2    1    2    0    0 -0.41415735655E+02  0.11146146138E+03  0.10085540584E+02  0.17281575834E+03  0.12499859067E+03 0.  0.
          2    1    1    2  501    0  0.36694686097E+02 -0.14705568333E+02 -0.10057329113E+04  0.10065095343E+04  0.00000000000E+00 0. -1.
          1    1    1    2  502    0  0.47210495579E+01 -0.96755893045E+02  0.51365762713E+03  0.52271230046E+03  0.00000000000E+00 0. -1.
         22    1    3    3    0    0 -0.26815856954E+02  0.13888164725E+03  0.89686149719E+01  0.14173086531E+03  0.00000000000E+00 0. -1.
         22    1    3    3    0    0 -0.14599878701E+02 -0.27420185875E+02  0.11169256122E+01  0.31084893024E+02  0.00000000000E+00 0. -1.
</event>
<event>
 7    1  0.6140348E-006  0.7631084E+02  0.7818608E-02  0.1358659E+00
          2   -1    0    0  502    0  0.00000000000E+00  0.00000000000E+00  0.61690713029E+03  0.61690713029E+03  0.00000000000E+00 0. -1.
          1   -1    0    0  501    0 -0.00000000000E+00 -0.00000000000E+00 -0.34623040586E+03  0.34623040586E+03  0.00000000000E+00 0. -1.
         25    2    1    2    0    0 -0.52813897655E+02 -0.61825290603E+02  0.11153117196E+03  0.18621200216E+03  0.12499613229E+03 0.  0.
          2    1    1    2  501    0 -0.25233576854E+02  0.59891560627E+02 -0.30215490521E+03  0.30906523450E+03  0.00000000000E+00 0. -1.
          1    1    1    2  502    0  0.78047474509E+02  0.19337299763E+01  0.46130045767E+03  0.46786029949E+03  0.00000000000E+00 0. -1.
         22    1    3    3    0    0 -0.93987142937E+02 -0.38913820341E+02  0.81391878149E+02  0.13027857184E+03  0.00000000000E+00 0. -1.
         22    1    3    3    0    0  0.41173245282E+02 -0.22911470262E+02  0.30139293815E+02  0.55933430328E+02  0.00000000000E+00 0. -1.
</event>
<event>
 7    1  0.6140348E-006  0.1833070E+03  0.7818608E-02  0.1172074E+00
          2   -1    0    0  502    0  0.00000000000E+00  0.00000000000E+00  0.58589433105E+03  0.58589433105E+03  0.00000000000E+00 0. -1.
          1   -1    0    0  501    0 -0.00000000000E+00 -0.00000000000E+00 -0.16660274677E+04  0.16660274677E+04  0.00000000000E+00 0. -1.
         25    2    1    2    0    0  0.99685298734E+02  0.14390532119E+03 -0.83377140074E+03  0.86107228139E+03  0.12499929933E+03 0.  0.
          2    1    1    2  501    0 -0.22677760866E+03 -0.33537105185E+02 -0.78956109220E+03  0.82216758603E+03  0.00000000000E+00 0. -1.
          1    1    1    2  502    0  0.12709230993E+03 -0.11036821600E+03  0.54319935629E+03  0.56868193133E+03  0.00000000000E+00 0. -1.
         22    1    3    3    0    0  0.91568323249E+02  0.14561619045E+03 -0.83513468033E+03  0.85266568304E+03  0.00000000000E+00 0. -1.
         22    1    3    3    0    0  0.81169754849E+01 -0.17108692610E+01  0.13632795848E+01  0.84065983535E+01  0.00000000000E+00 0. -1.
</event>
<event>
 7    1  0.7162843E-006  0.1485542E+03  0.7818608E-02  0.1249871E+00
          2   -1    0    0  502    0  0.00000000000E+00  0.00000000000E+00  0.16465479124E+04  0.16465479124E+04  0.00000000000E+00 0. -1.
          1   -1    0    0  501    0 -0.00000000000E+00 -0.00000000000E+00 -0.16189896426E+04  0.16189896426E+04  0.00000000000E+00 0. -1.
         25    2    1    2    0    0 -0.65100129595E+02 -0.56295321198E+02 -0.94754106431E+02  0.17891403654E+03  0.12499880689E+03 0.  0.
          2    1    1    2  501    0  0.21875925532E+02 -0.87874521158E+02 -0.14772362929E+04  0.14800093083E+04  0.00000000000E+00 0. -1.
          1    1    1    2  502    0  0.43224204063E+02  0.14416984236E+03  0.15995486692E+04  0.16066142102E+04  0.00000000000E+00 0. -1.
         22    1    3    3    0    0 -0.23771277857E+02  0.37314477490E+02 -0.51298024340E+02  0.67741650279E+02  0.00000000000E+00 0.  1.
         22    1    3    3    0    0 -0.41328851738E+02 -0.93609798688E+02 -0.43456082091E+02  0.11117238626E+03  0.00000000000E+00 0.  1.
</event>
<event>
 7    1  0.6140348E-006  0.1277956E+03  0.7818608E-02  0.1250055E+00
          2   -1    0    0  502    0  0.00000000000E+00  0.00000000000E+00  0.31870829462E+03  0.31870829462E+03  0.00000000000E+00 0. -1.
          1   -1    0    0  501    0 -0.00000000000E+00 -0.00000000000E+00 -0.95417561075E+03  0.95417561075E+03  0.00000000000E+00 0. -1.
         25    2    1    2    0    0 -0.10081239918E+03 -0.36997471367E+02 -0.11241602124E+03  0.19948490165E+03  0.12499964575E+03 0.  0.
          2    1    1    2  501    0  0.11753300110E+03 -0.66737182602E+02 -0.78218310652E+03  0.79377469726E+03  0.00000000000E+00 0. -1.
          1    1    1    2  502    0 -0.16720601921E+02  0.10373465397E+03  0.25913181164E+03  0.27962430647E+03  0.00000000000E+00 0. -1.
         22    1    3    3    0    0 -0.71538096050E+01 -0.16237309297E+02 -0.10137927573E+03  0.10292028348E+03  0.00000000000E+00 0.  1.
         22    1    3    3    0    0 -0.93658589571E+02 -0.20760162069E+02 -0.11036745516E+02  0.96564618164E+02  0.00000000000E+00 0.  1.
</event>
<event>
 7    1  0.6140348E-006  0.5595100E+02  0.7818608E-02  0.1488739E+00
          2   -1    0    0  502    0  0.00000000000E+00  0.00000000000E+00  0.23420320769E+04  0.23420320769E+04  0.00000000000E+00 0. -1.
          1   -1    0    0  501    0 -0.00000000000E+00 -0.00000000000E+00 -0.42811974700E+03  0.42811974700E+03  0.00000000000E+00 0. -1.
         25    2    1    2    0    0  0.50565137743E+02  0.63307145119E+02 -0.24797892337E+02  0.15101435027E+03  0.12500308295E+03 0.  0.
          2    1    1    2  501    0 -0.39874953116E+01 -0.32455771948E+02 -0.33908456835E+03  0.34065763127E+03  0.00000000000E+00 0. -1.
          1    1    1    2  502    0 -0.46577642431E+02 -0.30851373171E+02  0.22777947906E+04  0.22784798423E+04  0.00000000000E+00 0. -1.
         22    1    3    3    0    0  0.31180940322E+02  0.36998207106E+01 -0.67992268339E+02  0.74892511418E+02  0.00000000000E+00 0. -1.
         22    1    3    3    0    0  0.19384197421E+02  0.59607324408E+02  0.43194376001E+02  0.76121838857E+02  0.00000000000E+00 0. -1.
</event>
<event>
 7    1  0.6140348E-006  0.6051267E+02  0.7818608E-02  0.1532398E+00
          2   -1    0    0  502    0  0.00000000000E+00  0.00000000000E+00  0.48762203125E+03  0.48762203125E+03  0.00000000000E+00 0. -1.
          1   -1    0    0  501    0 -0.00000000000E+00 -0.00000000000E+00 -0.10675135664E+03  0.10675135664E+03  0.00000000000E+00 0. -1.
         25    2    1    2    0    0  0.13389118384E+01  0.76046747476E+02  0.63340608216E+02  0.15944157538E+03  0.12499873129E+03 0.  0.
          2    1    1    2  501    0 -0.13446178861E+02 -0.57089341991E+02 -0.43612583122E+02  0.73089329601E+02  0.00000000000E+00 0. -1.
          1    1    1    2  502    0  0.12107267023E+02 -0.18957405485E+02  0.36114264952E+03  0.36184248291E+03  0.00000000000E+00 0. -1.
         22    1    3    3    0    0 -0.33558518856E+02  0.41221090527E+02 -0.24641236739E+02  0.58587908651E+02  0.00000000000E+00 0.  1.
         22    1    3    3    0    0  0.34897430695E+02  0.34825656949E+02  0.87981844956E+02  0.10085366673E+03  0.00000000000E+00 0.  1.
</event>
<event>
 7    1  0.6140348E-006  0.1016046E+03  0.7818608E-02  0.1298024E+00
          2   -1    0    0  502    0  0.00000000000E+00  0.00000000000E+00  0.94184284814E+03  0.94184284814E+03  0.00000000000E+00 0. -1.
          1   -1    0    0  501    0 -0.00000000000E+00 -0.00000000000E+00 -0.45286693294E+03  0.45286693294E+03  0.00000000000E+00 0. -1.
         25    2    1    2    0    0  0.42551925483E+01 -0.41317675793E+02 -0.79982881812E+02  0.15410376873E+03  0.12500181262E+03 0.  0.
          2    1    1    2  501    0 -0.58098627558E+02  0.10493747495E+03 -0.32310827740E+03  0.34465385983E+03  0.00000000000E+00 0. -1.
          1    1    1    2  502    0  0.53843435010E+02 -0.63619799159E+02  0.89206707441E+03  0.89595215251E+03  0.00000000000E+00 0. -1.
         22    1    3    3    0    0 -0.33067499724E+02  0.34145595201E+02 -0.29109842818E+02  0.55738354466E+02  0.00000000000E+00 0. -1.
         22    1    3    3    0    0  0.37322692273E+02 -0.75463270994E+02 -0.50873038994E+02  0.98365414268E+02  0.00000000000E+00 0. -1.
</event>
<event>
 7    1  0.6140348E-006  0.9324936E+02  0.7818608E-02  0.1318217E+00
          2   -1    0    0  502    0  0.00000000000E+00  0.00000000000E+00  0.64155350910E+03  0.64155350910E+03  0.00000000000E+00 0. -1.
          1   -1    0    0  501    0 -0.00000000000E+00 -0.00000000000E+00 -0.58578091689E+03  0.58578091689E+03  0.00000000000E+00 0. -1.
         25    2    1    2    0    0 -0.33088720432E+02 -0.41319567460E+02 -0.24909939501E+03  0.28368314941E+03  0.12499380222E+03 0.  0.
          2    1    1    2  501    0  0.10558883596E+03  0.62630713079E+02 -0.30517445315E+03  0.32894232831E+03  0.00000000000E+00 0. -1.
          1    1    1    2  502    0 -0.72500115532E+02 -0.21311145619E+02  0.61004644036E+03  0.61470894827E+03  0.00000000000E+00 0. -1.
         22    1    3    3    0    0 -0.71545450676E+02 -0.59591550433E+02 -0.16726217362E+03  0.19143285799E+03  0.00000000000E+00 0. -1.
         22    1    3    3    0    0  0.38456730244E+02  0.18271982973E+02 -0.81837221386E+02  0.92250291419E+02  0.00000000000E+00 0. -1.
</event>
<event>
 7    1  0.6140348E-006  0.3994242E+02  0.7818608E-02  0.1529451E+00
          2   -1    0    0  502    0  0.00000000000E+00  0.00000000000E+00  0.91004674129E+03  0.91004674129E+03  0.00000000000E+00 0. -1.
          1   -1    0    0  501    0 -0.00000000000E+00 -0.00000000000E+00 -0.31086383727E+03  0.31086383727E+03  0.00000000000E+00 0. -1.
         25    2    1    2    0    0  0.67498153341E+02  0.22043746987E+02 -0.75699766353E+02  0.16247160045E+03  0.12499855536E+03 0.  0.
          2    1    1    2  501    0 -0.34740556437E+02  0.62112508520E+00 -0.18974201237E+03  0.19289718328E+03  0.00000000000E+00 0. -1.
          1    1    1    2  502    0 -0.32757596905E+02 -0.22664872072E+02  0.86462468274E+03  0.86554179483E+03  0.00000000000E+00 0. -1.
         22    1    3    3    0    0  0.32404726701E+02 -0.85873252087E+01 -0.10311096564E+03  0.10842361229E+03  0.00000000000E+00 0. -1.
         22    1    3    3    0    0  0.35093426641E+02  0.30631072195E+02  0.27411199292E+02  0.54047988157E+02  0.00000000000E+00 0. -1.
</event>
<event>
 7    1  0.6140348E-006  0.1087346E+03  0.7818608E-02  0.1265387E+00
          2   -1    0    0  502    0  0.00000000000E+00  0.00000000000E+00  0.10877971964E+03  0.10877971964E+03  0.00000000000E+00 0. -1.
          1   -1    0    0  501    0 -0.00000000000E+00 -0.00000000000E+00 -0.22581501954E+04  0.22581501954E+04  0.00000000000E+00 0. -1.
         25    2    1    2    0    0 -0.23813922652E+02  0.65611129652E+01 -0.13624947934E+04  0.13684391440E+04  0.12499391032E+03 0.  0.
          2    1    1    2  501    0  0.19668571653E+02  0.10432143499E+03 -0.85939984333E+03  0.86593181326E+03  0.00000000000E+00 0. -1.
          1    1    1    2  502    0  0.41453509990E+01 -0.11088254796E+03  0.72524160946E+02  0.13255895781E+03  0.00000000000E+00 0. -1.
         22    1    3    3    0    0  0.20093435873E+02 -0.31368804084E+01 -0.37317595663E+02  0.42499283876E+02  0.00000000000E+00 0. -1.
         22    1    3    3    0    0 -0.43907358526E+02  0.96979933736E+01 -0.13251771977E+04  0.13259398601E+04  0.00000000000E+00 0. -1.
</event>
<event>
 7    1  0.6140348E-006  0.1752069E+03  0.7818608E-02  0.1369758E+00
          2   -1    0    0  502    0  0.00000000000E+00  0.00000000000E+00  0.12011900680E+04  0.12011900680E+04  0.00000000000E+00 0. -1.
          1   -1    0    0  501    0 -0.00000000000E+00 -0.00000000000E+00 -0.39665492681E+03  0.39665492681E+03  0.00000000000E+00 0. -1.
         25    2    1    2    0    0  0.14252301465E+03  0.89449802761E+02  0.53705171471E+03  0.57650970994E+03  0.12499929785E+03 0.  0.
          2    1    1    2  501    0 -0.16053360372E+03 -0.70975496298E+02 -0.35621064992E+03  0.39710777645E+03  0.00000000000E+00 0. -1.
          1    1    1    2  502    0  0.18010589075E+02 -0.18474306463E+02  0.62369407638E+03  0.62422750839E+03  0.00000000000E+00 0. -1.
         22    1    3    3    0    0  0.12723128563E+03  0.14022529223E+02  0.39103657998E+03  0.41145356755E+03  0.00000000000E+00 0. -1.
         22    1    3    3    0    0  0.15291729018E+02  0.75427273538E+02  0.14601513473E+03  0.16505614239E+03  0.00000000000E+00 0. -1.
</event>
<event>
 7    1  0.6140348E-006  0.5300653E+02  0.7818608E-02  0.1493089E+00
          2   -1    0    0  502    0  0.00000000000E+00  0.00000000000E+00  0.31756703402E+04  0.31756703402E+04  0.00000000000E+00 0. -1.
          1   -1    0    0  501    0 -0.00000000000E+00 -0.00000000000E+00 -0.62012361646E+02  0.62012361646E+02  0.00000000000E+00 0. -1.
         25    2    1    2    0    0 -0.17316187350E+02 -0.32174536572E+02  0.38123018622E+03  0.40286097692E+03  0.12500184276E+03 0.  0.
          2    1    1    2  501    0 -0.31750410185E+02  0.10644270647E+02 -0.45434969748E+02  0.56442231711E+02  0.00000000000E+00 0. -1.
          1    1    1    2  502    0  0.49066597535E+02  0.21530265924E+02  0.27778627621E+04  0.27783794933E+04  0.00000000000E+00 0. -1.
         22    1    3    3    0    0  0.55756164994E+01  0.42249490660E+02  0.69262771113E+02  0.81323049762E+02  0.00000000000E+00 0.  1.
         22    1    3    3    0    0 -0.22891803849E+02 -0.74424027232E+02  0.31196741511E+03  0.32153792716E+03  0.00000000000E+00 0.  1.
</event>
<event>
 7    1  0.6140348E-006  0.8134494E+02  0.7818608E-02  0.1488107E+00
          2   -1    0    0  502    0  0.00000000000E+00  0.00000000000E+00  0.10061093635E+04  0.10061093635E+04  0.00000000000E+00 0. -1.
          1   -1    0    0  501    0 -0.00000000000E+00 -0.00000000000E+00 -0.42450340458E+03  0.42450340458E+03  0.00000000000E+00 0. -1.
         25    2    1    2    0    0  0.12389349566E+02  0.86109666378E+02  0.20268315117E+03  0.25352362957E+03  0.12500160142E+03 0.  0.
          2    1    1    2  501    0  0.19435675579E+02 -0.11515915806E+02 -0.39664744529E+03  0.39729026876E+03  0.00000000000E+00 0. -1.
          1    1    1    2  502    0 -0.31825025145E+02 -0.74593750572E+02  0.77557025300E+03  0.77979886971E+03  0.00000000000E+00 0. -1.
         22    1    3    3    0    0 -0.53909634101E+02  0.60797681324E+02  0.11207491266E+03  0.13843190655E+03  0.00000000000E+00 0. -1.
         22    1    3    3    0    0  0.66298983667E+02  0.25311985054E+02  0.90608238509E+02  0.11509172302E+03  0.00000000000E+00 0. -1.
</event>
<event>
 7    1  0.6140348E-006  0.1659486E+03  0.7818608E-02  0.1293031E+00
          2   -1    0    0  502    0  0.00000000000E+00  0.00000000000E+00  0.17841017918E+03  0.17841017918E+03  0.00000000000E+00 0. -1.
          1   -1    0    0  501    0 -0.00000000000E+00 -0.00000000000E+00 -0.14148016741E+04  0.14148016741E+04  0.00000000000E+00 0. -1.
         25    2    1    2    0    0  0.10862339082E+03  0.37338077437E+02 -0.96111821497E+03  0.97599581164E+03  0.12500571240E+03 0.  0.
          2    1    1    2  501    0  0.48712903788E+02  0.22001273263E+02 -0.40270134278E+03  0.40623315288E+03  0.00000000000E+00 0. -1.
          1    1    1    2  502    0 -0.15733629461E+03 -0.59339350700E+02  0.12742806284E+03  0.21098288874E+03  0.00000000000E+00 0. -1.
         22    1    3    3    0    0  0.47271379012E+02  0.20392775103E+02 -0.99500344439E+02  0.11203020617E+03  0.00000000000E+00 0.  1.
         22    1    3    3    0    0  0.61352011811E+02  0.16945302334E+02 -0.86161787053E+03  0.86396560547E+03  0.00000000000E+00 0.  1.
</event>
<event>
 7    1  0.6140348E-006  0.1422562E+03  0.7818608E-02  0.1327255E+00
          2   -1    0    0  502    0  0.00000000000E+00  0.00000000000E+00  0.96543493312E+03  0.96543493312E+03  0.00000000000E+00 0. -1.
          1   -1    0    0  501    0 -0.00000000000E+00 -0.00000000000E+00 -0.20395570078E+03  0.20395570078E+03  0.00000000000E+00 0. -1.
         25    2    1    2    0    0 -0.14087509844E+03 -0.87488796944E+02  0.24402706924E+03  0.32042809222E+03  0.12499947524E+03 0.  0.
          2    1    1    2  501    0  0.97231713716E+02  0.10107044500E+03 -0.13514596572E+03  0.19476568757E+03  0.00000000000E+00 0. -1.
          1    1    1    2  502    0  0.43643384727E+02 -0.13581648059E+02  0.65259812882E+03  0.65419685411E+03  0.00000000000E+00 0. -1.
         22    1    3    3    0    0 -0.48358769443E+02  0.20508977177E+02  0.22409078977E+02  0.57108279151E+02  0.00000000000E+00 0.  1.
         22    1    3    3    0    0 -0.92516329000E+02 -0.10799777412E+03  0.22161799026E+03  0.26331981307E+03  0.00000000000E+00 0.  1.
</event>
<event>
 7    1  0.6140348E-006  0.6165013E+02  0.7818608E-02  0.1400165E+00
          2   -1    0    0  502    0  0.00000000000E+00  0.00000000000E+00  0.14029121566E+03  0.14029121566E+03  0.00000000000E+00 0. -1.
          1   -1    0    0  501    0 -0.00000000000E+00 -0.00000000000E+00 -0.44448781568E+03  0.44448781568E+03  0.00000000000E+00 0. -1.
         25    2    1    2    0    0  0.32850247292E+02  0.55090445987E+01 -0.60634758898E+02  0.14286723828E+03  0.12499994187E+03 0.  0.
          2    1    1    2  501    0 -0.21135597284E+02 -0.61623081766E+02 -0.33100444465E+03  0.33735450205E+03  0.00000000000E+00 0. -1.
          1    1    1    2  502    0 -0.11714650009E+02  0.56114037168E+02  0.87442603525E+02  0.10455729101E+03  0.00000000000E+00 0. -1.
         22    1    3    3    0    0  0.70432791123E+02 -0.66590625451E+01 -0.29616362795E+00  0.70747500961E+02  0.00000000000E+00 0. -1.
         22    1    3    3    0    0 -0.37582543830E+02  0.12168107144E+02 -0.60338595270E+02  0.72119737322E+02  0.00000000000E+00 0. -1.
</event>
<event>
 7    1  0.6140348E-006  0.9293415E+02  0.7818608E-02  0.1386679E+00
          2   -1    0    0  502    0  0.00000000000E+00  0.00000000000E+00  0.29536423230E+04  0.29536423230E+04  0.00000000000E+00 0. -1.
          1   -1    0    0  501    0 -0.00000000000E+00 -0.00000000000E+00 -0.24201233377E+03  0.24201233377E+03  0.00000000000E+00 0. -1.
         25    2    1    2    0    0 -0.69445410233E+02 -0.69550502304E+02  0.78601265216E+03  0.80193500914E+03  0.12499572854E+03 0.  0.
          2    1    1    2  501    0  0.38164395486E+02 -0.18372071080E+02 -0.23111752631E+03  0.23496673178E+03  0.00000000000E+00 0. -1.
          1    1    1    2  502    0  0.31281014746E+02  0.87922573384E+02  0.21567348634E+04  0.21587529159E+04  0.00000000000E+00 0. -1.
         22    1    3    3    0    0 -0.48805335921E+02 -0.69798780599E+02  0.22558573586E+03  0.24112808798E+03  0.00000000000E+00 0. -1.
         22    1    3    3    0    0 -0.20640074312E+02  0.24827829521E+00  0.56042691630E+03  0.56080692116E+03  0.00000000000E+00 0. -1.
</event>
<event>
 7    1  0.6140348E-006  0.5402169E+02  0.7818608E-02  0.1565882E+00
          2   -1    0    0  502    0  0.00000000000E+00  0.00000000000E+00  0.26192162236E+03  0.26192162236E+03  0.00000000000E+00 0. -1.
          1   -1    0    0  501    0 -0.00000000000E+00 -0.00000000000E+00 -0.25905884787E+03  0.25905884787E+03  0.00000000000E+00 0. -1.
         25    2    1    2    0    0 -0.21496634848E+02 -0.51062880338E+02  0.13124073416E+03  0.18952424779E+03  0.12500314852E+03 0.  0.
          2    1    1    2  501    0  0.14022249653E+01  0.54050194643E+02 -0.22567464841E+03  0.23206127792E+03  0.00000000000E+00 0. -1.
          1    1    1    2  502    0  0.20094409883E+02 -0.29873143054E+01  0.97296688734E+02  0.99394944509E+02  0.00000000000E+00 0. -1.
         22    1    3    3    0    0 -0.11388742322E+02 -0.91737002624E+02  0.10580091562E+03  0.14049631614E+03  0.00000000000E+00 0. -1.
         22    1    3    3    0    0 -0.10107892526E+02  0.40674122287E+02  0.25439818546E+02  0.49027931659E+02  0.00000000000E+00 0. -1.
</event>
<event>
 7    1  0.6140348E-006  0.3192648E+02  0.7818608E-02  0.1643119E+00
          2   -1    0    0  502    0  0.00000000000E+00  0.00000000000E+00  0.90064317975E+03  0.90064317975E+03  0.00000000000E+00 0. -1.
          1   -1    0    0  501    0 -0.00000000000E+00 -0.00000000000E+00 -0.14722516611E+03  0.14722516611E+03  0.00000000000E+00 0. -1.
         25    2    1    2    0    0  0.37497131960E+02 -0.37485908447E+02  0.82689366486E+02  0.15897852213E+03  0.12500164371E+03 0.  0.
          2    1    1    2  501    0 -0.20821612776E+02  0.23677236385E+02 -0.10664823837E+03  0.11121150044E+03  0.00000000000E+00 0. -1.
          1    1    1    2  502    0 -0.16675519184E+02  0.13808672063E+02  0.77737688553E+03  0.77767832329E+03  0.00000000000E+00 0. -1.
         22    1    3    3    0    0  0.48557780288E+02 -0.55320546608E+02 -0.60938292284E-01  0.73608590647E+02  0.00000000000E+00 0. -1.
         22    1    3    3    0    0 -0.11060648328E+02  0.17834638161E+02  0.82750304779E+02  0.85369931479E+02  0.00000000000E+00 0. -1.
</event>
<event>
 7    1  0.6140348E-006  0.1373240E+03  0.7818608E-02  0.1375057E+00
          2   -1    0    0  502    0  0.00000000000E+00  0.00000000000E+00  0.13650065426E+04  0.13650065426E+04  0.00000000000E+00 0. -1.
          1   -1    0    0  501    0 -0.00000000000E+00 -0.00000000000E+00 -0.93933606454E+02  0.93933606454E+02  0.00000000000E+00 0. -1.
         25    2    1    2    0    0 -0.78985238650E+02  0.85917777734E+02  0.10070765642E+03  0.19846074883E+03  0.12499641719E+03 0.  0.
          2    1    1    2  501    0 -0.31483333426E+02 -0.13091432995E+01 -0.35008295407E+02  0.47100901129E+02  0.00000000000E+00 0. -1.
          1    1    1    2  502    0  0.11046857208E+03 -0.84608634435E+02  0.12053735752E+04  0.12133784991E+04  0.00000000000E+00 0. -1.
         22    1    3    3    0    0 -0.68805013965E+02  0.22104551452E+02  0.11157314817E+03  0.13293347410E+03  0.00000000000E+00 0. -1.
         22    1    3    3    0    0 -0.10180224685E+02  0.63813226282E+02 -0.10865491754E+02  0.65527274735E+02  0.00000000000E+00 0. -1.
</event>
<event>
 7    1  0.6140348E-006  0.4712000E+02  0.7818608E-02  0.1469383E+00
          2   -1    0    0  502    0  0.00000000000E+00  0.00000000000E+00  0.26158404296E+03  0.26158404296E+03  0.00000000000E+00 0. -1.
          1   -1    0    0  501    0 -0.00000000000E+00 -0.00000000000E+00 -0.27850510572E+04  0.27850510572E+04  0.00000000000E+00 0. -1.
         25    2    1    2    0    0  0.17911690087E+02 -0.79633206845E+01 -0.12887662866E+04  0.12949571196E+04  0.12494461515E+03 0.  0.
          2    1    1    2  501    0 -0.44510540481E+02 -0.27743626308E+02 -0.14908073788E+04  0.14917297133E+04  0.00000000000E+00 0. -1.
          1    1    1    2  502    0  0.26598850395E+02  0.35706946993E+02  0.25610665114E+03  0.25994826728E+03  0.00000000000E+00 0. -1.
         22    1    3    3    0    0  0.46324646422E+02 -0.17997574705E+02 -0.12034529933E+04  0.12044787223E+04  0.00000000000E+00 0.  1.
         22    1    3    3    0    0 -0.28412956335E+02  0.10034254020E+02 -0.85313293363E+02  0.90478397234E+02  0.00000000000E+00 0.  1.
</event>
<event>
 7    1  0.6140348E-006  0.2342491E+03  0.7818608E-02  0.1315369E+00
          2   -1    0    0  502    0  0.00000000000E+00  0.00000000000E+00  0.22589540344E+04  0.22589540344E+04  0.00000000000E+00 0. -1.
          1   -1    0    0  501    0 -0.00000000000E+00 -0.00000000000E+00 -0.81086722640E+03  0.81086722640E+03  0.00000000000E+00 0. -1.
         25    2    1    2    0    0 -0.15113206214E+03 -0.17923055435E+03  0.31812508891E+03  0.41447957919E+03  0.12500103021E+03 0.  0.
          2    1    1    2  501    0  0.17328752571E+03  0.15774714012E+03 -0.74456028462E+03  0.78056565657E+03  0.00000000000E+00 0. -1.
          1    1    1    2  502    0 -0.22155463567E+02  0.21483414227E+02  0.18745220037E+04  0.18747760250E+04  0.00000000000E+00 0. -1.
         22    1    3    3    0    0 -0.73472083156E+02 -0.11266869535E+02  0.13515902870E+03  0.15424996723E+03  0.00000000000E+00 0.  1.
         22    1    3    3    0    0 -0.77659978986E+02 -0.16796368481E+03  0.18296606022E+03  0.26022961196E+03  0.00000000000E+00 0.  1.
</event>
<event>
 7    1  0.6140348E-006  0.7165786E+02  0.7818608E-02  0.1481472E+00
          2   -1    0    0  502    0  0.00000000000E+00  0.00000000000E+00  0.13520898925E+04  0.13520898925E+04  0.00000000000E+00 0. -1.
          1   -1    0    0  501    0 -0.00000000000E+00 -0.00000000000E+00 -0.15473138108E+04  0.15473138108E+04  0.00000000000E+00 0. -1.
         25    2    1    2    0    0  0.68334602029E+02  0.42877535225E+02  0.14758152058E+02  0.14950201851E+03  0.12499979850E+03 0.  0.
          2    1    1    2  501    0 -0.23534621272E+02  0.12960583875E+02 -0.14788108805E+04  0.14790549264E+04  0.00000000000E+00 0. -1.
          1    1    1    2  502    0 -0.44799980757E+02 -0.55838119100E+02  0.12688288102E+04  0.12708467584E+04  0.00000000000E+00 0. -1.
         22    1    3    3    0    0  0.25927336412E+01  0.28483016624E+02  0.61322429870E+02  0.67664207000E+02  0.00000000000E+00 0. -1.
         22    1    3    3    0    0  0.65741868388E+02  0.14394518601E+02 -0.46564277812E+02  0.81837811511E+02  0.00000000000E+00 0. -1.
</event>
<event>
 7    1  0.6140348E-006  0.1154360E+03  0.7818608E-02  0.1287131E+00
          2   -1    0    0  502    0  0.00000000000E+00  0.00000000000E+00  0.69522811438E+03  0.69522811438E+03  0.00000000000E+00 0. -1.
          1   -1    0    0  501    0 -0.00000000000E+00 -0.00000000000E+00 -0.10945009133E+03  0.10945009133E+03  0.00000000000E+00 0. -1.
         25    2    1    2    0    0  0.81620846505E+02  0.11836588825E+03  0.16901051677E+03  0.25467999446E+03  0.12499959485E+03 0.  0.
          2    1    1    2  501    0 -0.81097472934E+02 -0.41653939830E+01 -0.31734472541E+02  0.87185018040E+02  0.00000000000E+00 0. -1.
          1    1    1    2  502    0 -0.52337357102E+00 -0.11420049426E+03  0.44850197882E+03  0.46281319322E+03  0.00000000000E+00 0. -1.
         22    1    3    3    0    0  0.11149896574E+03  0.76383514082E+02  0.14369577188E+03  0.19726868844E+03  0.00000000000E+00 0. -1.
         22    1    3    3    0    0 -0.29878119233E+02  0.41982374163E+02  0.25314744895E+02  0.57411306015E+02  0.00000000000E+00 0. -1.
</event>
<event>
 7    1  0.6140348E-006  0.7400285E+02  0.7818608E-02  0.1410788E+00
          2   -1    0    0  502    0  0.00000000000E+00  0.00000000000E+00  0.55642229645E+03  0.55642229645E+03  0.00000000000E+00 0. -1.
          1   -1    0    0  501    0 -0.00000000000E+00 -0.00000000000E+00 -0.52623139157E+03  0.52623139157E+03  0.00000000000E+00 0. -1.
         25    2    1    2    0    0 -0.36506988380E+02 -0.11003077982E+02  0.35931740879E+02  0.13553896239E+03  0.12500356954E+03 0.  0.
          2    1    1    2  501    0 -0.22231903613E+02 -0.37891598209E+02 -0.47229928095E+03  0.47433810888E+03  0.00000000000E+00 0. -1.
          1    1    1    2  502    0  0.58738891993E+02  0.48894676191E+02  0.46655844495E+03  0.47277661675E+03  0.00000000000E+00 0. -1.
         22    1    3    3    0    0 -0.60489091072E+02 -0.48479721717E+02  0.45698485649E+02  0.89986472022E+02  0.00000000000E+00 0. -1.
         22    1    3    3    0    0  0.23982102692E+02  0.37476643735E+02 -0.97667447695E+01  0.45552490366E+02  0.00000000000E+00 0. -1.
</event>
<event>
 7    1  0.6140348E-006  0.7255612E+02  0.7818608E-02  0.1409316E+00
          2   -1    0    0  502    0  0.00000000000E+00  0.00000000000E+00  0.84125336940E+03  0.84125336940E+03  0.00000000000E+00 0. -1.
          1   -1    0    0  501    0 -0.00000000000E+00 -0.00000000000E+00 -0.91119458927E+02  0.91119458927E+02  0.00000000000E+00 0. -1.
         25    2    1    2    0    0  0.72887383786E+02 -0.65808244949E+02  0.30551451825E+03  0.34439447743E+03  0.12500055761E+03 0.  0.
          2    1    1    2  501    0 -0.27562551885E+02  0.66096978238E+02 -0.52500482169E+02  0.88796426879E+02  0.00000000000E+00 0. -1.
          1    1    1    2  502    0 -0.45324831901E+02 -0.28873328908E+00  0.49711987439E+03  0.49918192402E+03  0.00000000000E+00 0. -1.
         22    1    3    3    0    0  0.10594600836E+03 -0.29833253325E+02  0.20815579121E+03  0.23546425016E+03  0.00000000000E+00 0.  1.
         22    1    3    3    0    0 -0.33058624571E+02 -0.35974991623E+02  0.97358727042E+02  0.10893022727E+03  0.00000000000E+00 0.  1.
</event>
<event>
 7    1  0.6140348E-006  0.8240442E+02  0.7818608E-02  0.1411516E+00
          2   -1    0    0  502    0  0.00000000000E+00  0.00000000000E+00  0.73667596947E+03  0.73667596947E+03  0.00000000000E+00 0. -1.
          1   -1    0    0  501    0 -0.00000000000E+00 -0.00000000000E+00 -0.49867682654E+03  0.49867682654E+03  0.00000000000E+00 0. -1.
         25    2    1    2    0    0  0.53540842760E+02  0.85444405087E+02  0.27262088830E+03  0.31640816809E+03  0.12499844756E+03 0.  0.
          2    1    1    2  501    0 -0.38681373433E+02 -0.65367899095E+01 -0.47231799856E+03  0.47394437441E+03  0.00000000000E+00 0. -1.
          1    1    1    2  502    0 -0.14859469328E+02 -0.78907615177E+02  0.43769625319E+03  0.44500025351E+03  0.00000000000E+00 0. -1.
         22    1    3    3    0    0  0.23999158716E+02  0.77986948557E+02  0.59165645005E+02  0.10078937103E+03  0.00000000000E+00 0. -1.
         22    1    3    3    0    0  0.29541684044E+02  0.74574565296E+01  0.21345524329E+03  0.21561879705E+03  0.00000000000E+00 0. -1.
</event>
<event>
 7    1  0.6140348E-006  0.2126673E+03  0.7818608E-02  0.1180450E+00
          2   -1    0    0  502    0  0.00000000000E+00  0.00000000000E+00  0.62991353193E+03  0.62991353193E+03  0.00000000000E+00 0. -1.
          1   -1    0    0  501    0 -0.00000000000E+00 -0.00000000000E+00 -0.91323798597E+03  0.91323798597E+03  0.00000000000E+00 0. -1.
         25    2    1    2    0    0 -0.31823191552E+03 -0.13778152375E+02  0.10020324964E+03  0.35654827395E+03  0.12499836351E+03 0.  0.
          2    1    1    2  501    0  0.19651695451E+03  0.64784833308E+02 -0.76000275974E+03  0.78766755858E+03  0.00000000000E+00 0. -1.
          1    1    1    2  502    0  0.12171496101E+03 -0.51006680933E+02  0.37647505605E+03  0.39893568537E+03  0.00000000000E+00 0. -1.
         22    1    3    3    0    0 -0.31488345392E+03  0.11208453510E+02  0.10224157863E+03  0.33125603297E+03  0.00000000000E+00 0. -1.
         22    1    3    3    0    0 -0.33484616051E+01 -0.24986605885E+02 -0.20383289855E+01  0.25292240981E+02  0.00000000000E+00 0. -1.
</event>
<event>
 7    1  0.6140348E-006  0.1484400E+03  0.7818608E-02  0.1326373E+00
          2   -1    0    0  502    0  0.00000000000E+00  0.00000000000E+00  0.11666487098E+04  0.11666487098E+04  0.00000000000E+00 0. -1.
          1   -1    0    0  501    0 -0.00000000000E+00 -0.00000000000E+00 -0.47778658704E+03  0.47778658704E+03  0.00000000000E+00 0. -1.
         25    2    1    2    0    0  0.77962941159E+02 -0.16567734076E+03  0.44734154394E+03  0.49926585788E+03  0.12499895390E+03 0.  0.
          2    1    1    2  501    0 -0.21706703001E+02  0.38441330967E+02 -0.44373968123E+03  0.44593028780E+03  0.00000000000E+00 0. -1.
          1    1    1    2  502    0 -0.56256238158E+02  0.12723600979E+03  0.68526026003E+03  0.69923915115E+03  0.00000000000E+00 0. -1.
         22    1    3    3    0    0  0.15599924023E+02 -0.15253261213E+03  0.26569340621E+03  0.30676137550E+03  0.00000000000E+00 0.  1.
         22    1    3    3    0    0  0.62363017136E+02 -0.13144728624E+02  0.18164813773E+03  0.19250448238E+03  0.00000000000E+00 0.  1.
</event>
<event>
 7    1  0.6140348E-006  0.1693564E+03  0.7818608E-02  0.1299621E+00
          2   -1    0    0  502    0  0.00000000000E+00  0.00000000000E+00  0.23786659556E+04  0.23786659556E+04  0.00000000000E+00 0. -1.
          1   -1    0    0  501    0 -0.00000000000E+00 -0.00000000000E+00 -0.50050922229E+03  0.50050922229E+03  0.00000000000E+00 0. -1.
         25    2    1    2    0    0  0.18571076662E+03  0.10766622582E+02  0.14392222574E+03  0.26635199148E+03  0.12500146922E+03 0.  0.
          2    1    1    2  501    0 -0.25450250777E+02  0.42189292181E+02 -0.43462361557E+03  0.43740752034E+03  0.00000000000E+00 0. -1.
          1    1    1    2  502    0 -0.16026051584E+03 -0.52955914763E+02  0.21688581231E+04  0.21754156660E+04  0.00000000000E+00 0. -1.
         22    1    3    3    0    0  0.11732948562E+03  0.48529298723E+02  0.13873328236E+03  0.18806441626E+03  0.00000000000E+00 0.  1.
         22    1    3    3    0    0  0.68381281001E+02 -0.37762676141E+02  0.51889433786E+01  0.78287575221E+02  0.00000000000E+00 0.  1.
</event>
<event>
 7    1  0.6140348E-006  0.7307253E+02  0.7818608E-02  0.1384699E+00
          2   -1    0    0  502    0  0.00000000000E+00  0.00000000000E+00  0.51026429145E+03  0.51026429145E+03  0.00000000000E+00 0. -1.
          1   -1    0    0  501    0 -0.00000000000E+00 -0.00000000000E+00 -0.58756129587E+03  0.58756129587E+03  0.00000000000E+00 0. -1.
         25    2    1    2    0    0 -0.72550166536E+01 -0.86329322458E+02 -0.11328676923E+03  0.18964009993E+03  0.12499635289E+03 0.  0.
          2    1    1    2  501    0  0.50725449077E+02  0.53063134022E+02 -0.43140008086E+03  0.43760118503E+03  0.00000000000E+00 0. -1.
          1    1    1    2  502    0 -0.43470432423E+02  0.33266188436E+02  0.46738984567E+03  0.47058430236E+03  0.00000000000E+00 0. -1.
         22    1    3    3    0    0  0.39292379288E+01  0.12740313033E+02 -0.84953499577E+02  0.85993322865E+02  0.00000000000E+00 0. -1.
         22    1    3    3    0    0 -0.11184254582E+02 -0.99069635491E+02 -0.28333269652E+02  0.10364677707E+03  0.00000000000E+00 0. -1.
</event>
<event>
 7    1  0.6140348E-006  0.7364067E+02  0.7818608E-02  0.1356362E+00
          2   -1    0    0  502    0  0.00000000000E+00  0.00000000000E+00  0.80986873522E+03  0.80986873522E+03  0.00000000000E+00 0. -1.
          1   -1    0    0  501    0 -0.00000000000E+00 -0.00000000000E+00 -0.20605311784E+03  0.20605311784E+03  0.00000000000E+00 0. -1.
         25    2    1    2    0    0 -0.61315136026E+02  0.73992662285E+01  0.58298023755E+03  0.59942133110E+03  0.12500271901E+03 0.  0.
          2    1    1    2  501    0  0.29275292152E+02 -0.68130036096E+02 -0.18510987615E+03  0.19941015721E+03  0.00000000000E+00 0. -1.
          1    1    1    2  502    0  0.32039843875E+02  0.60730769868E+02  0.20594525598E+03  0.21709036474E+03  0.00000000000E+00 0. -1.
         22    1    3    3    0    0 -0.78777715017E+02 -0.15698610073E+02  0.20263558475E+03  0.21797604215E+03  0.00000000000E+00 0. -1.
         22    1    3    3    0    0  0.17462578991E+02  0.23097876302E+02  0.38034465280E+03  0.38144528896E+03  0.00000000000E+00 0. -1.
</event>
<event>
 7    1  0.6140348E-006  0.1175508E+03  0.7818608E-02  0.1447280E+00
          2   -1    0    0  502    0  0.00000000000E+00  0.00000000000E+00  0.95078456270E+03  0.95078456270E+03  0.00000000000E+00 0. -1.
          1   -1    0    0  501    0 -0.00000000000E+00 -0.00000000000E+00 -0.64888728471E+03  0.64888728471E+03  0.00000000000E+00 0. -1.
         25    2    1    2    0    0  0.44670114828E+02 -0.91755540042E+02  0.28439772150E+03  0.32699117759E+03  0.12500667160E+03 0.  0.
          2    1    1    2  501    0  0.15669252744E+01 -0.20905703992E+02 -0.62166486581E+03  0.62201825463E+03  0.00000000000E+00 0. -1.
          1    1    1    2  502    0 -0.46237040102E+02  0.11266124403E+03  0.63916442231E+03  0.65066241519E+03  0.00000000000E+00 0. -1.
         22    1    3    3    0    0 -0.26725066963E+02 -0.27061353550E+02  0.15002241692E+02  0.40885367993E+02  0.00000000000E+00 0.  1.
         22    1    3    3    0    0  0.71395181790E+02 -0.64694186492E+02  0.26939547980E+03  0.28610580960E+03  0.00000000000E+00 0.  1.
</event>
<event>
 7    1  0.6140348E-006  0.5143722E+02  0.7818608E-02  0.1556123E+00
          2   -1    0    0  502    0  0.00000000000E+00  0.00000000000E+00  0.10113869243E+04  0.10113869243E+04  0.00000000000E+00 0. -1.
          1   -1    0    0  501    0 -0.00000000000E+00 -0.00000000000E+00 -0.48036144399E+03  0.48036144399E+03  0.00000000000E+00 0. -1.
         25    2    1    2    0    0 -0.21802227506E+02 -0.28227428271E+02 -0.61564513828E+02  0.14383820019E+03  0.12500845428E+03 0.  0.
          2    1    1    2  501    0  0.15242523201E+02  0.49954360392E+02 -0.37572077649E+03  0.37933346085E+03  0.00000000000E+00 0. -1.
          1    1    1    2  502    0  0.65597043055E+01 -0.21726932121E+02  0.96831077064E+03  0.96857670726E+03  0.00000000000E+00 0. -1.
         22    1    3    3    0    0  0.18605028295E+02 -0.39321745480E+02 -0.85248047181E+02  0.95705675347E+02  0.00000000000E+00 0.  1.
         22    1    3    3    0    0 -0.40407255802E+02  0.11094317208E+02  0.23683533353E+02  0.48132524844E+02  0.00000000000E+00 0.  1.
</event>
<event>
 7    1  0.6140348E-006  0.1231528E+03  0.7818608E-02  0.1311863E+00
          2   -1    0    0  502    0  0.00000000000E+00  0.00000000000E+00  0.81534856728E+03  0.81534856728E+03  0.00000000000E+00 0. -1.
          1   -1    0    0  501    0 -0.00000000000E+00 -0.00000000000E+00 -0.12725895289E+04  0.12725895289E+04  0.00000000000E+00 0. -1.
         25    2    1    2    0    0  0.31964929762E+02  0.80730184645E+02 -0.10532891850E+03  0.18508933321E+03  0.12499904298E+03 0.  0.
          2    1    1    2  501    0  0.72718485695E+01 -0.12689572722E+03 -0.11226052048E+04  0.11297777884E+04  0.00000000000E+00 0. -1.
          1    1    1    2  502    0 -0.39236778332E+02  0.46165542572E+02  0.77069316173E+03  0.77307097451E+03  0.00000000000E+00 0. -1.
         22    1    3    3    0    0  0.73065576701E+02  0.81816692532E+02 -0.87313650870E+02  0.14020065372E+03  0.00000000000E+00 0. -1.
         22    1    3    3    0    0 -0.41100646939E+02 -0.10865078871E+01 -0.18015267632E+02  0.44888679486E+02  0.00000000000E+00 0. -1.
</event>
<event>
 7    1  0.6140348E-006  0.2074762E+03  0.7818608E-02  0.1332886E+00
          2   -1    0    0  502    0  0.00000000000E+00  0.00000000000E+00  0.14914652604E+04  0.14914652604E+04  0.00000000000E+00 0. -1.
          1   -1    0    0  501    0 -0.00000000000E+00 -0.00000000000E+00 -0.12177939526E+04  0.12177939526E+04  0.00000000000E+00 0. -1.
         25    2    1    2    0    0  0.14751050328E+03 -0.14148651426E+03  0.18662575816E+03  0.30369716916E+03  0.12500005860E+03 0.  0.
          2    1    1    2  501    0 -0.16895293155E+03  0.12075562800E+03 -0.11497764632E+04  0.11683804732E+04  0.00000000000E+00 0. -1.
          1    1    1    2  502    0  0.21442428270E+02  0.20730886265E+02  0.12368220129E+04  0.12371815707E+04  0.00000000000E+00 0. -1.
         22    1    3    3    0    0  0.12365408763E+03 -0.67521583065E+02  0.17570764659E+03  0.22521695016E+03  0.00000000000E+00 0.  1.
         22    1    3    3    0    0  0.23856415651E+02 -0.73964931198E+02  0.10918111571E+02  0.78480219005E+02  0.00000000000E+00 0.  1.
</event>
<event>
 7    1  0.6140348E-006  0.2407282E+02  0.7818608E-02  0.1701050E+00
          2   -1    0    0  502    0  0.00000000000E+00  0.00000000000E+00  0.84522901646E+03  0.84522901646E+03  0.00000000000E+00 0. -1.
          1   -1    0    0  501    0 -0.00000000000E+00 -0.00000000000E+00 -0.14225436283E+03  0.14225436283E+03  0.00000000000E+00 0. -1.
         25    2    1    2    0    0 -0.42467874168E+01 -0.31801397522E+02  0.49566058405E+03  0.51218575469E+03  0.12500187454E+03 0.  0.
          2    1    1    2  501    0  0.17949379113E+02  0.16040224607E+02 -0.13258751192E+03  0.13475502712E+03  0.00000000000E+00 0. -1.
          1    1    1    2  502    0 -0.13702591696E+02  0.15761172915E+02  0.33990158150E+03  0.34054259748E+03  0.00000000000E+00 0. -1.
         22    1    3    3    0    0 -0.60988891704E+02  0.46675916139E+01  0.25679360031E+03  0.26397800000E+03  0.00000000000E+00 0. -1.
         22    1    3    3    0    0  0.56742104287E+02 -0.36468989136E+02  0.23886698374E+03  0.24820775469E+03  0.00000000000E+00 0. -1.
</event>
<event>
 7    1  0.6140348E-006  0.9707808E+02  0.7818608E-02  0.1335856E+00
          2   -1    0    0  502    0  0.00000000000E+00  0.00000000000E+00  0.12636946328E+04  0.12636946328E+04  0.00000000000E+00 0. -1.
          1   -1    0    0  501    0 -0.00000000000E+00 -0.00000000000E+00 -0.12216961672E+03  0.12216961672E+03  0.00000000000E+00 0. -1.
         25    2    1    2    0    0  0.10641780391E+03  0.23276272979E+02  0.88038369613E+02  0.18773278152E+03  0.12500523533E+03 0.  0.
          2    1    1    2  501    0 -0.16235229565E+02 -0.59950396095E+02 -0.56452095707E+02  0.83931351595E+02  0.00000000000E+00 0. -1.
          1    1    1    2  502    0 -0.90182574347E+02  0.36674123115E+02  0.11099387422E+04  0.11142001164E+04  0.00000000000E+00 0. -1.
         22    1    3    3    0    0 -0.28590191482E+02  0.33511204949E+01  0.97000993086E+01  0.30376322755E+02  0.00000000000E+00 0.  1.
         22    1    3    3    0    0  0.13500799539E+03  0.19925152484E+02  0.78338270304E+02  0.15735645877E+03  0.00000000000E+00 0.  1.
</event>
<event>
 7    1  0.6140348E-006  0.5941739E+02  0.7818608E-02  0.1458618E+00
          2   -1    0    0  502    0  0.00000000000E+00  0.00000000000E+00  0.10740553004E+04  0.10740553004E+04  0.00000000000E+00 0. -1.
          1   -1    0    0  501    0 -0.00000000000E+00 -0.00000000000E+00 -0.57393372037E+02  0.57393372037E+02  0.00000000000E+00 0. -1.
         25    2    1    2    0    0  0.87908746851E+02 -0.30241500077E+02  0.44874075958E+03  0.47501097826E+03  0.12499865626E+03 0.  0.
          2    1    1    2  501    0 -0.32776135801E+02  0.19552666188E+02 -0.34474292598E+02  0.51430134000E+02  0.00000000000E+00 0. -1.
          1    1    1    2  502    0 -0.55132611050E+02  0.10688833889E+02  0.60239546143E+03  0.60500756022E+03  0.00000000000E+00 0. -1.
         22    1    3    3    0    0  0.64621029826E+02 -0.51391643227E+02  0.43111721607E+03  0.43895219840E+03  0.00000000000E+00 0.  1.
         22    1    3    3    0    0  0.23287717025E+02  0.21150143150E+02  0.17623543507E+02  0.36058779864E+02  0.00000000000E+00 0.  1.
</event>
<event>
 7    1  0.9926792E-006  0.5491320E+02  0.7818608E-02  0.1432238E+00
          2   -1    0    0  502    0  0.00000000000E+00  0.00000000000E+00  0.13458645129E+04  0.13458645129E+04  0.00000000000E+00 0. -1.
          1   -1    0    0  501    0 -0.00000000000E+00 -0.00000000000E+00 -0.13517529200E+04  0.13517529200E+04  0.00000000000E+00 0. -1.
         25    2    1    2    0    0 -0.32236495832E+00 -0.66854947212E+01 -0.75271553068E+02  0.14609446026E+03  0.12503193536E+03 0.  0.
          2    1    1    2  501    0 -0.37024164594E+02 -0.33928025289E+02 -0.12399806834E+04  0.12409971777E+04  0.00000000000E+00 0. -1.
          1    1    1    2  502    0  0.37346529552E+02  0.40613520010E+02  0.13093638295E+04  0.13105257950E+04  0.00000000000E+00 0. -1.
         22    1    3    3    0    0 -0.60834082873E+02  0.11446575873E+02 -0.40700955446E+02  0.74083584635E+02  0.00000000000E+00 0.  1.
         22    1    3    3    0    0  0.60511717915E+02 -0.18132070594E+02 -0.34570597622E+02  0.72010875630E+02  0.00000000000E+00 0.  1.
</event>
<event>
 7    1  0.6140348E-006  0.9410290E+02  0.7818608E-02  0.1378147E+00
          2   -1    0    0  502    0  0.00000000000E+00  0.00000000000E+00  0.47558508964E+03  0.47558508964E+03  0.00000000000E+00 0. -1.
          1   -1    0    0  501    0 -0.00000000000E+00 -0.00000000000E+00 -0.26625840861E+03  0.26625840861E+03  0.00000000000E+00 0. -1.
         25    2    1    2    0    0 -0.56637410967E+02  0.49874435675E+02  0.30352592823E+03  0.33680808282E+03  0.12496575486E+03 0.  0.
          2    1    1    2  501    0  0.92162758594E+02 -0.22525525323E+02 -0.23704107557E+03  0.25532302065E+03  0.00000000000E+00 0. -1.
          1    1    1    2  502    0 -0.35525347627E+02 -0.27348910352E+02  0.14284182837E+03  0.14971239479E+03  0.00000000000E+00 0. -1.
         22    1    3    3    0    0  0.35621307208E+02  0.39385876099E+02  0.10730985059E+03  0.11973106864E+03  0.00000000000E+00 0.  1.
         22    1    3    3    0    0 -0.92258718175E+02  0.10488559575E+02  0.19621607764E+03  0.21707701418E+03  0.00000000000E+00 0.  1.
</event>
<event>
 7    1  0.6140348E-006  0.4293582E+02  0.7818608E-02  0.1571024E+00
          2   -1    0    0  502    0  0.00000000000E+00  0.00000000000E+00  0.25605854521E+04  0.25605854521E+04  0.00000000000E+00 0. -1.
          1   -1    0    0  501    0 -0.00000000000E+00 -0.00000000000E+00 -0.19213538764E+04  0.19213538764E+04  0.00000000000E+00 0. -1.
         25    2    1    2    0    0 -0.46093998944E+02 -0.83583954715E+01  0.10553114209E+04  0.10637200898E+04  0.12499485902E+03 0.  0.
          2    1    1    2  501    0  0.39991630744E+02 -0.15627327987E+02 -0.19168070916E+04  0.19172879206E+04  0.00000000000E+00 0. -1.
          1    1    1    2  502    0  0.61023682000E+01  0.23985723458E+02  0.15007272464E+04  0.15009313182E+04  0.00000000000E+00 0. -1.
         22    1    3    3    0    0 -0.43276594406E+01 -0.57250099112E+02  0.72089397058E+03  0.72317661695E+03  0.00000000000E+00 0. -1.
         22    1    3    3    0    0 -0.41766339503E+02  0.48891703641E+02  0.33441745030E+03  0.34054347280E+03  0.00000000000E+00 0. -1.
</event>
<event>
 7    1  0.6140348E-006  0.1033098E+03  0.7818608E-02  0.1308869E+00
          2   -1    0    0  502    0  0.00000000000E+00  0.00000000000E+00  0.29109827471E+03  0.29109827471E+03  0.00000000000E+00 0. -1.
          1   -1    0    0  501    0 -0.00000000000E+00 -0.00000000000E+00 -0.10764073270E+03  0.10764073270E+03  0.00000000000E+00 0. -1.
         25    2    1    2    0    0  0.85552354658E+02 -0.44853112011E+01  0.70919363546E+02  0.16733333062E+03  0.12502625327E+03 0.  0.
          2    1    1    2  501    0 -0.10631478485E+03 -0.66763686027E+02  0.53028726948E+02  0.13628011275E+03  0.00000000000E+00 0. -1.
          1    1    1    2  502    0  0.20762430197E+02  0.71248997228E+02  0.59509451519E+02  0.95125564039E+02  0.00000000000E+00 0. -1.
         22    1    3    3    0    0  0.72259938449E+02 -0.36808876408E+02  0.94988817433E+02  0.12489702768E+03  0.00000000000E+00 0.  1.
         22    1    3    3    0    0  0.13292416209E+02  0.32323565207E+02 -0.24069453887E+02  0.42436302935E+02  0.00000000000E+00 0.  1.
</event>
<event>
 7    1  0.6140348E-006  0.9065445E+02  0.7818608E-02  0.1325428E+00
          2   -1    0    0  502    0  0.00000000000E+00  0.00000000000E+00  0.30871415213E+03  0.30871415213E+03  0.00000000000E+00 0. -1.
          1   -1    0    0  501    0 -0.00000000000E+00 -0.00000000000E+00 -0.11077046757E+04  0.11077046757E+04  0.00000000000E+00 0. -1.
         25    2    1    2    0    0 -0.11902718442E+02  0.60987200665E+02 -0.36363338060E+03  0.38949567922E+03  0.12496613661E+03 0.  0.
          2    1    1    2  501    0 -0.70087700320E+02 -0.20031261056E+02 -0.72216139050E+03  0.72583097970E+03  0.00000000000E+00 0. -1.
          1    1    1    2  502    0  0.81990418761E+02 -0.40955939609E+02  0.28680424754E+03  0.30109216889E+03  0.00000000000E+00 0. -1.
         22    1    3    3    0    0 -0.33202799221E+02  0.81785959951E+02 -0.15193737360E+03  0.17571663159E+03  0.00000000000E+00 0. -1.
         22    1    3    3    0    0  0.21300080779E+02 -0.20798759285E+02 -0.21169600699E+03  0.21377904763E+03  0.00000000000E+00 0. -1.
</event>
<event>
 7    1  0.6140348E-006  0.1117564E+03  0.7818608E-02  0.1338422E+00
          2   -1    0    0  502    0  0.00000000000E+00  0.00000000000E+00  0.15181666520E+02  0.15181666520E+02  0.00000000000E+00 0. -1.
          1   -1    0    0  501    0 -0.00000000000E+00 -0.00000000000E+00 -0.27976837924E+04  0.27976837924E+04  0.00000000000E+00 0. -1.
         25    2    1    2    0    0 -0.88541133692E+02 -0.94314779028E+01 -0.50608888061E+03  0.52885199590E+03  0.12501997181E+03 0.  0.
          2    1    1    2  501    0  0.10976531162E+03 -0.38872269270E+02 -0.19396526638E+04  0.19431448564E+04  0.00000000000E+00 0. -1.
          1    1    1    2  502    0 -0.21224177933E+02  0.48303747173E+02 -0.33676058147E+03  0.34086860658E+03  0.00000000000E+00 0. -1.
         22    1    3    3    0    0 -0.79671227964E+02 -0.61513970805E+02 -0.33159059752E+03  0.34653109173E+03  0.00000000000E+00 0. -1.
         22    1    3    3    0    0 -0.88699057281E+01  0.52082492903E+02 -0.17449828309E+03  0.18232090417E+03  0.00000000000E+00 0. -1.
</event>
<event>
 7    1  0.6140348E-006  0.9960011E+02  0.7818608E-02  0.1313785E+00
          2   -1    0    0  502    0  0.00000000000E+00  0.00000000000E+00  0.32959076167E+03  0.32959076167E+03  0.00000000000E+00 0. -1.
          1   -1    0    0  501    0 -0.00000000000E+00 -0.00000000000E+00 -0.24230590198E+03  0.24230590198E+03  0.00000000000E+00 0. -1.
         25    2    1    2    0    0  0.39091658670E+02 -0.28773264609E+02 -0.40286767966E+01  0.13415428012E+03  0.12500032842E+03 0.  0.
          2    1    1    2  501    0 -0.35256887128E+00 -0.73623742695E+02 -0.15312560382E+03  0.16990594557E+03  0.00000000000E+00 0. -1.
          1    1    1    2  502    0 -0.38739089799E+02  0.10239700730E+03  0.24443914031E+03  0.26783643796E+03  0.00000000000E+00 0. -1.
         22    1    3    3    0    0 -0.18872948333E+02  0.39923263947E+02 -0.30578685079E+01  0.44265175282E+02  0.00000000000E+00 0. -1.
         22    1    3    3    0    0  0.57964607003E+02 -0.68696528556E+02 -0.97080828870E+00  0.89889104843E+02  0.00000000000E+00 0. -1.
</event>
<event>
 7    1  0.6140348E-006  0.5044156E+02  0.7818608E-02  0.1498222E+00
          2   -1    0    0  502    0  0.00000000000E+00  0.00000000000E+00  0.89726197690E+03  0.89726197690E+03  0.00000000000E+00 0. -1.
          1   -1    0    0  501    0 -0.00000000000E+00 -0.00000000000E+00 -0.11240806172E+03  0.11240806172E+03  0.00000000000E+00 0. -1.
         25    2    1    2    0    0 -0.48596219111E+02 -0.12751146588E+02  0.62552438369E+03  0.63986626450E+03  0.12499559031E+03 0.  0.
          2    1    1    2  501    0 -0.61179465452E+00  0.33957839519E+02 -0.99681310294E+02  0.10530846490E+03  0.00000000000E+00 0. -1.
          1    1    1    2  502    0  0.49208013766E+02 -0.21206692932E+02  0.25901084178E+03  0.26449530923E+03  0.00000000000E+00 0. -1.
         22    1    3    3    0    0 -0.49994254472E+02 -0.26686021477E+02  0.10638235511E+03  0.12053536702E+03  0.00000000000E+00 0. -1.
         22    1    3    3    0    0  0.13980353606E+01  0.13934874889E+02  0.51914202858E+03  0.51933089748E+03  0.00000000000E+00 0. -1.
</event>
<event>
 7    1  0.6140348E-006  0.1069936E+03  0.7818608E-02  0.1417525E+00
          2   -1    0    0  502    0  0.00000000000E+00  0.00000000000E+00  0.62697671528E+03  0.62697671528E+03  0.00000000000E+00 0. -1.
          1   -1    0    0  501    0 -0.00000000000E+00 -0.00000000000E+00 -0.71042328784E+02  0.71042328784E+02  0.00000000000E+00 0. -1.
         25    2    1    2    0    0  0.63932834212E+02 -0.71465313289E+02  0.18341313346E+03  0.24178953535E+03  0.12500841405E+03 0.  0.
          2    1    1    2  501    0 -0.12241937106E+02 -0.26111752081E+02 -0.28342591264E+02  0.40435023191E+02  0.00000000000E+00 0. -1.
          1    1    1    2  502    0 -0.51690897106E+02  0.97577065370E+02  0.40086384430E+03  0.41579448553E+03  0.00000000000E+00 0. -1.
         22    1    3    3    0    0  0.90533073461E+02 -0.37667143128E+02  0.69953940303E+02  0.12045167008E+03  0.00000000000E+00 0. -1.
         22    1    3    3    0    0 -0.26600239249E+02 -0.33798170161E+02  0.11345919316E+03  0.12133786526E+03  0.00000000000E+00 0. -1.
</event>
<event>
 7    1  0.6140348E-006  0.5353324E+02  0.7818608E-02  0.1432306E+00
          2   -1    0    0  502    0  0.00000000000E+00  0.00000000000E+00  0.17640261087E+04  0.17640261087E+04  0.00000000000E+00 0. -1.
          1   -1    0    0  501    0 -0.00000000000E+00 -0.00000000000E+00 -0.30687578078E+03  0.30687578078E+03  0.00000000000E+00 0. -1.
         25    2    1    2    0    0 -0.40192721469E+02  0.47543132803E+02  0.38105438189E+03  0.40583652867E+03  0.12500016683E+03 0.  0.
          2    1    1    2  501    0 -0.13917249997E+02 -0.49569835579E+02 -0.29169449473E+03  0.29620353932E+03  0.00000000000E+00 0. -1.
          1    1    1    2  502    0  0.54109971467E+02  0.20267027762E+01  0.13677904408E+04  0.13688618216E+04  0.00000000000E+00 0. -1.
         22    1    3    3    0    0 -0.47142229772E+02 -0.17989198147E+02  0.61463510617E+02  0.79522098911E+02  0.00000000000E+00 0. -1.
         22    1    3    3    0    0  0.69495083025E+01  0.65532330950E+02  0.31959087127E+03  0.32631442975E+03  0.00000000000E+00 0. -1.
</event>
<event>
 7    1  0.6140348E-006  0.4174233E+02  0.7818608E-02  0.1517331E+00
          2   -1    0    0  502    0  0.00000000000E+00  0.00000000000E+00  0.82955018169E+02  0.82955018169E+02  0.00000000000E+00 0. -1.
          1   -1    0    0  501    0 -0.00000000000E+00 -0.00000000000E+00 -0.44953586985E+03  0.44953586985E+03  0.00000000000E+00 0. -1.
         25    2    1    2    0    0  0.63121900376E+00  0.30034525079E+02 -0.65152135026E+02  0.14412759226E+03  0.12500196406E+03 0.  0.
          2    1    1    2  501    0  0.35733733719E+02 -0.46972238005E+01 -0.33236469162E+03  0.33431310455E+03  0.00000000000E+00 0. -1.
          1    1    1    2  502    0 -0.36364952723E+02 -0.25337301278E+02  0.30935974965E+02  0.54050191208E+02  0.00000000000E+00 0. -1.
         22    1    3    3    0    0  0.29908294954E+02 -0.30464198773E+02  0.94393977370E+01  0.43722714275E+02  0.00000000000E+00 0.  1.
         22    1    3    3    0    0 -0.29277075950E+02  0.60498723852E+02 -0.74591532763E+02  0.10040487799E+03  0.00000000000E+00 0.  1.
</event>
<event>
 7    1  0.6140348E-006  0.1215018E+03  0.7818608E-02  0.1290617E+00
          2   -1    0    0  502    0  0.00000000000E+00  0.00000000000E+00  0.16264030195E+04  0.16264030195E+04  0.00000000000E+00 0. -1.
          1   -1    0    0  501    0 -0.00000000000E+00 -0.00000000000E+00 -0.54444189641E+03  0.54444189641E+03  0.00000000000E+00 0. -1.
         25    2    1    2    0    0  0.45557415039E+02 -0.11198875502E+03  0.58604994937E+03  0.61131044289E+03  0.12501581944E+03 0.  0.
          2    1    1    2  501    0 -0.10324076107E+03  0.64576000869E+02 -0.52345733411E+03  0.53743492189E+03  0.00000000000E+00 0. -1.
          1    1    1    2  502    0  0.57683346036E+02  0.47412754150E+02  0.10193685079E+04  0.10220995512E+04  0.00000000000E+00 0. -1.
         22    1    3    3    0    0  0.69447187753E+02 -0.20353181565E+02  0.17266572755E+03  0.18721810104E+03  0.00000000000E+00 0.  1.
         22    1    3    3    0    0 -0.23889772714E+02 -0.91635573453E+02  0.41338422182E+03  0.42409234185E+03  0.00000000000E+00 0.  1.
</event>
<event>
 7    1  0.6140348E-006  0.6255533E+02  0.7818608E-02  0.1402738E+00
          2   -1    0    0  502    0  0.00000000000E+00  0.00000000000E+00  0.19349760151E+03  0.19349760151E+03  0.00000000000E+00 0. -1.
          1   -1    0    0  501    0 -0.00000000000E+00 -0.00000000000E+00 -0.51752243948E+03  0.51752243948E+03  0.00000000000E+00 0. -1.
         25    2    1    2    0    0  0.26039234650E+02 -0.79780892169E+02 -0.18172662843E+03  0.23599299246E+03  0.12500037005E+03 0.  0.
          2    1    1    2  501    0  0.27744245311E+02  0.47902884183E+02 -0.30016699925E+03  0.30522885987E+03  0.00000000000E+00 0. -1.
          1    1    1    2  502    0 -0.53783479961E+02  0.31878007986E+02  0.15786878970E+03  0.16979818866E+03  0.00000000000E+00 0. -1.
         22    1    3    3    0    0 -0.25928686729E+02 -0.83197200105E+02 -0.15411367714E+03  0.17704546417E+03  0.00000000000E+00 0. -1.
         22    1    3    3    0    0  0.51967921379E+02  0.34163079364E+01 -0.27612951289E+02  0.58947528288E+02  0.00000000000E+00 0. -1.
</event>
<event>
 7    1  0.6140348E-006  0.4600824E+03  0.7818608E-02  0.1173332E+00
          2   -1    0    0  502    0  0.00000000000E+00  0.00000000000E+00  0.44711003908E+03  0.44711003908E+03  0.00000000000E+00 0. -1.
          1   -1    0    0  501    0 -0.00000000000E+00 -0.00000000000E+00 -0.22368052588E+04  0.22368052588E+04  0.00000000000E+00 0. -1.
         25    2    1    2    0    0  0.43091447235E+03 -0.21669496168E+03  0.13542254569E+03  0.51634099451E+03  0.12499907132E+03 0.  0.
          2    1    1    2  501    0 -0.63994317325E+02  0.16595138845E+02 -0.16835495678E+04  0.16848471202E+04  0.00000000000E+00 0. -1.
          1    1    1    2  502    0 -0.36692015502E+03  0.20009982284E+03 -0.24156819761E+03  0.48272718316E+03  0.00000000000E+00 0. -1.
         22    1    3    3    0    0  0.10518850882E+03 -0.53122481469E+00  0.48669005543E+02  0.11590330749E+03  0.00000000000E+00 0. -1.
         22    1    3    3    0    0  0.32572596353E+03 -0.21616373687E+03  0.86753540144E+02  0.40043768701E+03  0.00000000000E+00 0. -1.
</event>
<event>
 7    1  0.6140348E-006  0.8435927E+02  0.7818608E-02  0.1457940E+00
          2   -1    0    0  502    0  0.00000000000E+00  0.00000000000E+00  0.17274718746E+02  0.17274718746E+02  0.00000000000E+00 0. -1.
          1   -1    0    0  501    0 -0.00000000000E+00 -0.00000000000E+00 -0.15178725747E+04  0.15178725747E+04  0.00000000000E+00 0. -1.
         25    2    1    2    0    0 -0.24512008574E+02  0.94688722478E+02 -0.96958416145E+03  0.98248967337E+03  0.12500287762E+03 0.  0.
          2    1    1    2  501    0  0.24114364100E+02 -0.12176111848E+02 -0.37670935863E+03  0.37767671511E+03  0.00000000000E+00 0. -1.
          1    1    1    2  502    0  0.39764447364E+00 -0.82512610630E+02 -0.15430433587E+03  0.17498090497E+03  0.00000000000E+00 0. -1.
         22    1    3    3    0    0  0.46004990842E+02  0.24944698547E+02 -0.48803426661E+03  0.49083209202E+03  0.00000000000E+00 0. -1.
         22    1    3    3    0    0 -0.70516999415E+02  0.69744023930E+02 -0.48154989483E+03  0.49165758135E+03  0.00000000000E+00 0. -1.
</event>
<event>
 7    1  0.6140348E-006  0.7531085E+02  0.7818608E-02  0.1509273E+00
          2   -1    0    0  502    0  0.00000000000E+00  0.00000000000E+00  0.49789540535E+03  0.49789540535E+03  0.00000000000E+00 0. -1.
          1   -1    0    0  501    0 -0.00000000000E+00 -0.00000000000E+00 -0.97552787840E+03  0.97552787840E+03  0.00000000000E+00 0. -1.
         25    2    1    2    0    0  0.39998474255E+02 -0.58427846191E+02  0.24585203518E+03  0.28474881583E+03  0.12499989504E+03 0.  0.
          2    1    1    2  501    0 -0.14952405511E+02 -0.14877030773E+02 -0.94950915629E+03  0.94974340658E+03  0.00000000000E+00 0. -1.
          1    1    1    2  502    0 -0.25046068744E+02  0.73304876964E+02  0.22602464805E+03  0.23893106134E+03  0.00000000000E+00 0. -1.
         22    1    3    3    0    0  0.75320870988E-01  0.38380012453E+02  0.55200994079E+02  0.67232289686E+02  0.00000000000E+00 0. -1.
         22    1    3    3    0    0  0.39923153384E+02 -0.96807858644E+02  0.19065104111E+03  0.21751652614E+03  0.00000000000E+00 0. -1.
</event>
<event>
 7    1  0.6140348E-006  0.8960879E+02  0.7818608E-02  0.1353169E+00
          2   -1    0    0  502    0  0.00000000000E+00  0.00000000000E+00  0.11771816725E+04  0.11771816725E+04  0.00000000000E+00 0. -1.
          1   -1    0    0  501    0 -0.00000000000E+00 -0.00000000000E+00 -0.16315080648E+03  0.16315080648E+03  0.00000000000E+00 0. -1.
         25    2    1    2    0    0  0.33187332419E+02  0.12502219749E+03  0.57599769271E+02  0.18887639694E+03  0.12499844400E+03 0.  0.
          2    1    1    2  501    0 -0.48747539605E+02 -0.69174143116E+02 -0.78186709526E+02  0.11521521705E+03  0.00000000000E+00 0. -1.
          1    1    1    2  502    0  0.15560207185E+02 -0.55848054372E+02  0.10346178063E+04  0.10362408650E+04  0.00000000000E+00 0. -1.
         22    1    3    3    0    0  0.79388804976E+02  0.92751798079E+02  0.50324410152E+02  0.13205311302E+03  0.00000000000E+00 0.  1.
         22    1    3    3    0    0 -0.46201472557E+02  0.32270399410E+02  0.72753591193E+01  0.56823283914E+02  0.00000000000E+00 0.  1.
</event>
<event>
 7    1  0.6140348E-006  0.6541421E+02  0.7818608E-02  0.1391289E+00
          2   -1    0    0  502    0  0.00000000000E+00  0.00000000000E+00  0.10526747845E+04  0.10526747845E+04  0.00000000000E+00 0. -1.
          1   -1    0    0  501    0 -0.00000000000E+00 -0.00000000000E+00 -0.18050113543E+02  0.18050113543E+02  0.00000000000E+00 0. -1.
         25    2    1    2    0    0 -0.41862635663E+02  0.14757193389E+02  0.46476205008E+03  0.48332069063E+03  0.12499948710E+03 0.  0.
          2    1    1    2  501    0 -0.28085551549E+02 -0.50728317611E+02  0.16294498351E+03  0.17295441037E+03  0.00000000000E+00 0. -1.
          1    1    1    2  502    0  0.69948187212E+02  0.35971124222E+02  0.40691763737E+03  0.41444979705E+03  0.00000000000E+00 0. -1.
         22    1    3    3    0    0 -0.57316891004E+02 -0.34714258165E+01  0.83662706715E+02  0.10147278101E+03  0.00000000000E+00 0. -1.
         22    1    3    3    0    0  0.15454255341E+02  0.18228619205E+02  0.38109934337E+03  0.38184790962E+03  0.00000000000E+00 0. -1.
</event>
<event>
 7    1  0.6140348E-006  0.8577559E+02  0.7818608E-02  0.1398073E+00
          2   -1    0    0  502    0  0.00000000000E+00  0.00000000000E+00  0.15392206652E+04  0.15392206652E+04  0.00000000000E+00 0. -1.
          1   -1    0    0  501    0 -0.00000000000E+00 -0.00000000000E+00 -0.89515057505E+03  0.89515057505E+03  0.00000000000E+00 0. -1.
         25    2    1    2    0    0 -0.22309264239E+02 -0.11856007746E+03  0.35886231801E+03  0.39869926940E+03  0.12499899557E+03 0.  0.
          2    1    1    2  501    0  0.34305269629E+02  0.78424889355E+02 -0.87275951382E+03  0.87694725255E+03  0.00000000000E+00 0. -1.
          1    1    1    2  502    0 -0.11996005390E+02  0.40135188103E+02  0.11579672860E+04  0.11587247183E+04  0.00000000000E+00 0. -1.
         22    1    3    3    0    0 -0.22966117283E+02 -0.10612217513E+03  0.36772012205E+03  0.38341550146E+03  0.00000000000E+00 0. -1.
         22    1    3    3    0    0  0.65685304390E+00 -0.12437902324E+02 -0.88578040368E+01  0.15283767942E+02  0.00000000000E+00 0. -1.
</event>
<event>
 7    1  0.6140348E-006  0.3323475E+02  0.7818608E-02  0.1615590E+00
          2   -1    0    0  502    0  0.00000000000E+00  0.00000000000E+00  0.17881956859E+04  0.17881956859E+04  0.00000000000E+00 0. -1.
          1   -1    0    0  501    0 -0.00000000000E+00 -0.00000000000E+00 -0.83849202989E+03  0.83849202989E+03  0.00000000000E+00 0. -1.
         25    2    1    2    0    0 -0.37789053616E+02 -0.24178257238E+01 -0.24777517440E+03  0.28008687038E+03  0.12498903734E+03 0.  0.
          2    1    1    2  501    0  0.10831374603E+02  0.21859759892E+02 -0.57414609593E+03  0.57466416910E+03  0.00000000000E+00 0. -1.
          1    1    1    2  502    0  0.26957679013E+02 -0.19441934168E+02  0.17716249264E+04  0.17719366764E+04  0.00000000000E+00 0. -1.
         22    1    3    3    0    0 -0.71844920101E+02  0.17724912629E+02 -0.85583937361E+02  0.11313918599E+03  0.00000000000E+00 0. -1.
         22    1    3    3    0    0  0.34055866485E+02 -0.20142738353E+02 -0.16219123704E+03  0.16694768439E+03  0.00000000000E+00 0. -1.
</event>
<event>
 7    1  0.6140348E-006  0.4017637E+02  0.7818608E-02  0.1512385E+00
          2   -1    0    0  502    0  0.00000000000E+00  0.00000000000E+00  0.16815860967E+04  0.16815860967E+04  0.00000000000E+00 0. -1.
          1   -1    0    0  501    0 -0.00000000000E+00 -0.00000000000E+00 -0.29199967782E+03  0.29199967782E+03  0.00000000000E+00 0. -1.
         25    2    1    2    0    0 -0.17095489232E+02 -0.35215729653E+02  0.28617313008E+03  0.31473141519E+03  0.12501359910E+03 0.  0.
          2    1    1    2  501    0  0.40066982102E+02  0.40533460146E+01 -0.27598760873E+03  0.27891029533E+03  0.00000000000E+00 0. -1.
          1    1    1    2  502    0 -0.22971492871E+02  0.31162383638E+02  0.13794008975E+04  0.13799440640E+04  0.00000000000E+00 0. -1.
         22    1    3    3    0    0  0.35930491740E+02 -0.48565123758E+02  0.73498809866E+02  0.95140141550E+02  0.00000000000E+00 0. -1.
         22    1    3    3    0    0 -0.53025980972E+02  0.13349394105E+02  0.21267432021E+03  0.21959127364E+03  0.00000000000E+00 0. -1.
</event>
<event>
 7    1  0.6140348E-006  0.8252302E+02  0.7818608E-02  0.1395027E+00
          2   -1    0    0  502    0  0.00000000000E+00  0.00000000000E+00  0.85932436355E+03  0.85932436355E+03  0.00000000000E+00 0. -1.
          1   -1    0    0  501    0 -0.00000000000E+00 -0.00000000000E+00 -0.28524525696E+03  0.28524525696E+03  0.00000000000E+00 0. -1.
         25    2    1    2    0    0  0.11092894221E+02 -0.10783528422E+03  0.14639775190E+03  0.22092762426E+03  0.12500085030E+03 0.  0.
          2    1    1    2  501    0 -0.38181767096E+02  0.72392963623E+02 -0.24046310164E+03  0.25401002297E+03  0.00000000000E+00 0. -1.
          1    1    1    2  502    0  0.27088872875E+02  0.35442320596E+02  0.66814445632E+03  0.66963197328E+03  0.00000000000E+00 0. -1.
         22    1    3    3    0    0 -0.42933201498E+01 -0.86960002496E+02  0.16665039723E+03  0.18802348132E+03  0.00000000000E+00 0.  1.
         22    1    3    3    0    0  0.15386214370E+02 -0.20875281723E+02 -0.20252645331E+02  0.32904142939E+02  0.00000000000E+00 0.  1.
</event>
<event>
 7    1  0.6140348E-006  0.4059541E+02  0.7818608E-02  0.1600385E+00
          2   -1    0    0  502    0  0.00000000000E+00  0.00000000000E+00  0.41583203064E+03  0.41583203064E+03  0.00000000000E+00 0. -1.
          1   -1    0    0  501    0 -0.00000000000E+00 -0.00000000000E+00 -0.12439074471E+03  0.12439074471E+03  0.00000000000E+00 0. -1.
         25    2    1    2    0    0 -0.30645940295E+02  0.10654780894E+02  0.93152094879E+02  0.15924986824E+03  0.12502203702E+03 0.  0.
          2    1    1    2  501    0  0.40053808393E+02  0.90832608000E+01 -0.86284409227E+02  0.95560517313E+02  0.00000000000E+00 0. -1.
          1    1    1    2  502    0 -0.94078680984E+01 -0.19738041694E+02  0.28457360028E+03  0.28541238979E+03  0.00000000000E+00 0. -1.
         22    1    3    3    0    0 -0.29063316972E+02 -0.14059701327E+02  0.11908946898E+03  0.12338822155E+03  0.00000000000E+00 0.  1.
         22    1    3    3    0    0 -0.15826233223E+01  0.24714482220E+02 -0.25937374100E+02  0.35861646688E+02  0.00000000000E+00 0.  1.
</event>
<event>
 7    1  0.6140348E-006  0.7308577E+02  0.7818608E-02  0.1353042E+00
          2   -1    0    0  502    0  0.00000000000E+00  0.00000000000E+00  0.21236146350E+03  0.21236146350E+03  0.00000000000E+00 0. -1.
          1   -1    0    0  501    0 -0.00000000000E+00 -0.00000000000E+00 -0.52938702362E+03  0.52938702362E+03  0.00000000000E+00 0. -1.
         25    2    1    2    0    0 -0.45817417731E+02 -0.42911514580E+02 -0.64787666512E+02  0.15415481664E+03  0.12500252761E+03 0.  0.
          2    1    1    2  501    0  0.69518314679E+02 -0.26224562727E+02 -0.40843783120E+03  0.41514092273E+03  0.00000000000E+00 0. -1.
          1    1    1    2  502    0 -0.23700896948E+02  0.69136077307E+02  0.15619993760E+03  0.17245274775E+03  0.00000000000E+00 0. -1.
         22    1    3    3    0    0  0.32696617691E+02 -0.25521772366E+02 -0.60849542868E+02  0.73641676653E+02  0.00000000000E+00 0. -1.
         22    1    3    3    0    0 -0.78514035422E+02 -0.17389742214E+02 -0.39381236444E+01  0.80513139985E+02  0.00000000000E+00 0. -1.
</event>
<event>
 7    1  0.6140348E-006  0.1686103E+03  0.7818608E-02  0.1230856E+00
          2   -1    0    0  502    0  0.00000000000E+00  0.00000000000E+00  0.77191835521E+03  0.77191835521E+03  0.00000000000E+00 0. -1.
          1   -1    0    0  501    0 -0.00000000000E+00 -0.00000000000E+00 -0.58267129763E+03  0.58267129763E+03  0.00000000000E+00 0. -1.
         25    2    1    2    0    0  0.17598959806E+03  0.11944163262E+02  0.89502735837E+02  0.23398917479E+03  0.12500077013E+03 0.  0.
          2    1    1    2  501    0 -0.37741590174E+02  0.89105088840E+02 -0.49362258872E+03  0.50301829448E+03  0.00000000000E+00 0. -1.
          1    1    1    2  502    0 -0.13824800789E+03 -0.10104925210E+03  0.59336691046E+03  0.61758218357E+03  0.00000000000E+00 0. -1.
         22    1    3    3    0    0  0.16100584649E+03  0.17387562583E+02  0.11865745429E+03  0.20076055737E+03  0.00000000000E+00 0. -1.
         22    1    3    3    0    0  0.14983751571E+02 -0.54433993216E+01 -0.29154718455E+02  0.33228617418E+02  0.00000000000E+00 0. -1.
</event>
<event>
 7    1  0.6140348E-006  0.4969611E+02  0.7818608E-02  0.1471241E+00
          2   -1    0    0  502    0  0.00000000000E+00  0.00000000000E+00  0.25945169930E+04  0.25945169930E+04  0.00000000000E+00 0. -1.
          1   -1    0    0  501    0 -0.00000000000E+00 -0.00000000000E+00 -0.66379992347E+03  0.66379992347E+03  0.00000000000E+00 0. -1.
         25    2    1    2    0    0 -0.83075406335E+02 -0.29736180036E+01  0.50889278895E+03  0.53057321967E+03  0.12500282091E+03 0.  0.
          2    1    1    2  501    0  0.36922379364E+02  0.19292888619E+02 -0.65200610026E+03  0.65333562005E+03  0.00000000000E+00 0. -1.
          1    1    1    2  502    0  0.46153026970E+02 -0.16319270616E+02  0.20738303809E+04  0.20744080768E+04  0.00000000000E+00 0. -1.
         22    1    3    3    0    0 -0.11602579973E+03 -0.98504563801E+01  0.39803870705E+03  0.41472138841E+03  0.00000000000E+00 0.  1.
         22    1    3    3    0    0  0.32950393395E+02  0.68768383765E+01  0.11085408190E+03  0.11585183126E+03  0.00000000000E+00 0.  1.
</event>
<event>
 7    1  0.6140348E-006  0.5744471E+02  0.7818608E-02  0.1414306E+00
          2   -1    0    0  502    0  0.00000000000E+00  0.00000000000E+00  0.12519192915E+03  0.12519192915E+03  0.00000000000E+00 0. -1.
          1   -1    0    0  501    0 -0.00000000000E+00 -0.00000000000E+00 -0.24673919064E+04  0.24673919064E+04  0.00000000000E+00 0. -1.
         25    2    1    2    0    0 -0.85960827213E+02  0.65803127473E+01 -0.18885119026E+03  0.24232807750E+03  0.12500224299E+03 0.  0.
          2    1    1    2  501    0  0.44437997520E+02  0.32523796114E+02 -0.22431749498E+04  0.22438507946E+04  0.00000000000E+00 0. -1.
          1    1    1    2  502    0  0.41522829693E+02 -0.39104108861E+02  0.89826162833E+02  0.10640496344E+03  0.00000000000E+00 0. -1.
         22    1    3    3    0    0  0.27447576297E+02  0.20000450405E+02 -0.68275007837E+02  0.76255256580E+02  0.00000000000E+00 0. -1.
         22    1    3    3    0    0 -0.11340840351E+03 -0.13420137658E+02 -0.12057618243E+03  0.16607282092E+03  0.00000000000E+00 0. -1.
</event>
<event>
 7    1  0.6140348E-006  0.1415797E+03  0.7818608E-02  0.1293568E+00
          2   -1    0    0  502    0  0.00000000000E+00  0.00000000000E+00  0.45966044453E+03  0.45966044453E+03  0.00000000000E+00 0. -1.
          1   -1    0    0  501    0 -0.00000000000E+00 -0.00000000000E+00 -0.10594966639E+04  0.10594966639E+04  0.00000000000E+00 0. -1.
         25    2    1    2    0    0 -0.33976552294E+02 -0.16185327277E+03  0.96427819758E+02  0.22863681964E+03  0.12500233143E+03 0.  0.
          2    1    1    2  501    0 -0.24070940373E+02  0.13912534338E+03 -0.98503230001E+03  0.99509994644E+03  0.00000000000E+00 0. -1.
          1    1    1    2  502    0  0.58047492667E+02  0.22727929384E+02  0.28876826088E+03  0.29542034235E+03  0.00000000000E+00 0. -1.
         22    1    3    3    0    0  0.34448442454E+02 -0.87288510696E+02  0.78890283691E+01  0.94171206086E+02  0.00000000000E+00 0. -1.
         22    1    3    3    0    0 -0.68424994747E+02 -0.74564762070E+02  0.88538791389E+02  0.13446561356E+03  0.00000000000E+00 0. -1.
</event>
<event>
 7    1  0.6140348E-006  0.6565469E+02  0.7818608E-02  0.1403017E+00
          2   -1    0    0  502    0  0.00000000000E+00  0.00000000000E+00  0.31621290927E+04  0.31621290927E+04  0.00000000000E+00 0. -1.
          1   -1    0    0  501    0 -0.00000000000E+00 -0.00000000000E+00 -0.60710590062E+03  0.60710590062E+03  0.00000000000E+00 0. -1.
         25    2    1    2    0    0 -0.26024723723E+02 -0.33582689488E+02  0.19262788921E+04  0.19307981389E+04  0.12500399986E+03 0.  0.
          2    1    1    2  501    0 -0.52343625148E+02  0.54658119051E+01 -0.60229262005E+03  0.60458757046E+03  0.00000000000E+00 0. -1.
          1    1    1    2  502    0  0.78368348871E+02  0.28116877583E+02  0.12310369200E+04  0.12338492839E+04  0.00000000000E+00 0. -1.
         22    1    3    3    0    0 -0.40139383624E+01  0.20660515912E+02  0.59696373515E+02  0.63297911734E+02  0.00000000000E+00 0.  1.
         22    1    3    3    0    0 -0.22010785361E+02 -0.54243205400E+02  0.18665825186E+04  0.18675002272E+04  0.00000000000E+00 0.  1.
</event>
<event>
 7    1  0.6140348E-006  0.7719690E+02  0.7818608E-02  0.1409096E+00
          2   -1    0    0  502    0  0.00000000000E+00  0.00000000000E+00  0.41847254831E+03  0.41847254831E+03  0.00000000000E+00 0. -1.
          1   -1    0    0  501    0 -0.00000000000E+00 -0.00000000000E+00 -0.24247122472E+03  0.24247122472E+03  0.00000000000E+00 0. -1.
         25    2    1    2    0    0 -0.75278400816E+00  0.59478873624E+02 -0.45479188686E+02  0.14570825086E+03  0.12499693865E+03 0.  0.
          2    1    1    2  501    0  0.42076579186E+02  0.71165335537E+01 -0.13948113757E+03  0.14586319379E+03  0.00000000000E+00 0. -1.
          1    1    1    2  502    0 -0.41323795178E+02 -0.66595407178E+02  0.36096164985E+03  0.36937232837E+03  0.00000000000E+00 0. -1.
         22    1    3    3    0    0  0.60127169330E+01  0.49287643331E+02 -0.88229852037E+02  0.10124194457E+03  0.00000000000E+00 0. -1.
         22    1    3    3    0    0 -0.67655009412E+01  0.10191230293E+02  0.42750663351E+02  0.44466306287E+02  0.00000000000E+00 0. -1.
</event>
<event>
 7    1  0.6140348E-006  0.7181192E+02  0.7818608E-02  0.1435654E+00
          2   -1    0    0  502    0  0.00000000000E+00  0.00000000000E+00  0.22799183796E+04  0.22799183796E+04  0.00000000000E+00 0. -1.
          1   -1    0    0  501    0 -0.00000000000E+00 -0.00000000000E+00 -0.98617615005E+03  0.98617615005E+03  0.00000000000E+00 0. -1.
         25    2    1    2    0    0  0.29850284792E+02  0.76469242648E+02  0.37265956882E+03  0.40152656472E+03  0.12493935878E+03 0.  0.
          2    1    1    2  501    0 -0.37075619435E+02 -0.51021877784E+01 -0.97070232888E+03  0.97142351484E+03  0.00000000000E+00 0. -1.
          1    1    1    2  502    0  0.72253346436E+01 -0.71367054869E+02  0.18917849896E+04  0.18931444501E+04  0.00000000000E+00 0. -1.
         22    1    3    3    0    0 -0.32151850204E+02  0.63534582646E+01  0.22022357894E+03  0.22264889990E+03  0.00000000000E+00 0.  1.
         22    1    3    3    0    0  0.62002134996E+02  0.70115784383E+02  0.15243598988E+03  0.17887766483E+03  0.00000000000E+00 0.  1.
</event>
<event>
 7    1  0.6140348E-006  0.4244118E+02  0.7818608E-02  0.1558080E+00
          2   -1    0    0  502    0  0.00000000000E+00  0.00000000000E+00  0.77135311197E+03  0.77135311197E+03  0.00000000000E+00 0. -1.
          1   -1    0    0  501    0 -0.00000000000E+00 -0.00000000000E+00 -0.12874640511E+04  0.12874640511E+04  0.00000000000E+00 0. -1.
         25    2    1    2    0    0 -0.38601062054E+02  0.51267436371E+02 -0.52055231357E+02  0.14983778655E+03  0.12499289237E+03 0.  0.
          2    1    1    2  501    0  0.40154388648E+01 -0.26867414479E+02 -0.11857418961E+04  0.11860530451E+04  0.00000000000E+00 0. -1.
          1    1    1    2  502    0  0.34585623189E+02 -0.24400021892E+02  0.72168618825E+03  0.72292633145E+03  0.00000000000E+00 0. -1.
         22    1    3    3    0    0  0.26669004162E+02 -0.76436985302E+01  0.21583378764E+02  0.35149738962E+02  0.00000000000E+00 0. -1.
         22    1    3    3    0    0 -0.65270066216E+02  0.58911134901E+02 -0.73638610121E+02  0.11468804759E+03  0.00000000000E+00 0. -1.
</event>
<event>
 7    1  0.6140348E-006  0.1068726E+03  0.7818608E-02  0.1343522E+00
          2   -1    0    0  502    0  0.00000000000E+00  0.00000000000E+00  0.22251842023E+03  0.22251842023E+03  0.00000000000E+00 0. -1.
          1   -1    0    0  501    0 -0.00000000000E+00 -0.00000000000E+00 -0.47555517888E+03  0.47555517888E+03  0.00000000000E+00 0. -1.
         25    2    1    2    0    0 -0.59285972120E+02 -0.10626548602E+03 -0.26077331053E+03  0.31374367308E+03  0.12500077159E+03 0.  0.
          2    1    1    2  501    0  0.66228813514E+01  0.10259208301E+03 -0.17013835371E+03  0.19878646196E+03  0.00000000000E+00 0. -1.
          1    1    1    2  502    0  0.52663090768E+02  0.36734030119E+01  0.17787490560E+03  0.18554346407E+03  0.00000000000E+00 0. -1.
         22    1    3    3    0    0 -0.69053690167E+02 -0.44043081412E+01 -0.77944875005E+02  0.10422674127E+03  0.00000000000E+00 0. -1.
         22    1    3    3    0    0  0.97677180476E+01 -0.10186117788E+03 -0.18282843553E+03  0.20951693181E+03  0.00000000000E+00 0. -1.
</event>
<event>
 7    1  0.6140348E-006  0.8085336E+02  0.7818608E-02  0.1444327E+00
          2   -1    0    0  502    0  0.00000000000E+00  0.00000000000E+00  0.17956681739E+03  0.17956681739E+03  0.00000000000E+00 0. -1.
          1   -1    0    0  501    0 -0.00000000000E+00 -0.00000000000E+00 -0.70788354291E+03  0.70788354291E+03  0.00000000000E+00 0. -1.
         25    2    1    2    0    0  0.92331692688E+02  0.35851649659E+02 -0.14797842209E+03  0.21756445075E+03  0.12500477818E+03 0.  0.
          2    1    1    2  501    0 -0.79199997337E+02 -0.76006430755E+01 -0.52037666674E+03  0.52642405402E+03  0.00000000000E+00 0. -1.
          1    1    1    2  502    0 -0.13131695351E+02 -0.28251006583E+02  0.14003836331E+03  0.14346185554E+03  0.00000000000E+00 0. -1.
         22    1    3    3    0    0  0.47499189936E+02 -0.34273304608E+02 -0.11300651952E+03  0.12728435060E+03  0.00000000000E+00 0.  1.
         22    1    3    3    0    0  0.44832502751E+02  0.70124954266E+02 -0.34971902571E+02  0.90280100151E+02  0.00000000000E+00 0.  1.
</event>
<event>
 7    1  0.6140348E-006  0.1951644E+03  0.7818608E-02  0.1263731E+00
          2   -1    0    0  502    0  0.00000000000E+00  0.00000000000E+00  0.18058325246E+04  0.18058325246E+04  0.00000000000E+00 0. -1.
          1   -1    0    0  501    0 -0.00000000000E+00 -0.00000000000E+00 -0.23447704393E+04  0.23447704393E+04  0.00000000000E+00 0. -1.
         25    2    1    2    0    0  0.85791518071E+02 -0.19304138598E+03 -0.30647427554E+03  0.39265341810E+03  0.12500025559E+03 0.  0.
          2    1    1    2  501    0 -0.25684650151E+02  0.19253430625E+03 -0.19899640962E+04  0.19994214825E+04  0.00000000000E+00 0. -1.
          1    1    1    2  502    0 -0.60106867919E+02  0.50707972612E+00  0.17575004571E+04  0.17585280633E+04  0.00000000000E+00 0. -1.
         22    1    3    3    0    0  0.11482530734E+03 -0.12865979025E+03 -0.24103339934E+03  0.29637019491E+03  0.00000000000E+00 0.  1.
         22    1    3    3    0    0 -0.29033789274E+02 -0.64381595733E+02 -0.65440876202E+02  0.96283223184E+02  0.00000000000E+00 0.  1.
</event>
<event>
 7    1  0.6140348E-006  0.5817186E+02  0.7818608E-02  0.1545839E+00
          2   -1    0    0  502    0  0.00000000000E+00  0.00000000000E+00  0.39112658395E+03  0.39112658395E+03  0.00000000000E+00 0. -1.
          1   -1    0    0  501    0 -0.00000000000E+00 -0.00000000000E+00 -0.19472580456E+04  0.19472580456E+04  0.00000000000E+00 0. -1.
         25    2    1    2    0    0 -0.23252276524E+02  0.52439810537E+02 -0.66981229154E+03  0.68378697252E+03  0.12500206320E+03 0.  0.
          2    1    1    2  501    0  0.41567097436E+02 -0.41300081426E+02 -0.12694830189E+04  0.12708346296E+04  0.00000000000E+00 0. -1.
          1    1    1    2  502    0 -0.18314820912E+02 -0.11139729111E+02  0.38316384881E+03  0.38376302748E+03  0.00000000000E+00 0. -1.
         22    1    3    3    0    0  0.37376970853E+02 -0.16222795210E+02 -0.12930150927E+03  0.13556952952E+03  0.00000000000E+00 0. -1.
         22    1    3    3    0    0 -0.60629247377E+02  0.68662605747E+02 -0.54051078227E+03  0.54821744301E+03  0.00000000000E+00 0. -1.
</event>
<event>
 7    1  0.6140348E-006  0.1038391E+03  0.7818608E-02  0.1335293E+00
          2   -1    0    0  502    0  0.00000000000E+00  0.00000000000E+00  0.63114216491E+03  0.63114216491E+03  0.00000000000E+00 0. -1.
          1   -1    0    0  501    0 -0.00000000000E+00 -0.00000000000E+00 -0.15701555241E+04  0.15701555241E+04  0.00000000000E+00 0. -1.
         25    2    1    2    0    0  0.61574800138E+02  0.16164854659E+02 -0.23143159125E+03  0.27062688163E+03  0.12500227635E+03 0.  0.
          2    1    1    2  501    0 -0.10726206442E+03  0.20134284676E+02 -0.13154695055E+04  0.13199888484E+04  0.00000000000E+00 0. -1.
          1    1    1    2  502    0  0.45687264281E+02 -0.36299139335E+02  0.60788773754E+03  0.61068195904E+03  0.00000000000E+00 0. -1.
         22    1    3    3    0    0  0.62253937438E+02 -0.10300853539E+02 -0.34484895852E+02  0.71908750177E+02  0.00000000000E+00 0.  1.
         22    1    3    3    0    0 -0.67913730005E+00  0.26465708198E+02 -0.19694669540E+03  0.19871813145E+03  0.00000000000E+00 0.  1.
</event>
<event>
 7    1  0.6140348E-006  0.1194812E+03  0.7818608E-02  0.1438275E+00
          2   -1    0    0  502    0  0.00000000000E+00  0.00000000000E+00  0.13209199431E+03  0.13209199431E+03  0.00000000000E+00 0. -1.
          1   -1    0    0  501    0 -0.00000000000E+00 -0.00000000000E+00 -0.64058787466E+03  0.64058787466E+03  0.00000000000E+00 0. -1.
         25    2    1    2    0    0 -0.13323779181E+03 -0.86509643513E+00 -0.36687717274E+03  0.40984966370E+03  0.12499931762E+03 0.  0.
          2    1    1    2  501    0  0.11147787792E+03  0.44630936473E+01 -0.23858783089E+03  0.26338448990E+03  0.00000000000E+00 0. -1.
          1    1    1    2  502    0  0.21759913884E+02 -0.35979972122E+01  0.96969123271E+02  0.99445715363E+02  0.00000000000E+00 0. -1.
         22    1    3    3    0    0 -0.76897157630E+01 -0.37498099241E+02 -0.30503629450E+02  0.48945996617E+02  0.00000000000E+00 0. -1.
         22    1    3    3    0    0 -0.12554807605E+03  0.36633002805E+02 -0.33637354329E+03  0.36090366709E+03  0.00000000000E+00 0. -1.
</event>
<event>
 7    1  0.6140348E-006  0.1203916E+03  0.7818608E-02  0.1282669E+00
          2   -1    0    0  502    0  0.00000000000E+00  0.00000000000E+00  0.76772114673E+03  0.76772114673E+03  0.00000000000E+00 0. -1.
          1   -1    0    0  501    0 -0.00000000000E+00 -0.00000000000E+00 -0.16839916398E+04  0.16839916398E+04  0.00000000000E+00 0. -1.
         25    2    1    2    0    0 -0.23872954232E+02  0.38976608128E+02 -0.85643359163E+02  0.15826911376E+03  0.12500093391E+03 0.  0.
          2    1    1    2  501    0  0.44343820856E+02 -0.11756657241E+03 -0.15572426737E+04  0.15623037535E+04  0.00000000000E+00 0. -1.
          1    1    1    2  502    0 -0.20470866624E+02  0.78589964282E+02  0.72661553980E+03  0.73113991927E+03  0.00000000000E+00 0. -1.
         22    1    3    3    0    0 -0.61064200273E+02 -0.11510456354E+02 -0.15224792326E+02  0.63977507469E+02  0.00000000000E+00 0.  1.
         22    1    3    3    0    0  0.37191246041E+02  0.50487064482E+02 -0.70418566837E+02  0.94291606294E+02  0.00000000000E+00 0.  1.
</event>
<event>
 7    1  0.6140348E-006  0.9335571E+02  0.7818608E-02  0.1449779E+00
          2   -1    0    0  502    0  0.00000000000E+00  0.00000000000E+00  0.33634763864E+03  0.33634763864E+03  0.00000000000E+00 0. -1.
          1   -1    0    0  501    0 -0.00000000000E+00 -0.00000000000E+00 -0.16770113010E+04  0.16770113010E+04  0.00000000000E+00 0. -1.
         25    2    1    2    0    0  0.33042444603E+02  0.99162034980E+02 -0.35841853069E+03  0.39372244776E+03  0.12501444077E+03 0.  0.
          2    1    1    2  501    0 -0.80795626453E+01 -0.92201782109E+02 -0.12987643748E+04  0.13020581205E+04  0.00000000000E+00 0. -1.
          1    1    1    2  502    0 -0.24962881957E+02 -0.69602528706E+01  0.31651924320E+03  0.31757837129E+03  0.00000000000E+00 0. -1.
         22    1    3    3    0    0 -0.13029033426E+02  0.10859275930E+03 -0.19395103042E+03  0.22266374937E+03  0.00000000000E+00 0. -1.
         22    1    3    3    0    0  0.46071478029E+02 -0.94307243161E+01 -0.16446750027E+03  0.17105869839E+03  0.00000000000E+00 0. -1.
</event>
<event>
 7    1  0.6140348E-006  0.1377356E+03  0.7818608E-02  0.1253523E+00
          2   -1    0    0  502    0  0.00000000000E+00  0.00000000000E+00  0.95768807814E+03  0.95768807814E+03  0.00000000000E+00 0. -1.
          1   -1    0    0  501    0 -0.00000000000E+00 -0.00000000000E+00 -0.13739990159E+04  0.13739990159E+04  0.00000000000E+00 0. -1.
         25    2    1    2    0    0  0.62933342537E+02 -0.39022604935E+02  0.28936116556E+02  0.14813851962E+03  0.12499741139E+03 0.  0.
          2    1    1    2  501    0 -0.14035913920E+03 -0.14598377078E+02 -0.13080402680E+04  0.13156303217E+04  0.00000000000E+00 0. -1.
          1    1    1    2  502    0  0.77425796661E+02  0.53620982013E+02  0.86279321374E+03  0.86791825271E+03  0.00000000000E+00 0. -1.
         22    1    3    3    0    0  0.27654360487E+02  0.45486032103E+02  0.48883426567E+01  0.53456886033E+02  0.00000000000E+00 0.  1.
         22    1    3    3    0    0  0.35278982049E+02 -0.84508637038E+02  0.24047773899E+02  0.94681633583E+02  0.00000000000E+00 0.  1.
</event>
<event>
 7    1  0.6140348E-006  0.9260619E+02  0.7818608E-02  0.1352324E+00
          2   -1    0    0  502    0  0.00000000000E+00  0.00000000000E+00  0.69856593284E+02  0.69856593284E+02  0.00000000000E+00 0. -1.
          1   -1    0    0  501    0 -0.00000000000E+00 -0.00000000000E+00 -0.11020930877E+04  0.11020930877E+04  0.00000000000E+00 0. -1.
         25    2    1    2    0    0  0.53828967525E+02  0.11694921306E+03 -0.23706655104E+03  0.29732166991E+03  0.12499979839E+03 0.  0.
          2    1    1    2  501    0  0.83957654475E+01 -0.55876056380E+02 -0.78479261762E+03  0.78682404337E+03  0.00000000000E+00 0. -1.
          1    1    1    2  502    0 -0.62224732972E+02 -0.61073156678E+02 -0.10377325794E+02  0.87803967739E+02  0.00000000000E+00 0. -1.
         22    1    3    3    0    0 -0.21086430867E+02  0.20823372987E+02  0.12392176428E+01  0.29661188271E+02  0.00000000000E+00 0.  1.
         22    1    3    3    0    0  0.74915398391E+02  0.96125840071E+02 -0.23830576868E+03  0.26766048164E+03  0.00000000000E+00 0.  1.
</event>
<event>
 7    1  0.6140348E-006  0.1195668E+03  0.7818608E-02  0.1433343E+00
          2   -1    0    0  502    0  0.00000000000E+00  0.00000000000E+00  0.12788235580E+04  0.12788235580E+04  0.00000000000E+00 0. -1.
          1   -1    0    0  501    0 -0.00000000000E+00 -0.00000000000E+00 -0.88511315269E+03  0.88511315269E+03  0.00000000000E+00 0. -1.
         25    2    1    2    0    0  0.20853232564E+02 -0.12549335816E+03  0.37663765473E+03  0.41673005070E+03  0.12499828780E+03 0.  0.
          2    1    1    2  501    0  0.12198783364E+01  0.11950095133E+03 -0.86078987430E+03  0.86904612833E+03  0.00000000000E+00 0. -1.
          1    1    1    2  502    0 -0.22073110901E+02  0.59924068268E+01  0.87786262489E+03  0.87816053165E+03  0.00000000000E+00 0. -1.
         22    1    3    3    0    0 -0.12977773920E+02 -0.73291794361E+02  0.64610930325E+02  0.98563086670E+02  0.00000000000E+00 0.  1.
         22    1    3    3    0    0  0.33831006484E+02 -0.52201563795E+02  0.31202672440E+03  0.31816696403E+03  0.00000000000E+00 0.  1.
</event>
<event>
 7    1  0.6140348E-006  0.2100672E+03  0.7818608E-02  0.1258903E+00
          2   -1    0    0  502    0  0.00000000000E+00  0.00000000000E+00  0.15699294602E+04  0.15699294602E+04  0.00000000000E+00 0. -1.
          1   -1    0    0  501    0 -0.00000000000E+00 -0.00000000000E+00 -0.10926420456E+04  0.10926420456E+04  0.00000000000E+00 0. -1.
         25    2    1    2    0    0 -0.24956687329E+03  0.41386594371E+02 -0.48925605788E+03  0.56479472704E+03  0.12500047633E+03 0.  0.
          2    1    1    2  501    0  0.51686093253E+02  0.27512839796E+02 -0.55691093903E+03  0.55998053770E+03  0.00000000000E+00 0. -1.
          1    1    1    2  502    0  0.19788078004E+03 -0.68899434167E+02  0.15234544115E+04  0.15377962410E+04  0.00000000000E+00 0. -1.
         22    1    3    3    0    0 -0.70299998219E+02 -0.14778490181E+02 -0.25273572434E+03  0.26274672192E+03  0.00000000000E+00 0. -1.
         22    1    3    3    0    0 -0.17926687507E+03  0.56165084553E+02 -0.23652033355E+03  0.30204800513E+03  0.00000000000E+00 0. -1.
</event>
<event>
 7    1  0.6140348E-006  0.7394681E+02  0.7818608E-02  0.1455101E+00
          2   -1    0    0  502    0  0.00000000000E+00  0.00000000000E+00  0.13251611550E+04  0.13251611550E+04  0.00000000000E+00 0. -1.
          1   -1    0    0  501    0 -0.00000000000E+00 -0.00000000000E+00 -0.90181915236E+03  0.90181915236E+03  0.00000000000E+00 0. -1.
         25    2    1    2    0    0  0.62878775744E+02 -0.45930763395E+02 -0.25034604223E+02  0.14938048502E+03  0.12499768971E+03 0.  0.
          2    1    1    2  501    0  0.93722199649E+01  0.30034923868E+02 -0.81322381572E+03  0.81383223677E+03  0.00000000000E+00 0. -1.
          1    1    1    2  502    0 -0.72250995708E+02  0.15895839527E+02  0.12616004226E+04  0.12637675856E+04  0.00000000000E+00 0. -1.
         22    1    3    3    0    0  0.86194090010E+02  0.98609786477E+01 -0.12956423113E+02  0.87718464148E+02  0.00000000000E+00 0. -1.
         22    1    3    3    0    0 -0.23315314267E+02 -0.55791742042E+02 -0.12078181110E+02  0.61662020875E+02  0.00000000000E+00 0. -1.
</event>
<event>
 7    1  0.6140348E-006  0.1785377E+03  0.7818608E-02  0.1234778E+00
          2   -1    0    0  502    0  0.00000000000E+00  0.00000000000E+00  0.96494737583E+03  0.96494737583E+03  0.00000000000E+00 0. -1.
          1   -1    0    0  501    0 -0.00000000000E+00 -0.00000000000E+00 -0.64427396296E+03  0.64427396296E+03  0.00000000000E+00 0. -1.
         25    2    1    2    0    0 -0.15643053003E+02 -0.13484005847E+03 -0.10114970241E+02  0.18480824474E+03  0.12500091290E+03 0.  0.
          2    1    1    2  501    0 -0.60338780254E+02  0.17879171749E+03 -0.52822947323E+03  0.56092211851E+03  0.00000000000E+00 0. -1.
          1    1    1    2  502    0  0.75981833257E+02 -0.43951659017E+02  0.85901785635E+03  0.86349097554E+03  0.00000000000E+00 0. -1.
         22    1    3    3    0    0 -0.60207676855E+01 -0.10925712781E+02  0.46564768873E+02  0.48206830880E+02  0.00000000000E+00 0.  1.
         22    1    3    3    0    0 -0.96222853180E+01 -0.12391434569E+03 -0.56679739114E+02  0.13660141386E+03  0.00000000000E+00 0.  1.
</event>
<event>
 7    1  0.6140348E-006  0.8595398E+02  0.7818608E-02  0.1318886E+00
          2   -1    0    0  502    0  0.00000000000E+00  0.00000000000E+00  0.16961218779E+04  0.16961218779E+04  0.00000000000E+00 0. -1.
          1   -1    0    0  501    0 -0.00000000000E+00 -0.00000000000E+00 -0.28936811089E+03  0.28936811089E+03  0.00000000000E+00 0. -1.
         25    2    1    2    0    0  0.23057062634E+02 -0.47416215621E+02  0.45003525777E+02  0.14293819526E+03  0.12500433869E+03 0.  0.
          2    1    1    2  501    0 -0.91505968159E+02  0.31929608799E+01 -0.23060258237E+03  0.24811507049E+03  0.00000000000E+00 0. -1.
          1    1    1    2  502    0  0.68448905525E+02  0.44223254741E+02  0.15923528236E+04  0.15944367231E+04  0.00000000000E+00 0. -1.
         22    1    3    3    0    0  0.61091784300E+02  0.11442407689E+02  0.52646433627E+01  0.62376688534E+02  0.00000000000E+00 0. -1.
         22    1    3    3    0    0 -0.38034721666E+02 -0.58858623310E+02  0.39738882414E+02  0.80561506725E+02  0.00000000000E+00 0. -1.
</event>
<event>
 7    1  0.6140348E-006  0.8626578E+02  0.7818608E-02  0.1367854E+00
          2   -1    0    0  502    0  0.00000000000E+00  0.00000000000E+00  0.94786617072E+03  0.94786617072E+03  0.00000000000E+00 0. -1.
          1   -1    0    0  501    0 -0.00000000000E+00 -0.00000000000E+00 -0.10691871091E+03  0.10691871091E+03  0.00000000000E+00 0. -1.
         25    2    1    2    0    0  0.45330158960E+02  0.50551548436E+02  0.47392101363E+03  0.49480950098E+03  0.12500013097E+03 0.  0.
          2    1    1    2  501    0  0.49289369899E+02 -0.20114497410E+02 -0.83273752315E+02  0.98835989476E+02  0.00000000000E+00 0. -1.
          1    1    1    2  502    0 -0.94619528860E+02 -0.30437051027E+02  0.45030019850E+03  0.46113939117E+03  0.00000000000E+00 0. -1.
         22    1    3    3    0    0 -0.35431631757E+02  0.41217510001E+02  0.12102908297E+03  0.13267374489E+03  0.00000000000E+00 0.  1.
         22    1    3    3    0    0  0.80761790717E+02  0.93340384357E+01  0.35289193066E+03  0.36213575609E+03  0.00000000000E+00 0.  1.
</event>
<event>
 7    1  0.6140348E-006  0.1113376E+03  0.7818608E-02  0.1258182E+00
          2   -1    0    0  502    0  0.00000000000E+00  0.00000000000E+00  0.73498981999E+03  0.73498981999E+03  0.00000000000E+00 0. -1.
          1   -1    0    0  501    0 -0.00000000000E+00 -0.00000000000E+00 -0.17248643458E+03  0.17248643458E+03  0.00000000000E+00 0. -1.
         25    2    1    2    0    0 -0.71207425704E+02 -0.63569895239E+02  0.61179304354E+02  0.16876299980E+03  0.12500565492E+03 0.  0.
          2    1    1    2  501    0 -0.39957602866E+02  0.10383946383E+03 -0.85359952401E+02  0.14023396789E+03  0.00000000000E+00 0. -1.
          1    1    1    2  502    0  0.11116502857E+03 -0.40269568590E+02  0.58668403345E+03  0.59847928689E+03  0.00000000000E+00 0. -1.
         22    1    3    3    0    0 -0.82248007954E+02 -0.33975652873E+02 -0.11296333957E+02  0.89703327482E+02  0.00000000000E+00 0. -1.
         22    1    3    3    0    0  0.11040582250E+02 -0.29594242366E+02  0.72475638311E+02  0.79059672313E+02  0.00000000000E+00 0. -1.
</event>
<event>
 7    1  0.6140348E-006  0.5455513E+02  0.7818608E-02  0.1503374E+00
          2   -1    0    0  502    0  0.00000000000E+00  0.00000000000E+00  0.62263025715E+03  0.62263025715E+03  0.00000000000E+00 0. -1.
          1   -1    0    0  501    0 -0.00000000000E+00 -0.00000000000E+00 -0.67645119739E+03  0.67645119739E+03  0.00000000000E+00 0. -1.
         25    2    1    2    0    0  0.92957420073E+01 -0.78345506011E+02 -0.15707215107E+03  0.21568822118E+03  0.12500127592E+03 0.  0.
          2    1    1    2  501    0 -0.19466277982E+02  0.49791391383E+02 -0.48822375632E+03  0.49114209235E+03  0.00000000000E+00 0. -1.
          1    1    1    2  502    0  0.10170535974E+02  0.28554114628E+02  0.59147496715E+03  0.59225114101E+03  0.00000000000E+00 0. -1.
         22    1    3    3    0    0  0.13869133433E+02 -0.61051308478E+01  0.19592886762E+02  0.24769067332E+02  0.00000000000E+00 0.  1.
         22    1    3    3    0    0 -0.45733914254E+01 -0.72240375164E+02 -0.17666503784E+03  0.19091915385E+03  0.00000000000E+00 0.  1.
</event>
<event>
 7    1  0.6140348E-006  0.8820575E+02  0.7818608E-02  0.1325474E+00
          2   -1    0    0  502    0  0.00000000000E+00  0.00000000000E+00  0.45815665376E+03  0.45815665376E+03  0.00000000000E+00 0. -1.
          1   -1    0    0  501    0 -0.00000000000E+00 -0.00000000000E+00 -0.60969455384E+03  0.60969455384E+03  0.00000000000E+00 0. -1.
         25    2    1    2    0    0 -0.10543732874E+03  0.38298009796E+02 -0.12952407111E+03  0.21209667093E+03  0.12499897991E+03 0.  0.
          2    1    1    2  501    0  0.41835247686E+02 -0.77831840766E+02 -0.43100202625E+03  0.43996673740E+03  0.00000000000E+00 0. -1.
          1    1    1    2  502    0  0.63602081050E+02  0.39533830970E+02  0.40898819728E+03  0.41578779927E+03  0.00000000000E+00 0. -1.
         22    1    3    3    0    0  0.69169153415E+01 -0.64916554951E+01 -0.81353248880E+02  0.81904434631E+02  0.00000000000E+00 0.  1.
         22    1    3    3    0    0 -0.11235424408E+03  0.44789665291E+02 -0.48170822225E+02  0.13019223630E+03  0.00000000000E+00 0.  1.
</event>
<event>
 7    1  0.6140348E-006  0.5389253E+02  0.7818608E-02  0.1472125E+00
          2   -1    0    0  502    0  0.00000000000E+00  0.00000000000E+00  0.19567341811E+04  0.19567341811E+04  0.00000000000E+00 0. -1.
          1   -1    0    0  501    0 -0.00000000000E+00 -0.00000000000E+00 -0.54789528423E+03  0.54789528423E+03  0.00000000000E+00 0. -1.
         25    2    1    2    0    0 -0.66830721279E+02 -0.53687264893E+02 -0.26319075912E+03  0.30371541635E+03  0.12500004289E+03 0.  0.
          2    1    1    2  501    0  0.45125123897E+02  0.22285474966E+02 -0.26185754340E+03  0.26665013076E+03  0.00000000000E+00 0. -1.
          1    1    1    2  502    0  0.21705597382E+02  0.31401789928E+02  0.19338871994E+04  0.19342639183E+04  0.00000000000E+00 0. -1.
         22    1    3    3    0    0 -0.75234046547E+02  0.10701358315E+01 -0.70105652430E+02  0.10284021321E+03  0.00000000000E+00 0.  1.
         22    1    3    3    0    0  0.84033252674E+01 -0.54757400725E+02 -0.19308510669E+03  0.20087520314E+03  0.00000000000E+00 0.  1.
</event>
<event>
 7    1  0.6140348E-006  0.1654427E+03  0.7818608E-02  0.1255522E+00
          2   -1    0    0  502    0  0.00000000000E+00  0.00000000000E+00  0.14575863406E+04  0.14575863406E+04  0.00000000000E+00 0. -1.
          1   -1    0    0  501    0 -0.00000000000E+00 -0.00000000000E+00 -0.13341049249E+03  0.13341049249E+03  0.00000000000E+00 0. -1.
         25    2    1    2    0    0  0.10717428661E+03 -0.17561773218E+03  0.43439075474E+03  0.49663804106E+03  0.12500440175E+03 0.  0.
          2    1    1    2  501    0 -0.12573825559E+03  0.10102407191E+03 -0.36102562105E+02  0.16528571328E+03  0.00000000000E+00 0. -1.
          1    1    1    2  502    0  0.18563968983E+02  0.74593660269E+02  0.92588765548E+03  0.92907307875E+03  0.00000000000E+00 0. -1.
         22    1    3    3    0    0 -0.30866383890E+01 -0.12048793277E+02 -0.62045263984E+01  0.13899528906E+02  0.00000000000E+00 0.  1.
         22    1    3    3    0    0  0.11026092500E+03 -0.16356893890E+03  0.44059528114E+03  0.48273851215E+03  0.00000000000E+00 0.  1.
</event>
<event>
 7    1  0.6140348E-006  0.6676560E+02  0.7818608E-02  0.1408299E+00
          2   -1    0    0  502    0  0.00000000000E+00  0.00000000000E+00  0.46232033848E+03  0.46232033848E+03  0.00000000000E+00 0. -1.
          1   -1    0    0  501    0 -0.00000000000E+00 -0.00000000000E+00 -0.56614210538E+03  0.56614210538E+03  0.00000000000E+00 0. -1.
         25    2    1    2    0    0 -0.12148155828E+02  0.37801433219E+02 -0.41077042355E+02  0.13743699953E+03  0.12500031755E+03 0.  0.
          2    1    1    2  501    0  0.44512239779E+02  0.21994395027E+02 -0.47278567210E+03  0.47538551160E+03  0.00000000000E+00 0. -1.
          1    1    1    2  502    0 -0.32364083950E+02 -0.59795828246E+02  0.41004094756E+03  0.41563993273E+03  0.00000000000E+00 0. -1.
         22    1    3    3    0    0 -0.59743476945E+02  0.97604769339E+01 -0.53531030333E+02  0.80809165050E+02  0.00000000000E+00 0.  1.
         22    1    3    3    0    0  0.47595321117E+02  0.28040956285E+02  0.12453987978E+02  0.56627834482E+02  0.00000000000E+00 0.  1.
</event>
<event>
 7    1  0.6140348E-006  0.1037670E+03  0.7818608E-02  0.1328205E+00
          2   -1    0    0  502    0  0.00000000000E+00  0.00000000000E+00  0.17574284451E+04  0.17574284451E+04  0.00000000000E+00 0. -1.
          1   -1    0    0  501    0 -0.00000000000E+00 -0.00000000000E+00 -0.46958954519E+02  0.46958954519E+02  0.00000000000E+00 0. -1.
         25    2    1    2    0    0 -0.50293768278E+02 -0.12609593891E+02  0.14982922916E+03  0.20189561084E+03  0.12499829911E+03 0.  0.
          2    1    1    2  501    0 -0.38084884903E+02 -0.49099189293E+02  0.31701216346E+02  0.69757838019E+02  0.00000000000E+00 0. -1.
          1    1    1    2  502    0  0.88378653181E+02  0.61708783185E+02  0.15289390451E+04  0.15327339507E+04  0.00000000000E+00 0. -1.
         22    1    3    3    0    0 -0.64077688645E+02  0.24850156096E+02  0.14652635426E+03  0.16184391534E+03  0.00000000000E+00 0.  1.
         22    1    3    3    0    0  0.13783920367E+02 -0.37459749988E+02  0.33028749021E+01  0.40051695500E+02  0.00000000000E+00 0.  1.
</event>
<event>
 7    1  0.6140348E-006  0.4889266E+02  0.7818608E-02  0.1460451E+00
          2   -1    0    0  502    0  0.00000000000E+00  0.00000000000E+00  0.15663350730E+03  0.15663350730E+03  0.00000000000E+00 0. -1.
          1   -1    0    0  501    0 -0.00000000000E+00 -0.00000000000E+00 -0.15131793313E+03  0.15131793313E+03  0.00000000000E+00 0. -1.
         25    2    1    2    0    0 -0.54074890846E+02 -0.29020264987E+02  0.50330238382E+02  0.14805615054E+03  0.12498488395E+03 0.  0.
          2    1    1    2  501    0  0.12307171884E+02  0.47729604653E+02 -0.85566142561E+02  0.98747893106E+02  0.00000000000E+00 0. -1.
          1    1    1    2  502    0  0.41767718963E+02 -0.18709339665E+02  0.40551478350E+02  0.61147396792E+02  0.00000000000E+00 0. -1.
         22    1    3    3    0    0 -0.48954552941E+02  0.99417687258E+01  0.83053172228E+02  0.96918607275E+02  0.00000000000E+00 0.  1.
         22    1    3    3    0    0 -0.51203379051E+01 -0.38962033713E+02 -0.32722933846E+02  0.51137543261E+02  0.00000000000E+00 0.  1.
</event>
<event>
 7    1  0.6140348E-006  0.1701001E+03  0.7818608E-02  0.1303498E+00
          2   -1    0    0  502    0  0.00000000000E+00  0.00000000000E+00  0.34207906214E+04  0.34207906214E+04  0.00000000000E+00 0. -1.
          1   -1    0    0  501    0 -0.00000000000E+00 -0.00000000000E+00 -0.11370725029E+03  0.11370725029E+03  0.00000000000E+00 0. -1.
         25    2    1    2    0    0 -0.56202082275E+02 -0.19272276140E+03  0.86847443837E+03  0.90009670160E+03  0.12500194124E+03 0.  0.
          2    1    1    2  501    0  0.75939969605E+02  0.14969664752E+03 -0.25547592289E+02  0.16979000187E+03  0.00000000000E+00 0. -1.
          1    1    1    2  502    0 -0.19737887330E+02  0.43026113882E+02  0.24641565250E+04  0.24646111682E+04  0.00000000000E+00 0. -1.
         22    1    3    3    0    0 -0.83904516663E+01 -0.69001690316E+02  0.11006830233E+03  0.13017935368E+03  0.00000000000E+00 0.  1.
         22    1    3    3    0    0 -0.47811630609E+02 -0.12372107108E+03  0.75840613604E+03  0.76991734793E+03  0.00000000000E+00 0.  1.
</event>
<event>
 7    1  0.6140348E-006  0.3619297E+02  0.7818608E-02  0.1552053E+00
          2   -1    0    0  502    0  0.00000000000E+00  0.00000000000E+00  0.34226589662E+03  0.34226589662E+03  0.00000000000E+00 0. -1.
          1   -1    0    0  501    0 -0.00000000000E+00 -0.00000000000E+00 -0.19589017795E+04  0.19589017795E+04  0.00000000000E+00 0. -1.
         25    2    1    2    0    0 -0.51029651648E+02  0.46681294893E+02 -0.22688306692E+03  0.26811351235E+03  0.12500304320E+03 0.  0.
          2    1    1    2  501    0  0.24611351048E+02 -0.22140022117E+02 -0.17102322350E+04  0.17105525999E+04  0.00000000000E+00 0. -1.
          1    1    1    2  502    0  0.26418300601E+02 -0.24541272776E+02  0.32047941907E+03  0.32250156391E+03  0.00000000000E+00 0. -1.
         22    1    3    3    0    0 -0.37412690741E+02  0.68958245261E+02 -0.58872336103E+02  0.98086191567E+02  0.00000000000E+00 0. -1.
         22    1    3    3    0    0 -0.13616960907E+02 -0.22276950367E+02 -0.16801073082E+03  0.17002732078E+03  0.00000000000E+00 0. -1.
</event>
<event>
 7    1  0.6140348E-006  0.6565272E+02  0.7818608E-02  0.1400670E+00
          2   -1    0    0  502    0  0.00000000000E+00  0.00000000000E+00  0.46084868278E+03  0.46084868278E+03  0.00000000000E+00 0. -1.
          1   -1    0    0  501    0 -0.00000000000E+00 -0.00000000000E+00 -0.59912848362E+03  0.59912848362E+03  0.00000000000E+00 0. -1.
         25    2    1    2    0    0 -0.51310494090E+02  0.71732527363E+02  0.88178455965E+02  0.17657974142E+03  0.12500657062E+03 0.  0.
          2    1    1    2  501    0  0.62666579561E+02 -0.19335082311E+02 -0.55078171520E+03  0.55467237484E+03  0.00000000000E+00 0. -1.
          1    1    1    2  502    0 -0.11356085471E+02 -0.52397445053E+02  0.32432345839E+03  0.32872505014E+03  0.00000000000E+00 0. -1.
         22    1    3    3    0    0 -0.33383159844E+02 -0.29507372715E+02  0.59971040625E+01  0.44956486327E+02  0.00000000000E+00 0.  1.
         22    1    3    3    0    0 -0.17927334246E+02  0.10123990008E+03  0.82181351903E+02  0.13162325509E+03  0.00000000000E+00 0.  1.
</event>
<event>
 7    1  0.6140348E-006  0.8199303E+02  0.7818608E-02  0.1352981E+00
          2   -1    0    0  502    0  0.00000000000E+00  0.00000000000E+00  0.15230745450E+04  0.15230745450E+04  0.00000000000E+00 0. -1.
          1   -1    0    0  501    0 -0.00000000000E+00 -0.00000000000E+00 -0.58057002266E+02  0.58057002266E+02  0.00000000000E+00 0. -1.
         25    2    1    2    0    0  0.81967886189E+02  0.23153246358E+02  0.11586886212E+03  0.19053906335E+03  0.12499893707E+03 0.  0.
          2    1    1    2  501    0 -0.46813707489E+02 -0.75988296268E+02  0.79997064010E+02  0.11985522362E+03  0.00000000000E+00 0. -1.
          1    1    1    2  502    0 -0.35154178701E+02  0.52835049911E+02  0.12691516166E+04  0.12707372603E+04  0.00000000000E+00 0. -1.
         22    1    3    3    0    0  0.77995420943E+02 -0.39192565897E+02  0.80542151015E+02  0.11877028669E+03  0.00000000000E+00 0. -1.
         22    1    3    3    0    0  0.39724652461E+01  0.62345812254E+02  0.35326711102E+02  0.71768776659E+02  0.00000000000E+00 0. -1.
</event>
<event>
 7    1  0.6140348E-006  0.1311218E+03  0.7818608E-02  0.1293310E+00
          2   -1    0    0  502    0  0.00000000000E+00  0.00000000000E+00  0.10339701955E+03  0.10339701955E+03  0.00000000000E+00 0. -1.
          1   -1    0    0  501    0 -0.00000000000E+00 -0.00000000000E+00 -0.10138628657E+04  0.10138628657E+04  0.00000000000E+00 0. -1.
         25    2    1    2    0    0 -0.28379371627E+02  0.16225996230E+03 -0.30844522911E+03  0.37134580476E+03  0.12500225296E+03 0.  0.
          2    1    1    2  501    0  0.67287739275E+02 -0.10713625273E+03 -0.65059126068E+03  0.66277809634E+03  0.00000000000E+00 0. -1.
          1    1    1    2  502    0 -0.38908367648E+02 -0.55123709571E+02  0.48570643675E+02  0.83135984128E+02  0.00000000000E+00 0. -1.
         22    1    3    3    0    0 -0.10287826878E+02  0.17944808993E+03 -0.25106010975E+03  0.30876955010E+03  0.00000000000E+00 0.  1.
         22    1    3    3    0    0 -0.18091544749E+02 -0.17188127624E+02 -0.57385119364E+02  0.62576254658E+02  0.00000000000E+00 0.  1.
</event>
<event>
 7    1  0.6140348E-006  0.1401266E+03  0.7818608E-02  0.1279505E+00
          2   -1    0    0  502    0  0.00000000000E+00  0.00000000000E+00  0.86410865376E+02  0.86410865376E+02  0.00000000000E+00 0. -1.
          1   -1    0    0  501    0 -0.00000000000E+00 -0.00000000000E+00 -0.15911406603E+04  0.15911406603E+04  0.00000000000E+00 0. -1.
         25    2    1    2    0    0 -0.11198881795E+03  0.24344418195E+02 -0.34498222002E+03  0.38441094784E+03  0.12499959459E+03 0.  0.
          2    1    1    2  501    0 -0.13593035744E+01  0.71890669787E+02 -0.11410103922E+04  0.11432737342E+04  0.00000000000E+00 0. -1.
          1    1    1    2  502    0  0.11334812152E+03 -0.96235087982E+02 -0.18737182678E+02  0.14986684365E+03  0.00000000000E+00 0. -1.
         22    1    3    3    0    0 -0.12209475295E+03  0.49873052398E+02 -0.22047028096E+03  0.25690775551E+03  0.00000000000E+00 0.  1.
         22    1    3    3    0    0  0.10105935004E+02 -0.25528634203E+02 -0.12451193906E+03  0.12750319233E+03  0.00000000000E+00 0.  1.
</event>
<event>
 7    1  0.6140348E-006  0.1134058E+03  0.7818608E-02  0.1291058E+00
          2   -1    0    0  502    0  0.00000000000E+00  0.00000000000E+00  0.31174764437E+04  0.31174764437E+04  0.00000000000E+00 0. -1.
          1   -1    0    0  501    0 -0.00000000000E+00 -0.00000000000E+00 -0.47554577158E+03  0.47554577158E+03  0.00000000000E+00 0. -1.
         25    2    1    2    0    0  0.16107541838E+03  0.33371910175E+02  0.62310648008E+03  0.65646448585E+03  0.12499984347E+03 0.  0.
          2    1    1    2  501    0 -0.53443022884E+02 -0.59085539821E+02 -0.45416195259E+03  0.46109688449E+03  0.00000000000E+00 0. -1.
          1    1    1    2  502    0 -0.10763239550E+03  0.25713629646E+02  0.24729861446E+04  0.24754608449E+04  0.00000000000E+00 0. -1.
         22    1    3    3    0    0  0.12578618256E+03 -0.34204821788E+02  0.39641489879E+03  0.41729714298E+03  0.00000000000E+00 0. -1.
         22    1    3    3    0    0  0.35289235823E+02  0.67576731963E+02  0.22669158129E+03  0.23916734287E+03  0.00000000000E+00 0. -1.
</event>
<event>
 7    1  0.6140348E-006  0.7267950E+02  0.7818608E-02  0.1458061E+00
          2   -1    0    0  502    0  0.00000000000E+00  0.00000000000E+00  0.35085366280E+03  0.35085366280E+03  0.00000000000E+00 0. -1.
          1   -1    0    0  501    0 -0.00000000000E+00 -0.00000000000E+00 -0.14575466759E+03  0.14575466759E+03  0.00000000000E+00 0. -1.
         25    2    1    2    0    0  0.20210293397E+02  0.45724813945E+02  0.11931887275E+03  0.17990025984E+03  0.12501158157E+03 0.  0.
          2    1    1    2  501    0 -0.49947388751E+02 -0.55580432837E+02 -0.10193824422E+03  0.12639355914E+03  0.00000000000E+00 0. -1.
          1    1    1    2  502    0  0.29737095354E+02  0.98556188923E+01  0.18771836668E+03  0.19031451141E+03  0.00000000000E+00 0. -1.
         22    1    3    3    0    0  0.64526532290E+02  0.20953117345E+00  0.32297467842E+02  0.72158462440E+02  0.00000000000E+00 0. -1.
         22    1    3    3    0    0 -0.44316238893E+02  0.45515282771E+02  0.87021404910E+02  0.10774179740E+03  0.00000000000E+00 0. -1.
</event>
<event>
 7    1  0.6140348E-006  0.1479678E+03  0.7818608E-02  0.1409421E+00
          2   -1    0    0  502    0  0.00000000000E+00  0.00000000000E+00  0.81081286330E+02  0.81081286330E+02  0.00000000000E+00 0. -1.
          1   -1    0    0  501    0 -0.00000000000E+00 -0.00000000000E+00 -0.84421919609E+03  0.84421919609E+03  0.00000000000E+00 0. -1.
         25    2    1    2    0    0 -0.14327530169E+03 -0.26438237276E+02 -0.17414034999E+03  0.25919717272E+03  0.12502607883E+03 0.  0.
          2    1    1    2  501    0 -0.67897506398E+01  0.21143848412E+02 -0.48010198664E+03  0.48061531459E+03  0.00000000000E+00 0. -1.
          1    1    1    2  502    0  0.15006505233E+03  0.52943888641E+01 -0.10889557312E+03  0.18548799511E+03  0.00000000000E+00 0. -1.
         22    1    3    3    0    0 -0.33347805444E+02 -0.51410364795E+02 -0.13167448812E+02  0.62677615179E+02  0.00000000000E+00 0.  1.
         22    1    3    3    0    0 -0.10992749624E+03  0.24972127518E+02 -0.16097290118E+03  0.19651955754E+03  0.00000000000E+00 0.  1.
</event>
<event>
 7    1  0.6140348E-006  0.6533668E+02  0.7818608E-02  0.1486016E+00
          2   -1    0    0  502    0  0.00000000000E+00  0.00000000000E+00  0.47735893909E+03  0.47735893909E+03  0.00000000000E+00 0. -1.
          1   -1    0    0  501    0 -0.00000000000E+00 -0.00000000000E+00 -0.16895443218E+04  0.16895443218E+04  0.00000000000E+00 0. -1.
         25    2    1    2    0    0 -0.59112354558E+02  0.35656123551E+02  0.10424466224E+03  0.17680317772E+03  0.12500713755E+03 0.  0.
          2    1    1    2  501    0 -0.59347142412E+01 -0.27916843727E+02 -0.16499556761E+04  0.16502025040E+04  0.00000000000E+00 0. -1.
          1    1    1    2  502    0  0.65047068799E+02 -0.77392798237E+01  0.33352563122E+03  0.33989757913E+03  0.00000000000E+00 0. -1.
         22    1    3    3    0    0 -0.29553135116E+02  0.42578482015E+01  0.12530421531E+03  0.12881251275E+03  0.00000000000E+00 0. -1.
         22    1    3    3    0    0 -0.29559219442E+02  0.31398275350E+02 -0.21059553071E+02  0.47990664973E+02  0.00000000000E+00 0. -1.
</event>
<event>
 7    1  0.6140348E-006  0.2553239E+03  0.7818608E-02  0.1234014E+00
          2   -1    0    0  502    0  0.00000000000E+00  0.00000000000E+00  0.65588543916E+03  0.65588543916E+03  0.00000000000E+00 0. -1.
          1   -1    0    0  501    0 -0.00000000000E+00 -0.00000000000E+00 -0.80232586676E+03  0.80232586676E+03  0.00000000000E+00 0. -1.
         25    2    1    2    0    0  0.45631584864E+01  0.26509423201E+03 -0.75587337292E+02  0.30271721487E+03  0.12501396866E+03 0.  0.
          2    1    1    2  501    0 -0.59659297661E+02 -0.16359972997E+02 -0.58152251281E+03  0.58480365374E+03  0.00000000000E+00 0. -1.
          1    1    1    2  502    0  0.55096139174E+02 -0.24873425902E+03  0.51066942250E+03  0.57069043731E+03  0.00000000000E+00 0. -1.
         22    1    3    3    0    0  0.57816578534E+02  0.20416612923E+03 -0.55996251259E+02  0.21945875519E+03  0.00000000000E+00 0.  1.
         22    1    3    3    0    0 -0.53253420048E+02  0.60928102789E+02 -0.19591086032E+02  0.83258459679E+02  0.00000000000E+00 0.  1.
</event>
<event>
 7    1  0.6140348E-006  0.4102446E+02  0.7818608E-02  0.1539852E+00
          2   -1    0    0  502    0  0.00000000000E+00  0.00000000000E+00  0.11774407463E+02  0.11774407463E+02  0.00000000000E+00 0. -1.
          1   -1    0    0  501    0 -0.00000000000E+00 -0.00000000000E+00 -0.16952147394E+04  0.16952147394E+04  0.00000000000E+00 0. -1.
         25    2    1    2    0    0  0.49714835901E+01 -0.18405554488E+02 -0.62248334674E+03  0.63519585577E+03  0.12499911254E+03 0.  0.
          2    1    1    2  501    0 -0.36228518763E+02  0.23047486781E+02 -0.10156373001E+04  0.10165445477E+04  0.00000000000E+00 0. -1.
          1    1    1    2  502    0  0.31257035173E+02 -0.46419322928E+01 -0.45319685121E+02  0.55248743358E+02  0.00000000000E+00 0. -1.
         22    1    3    3    0    0 -0.18635831956E+02  0.45582676231E+00 -0.85316208359E+01  0.20500989362E+02  0.00000000000E+00 0.  1.
         22    1    3    3    0    0  0.23607315546E+02 -0.18861381250E+02 -0.61395172590E+03  0.61469486641E+03  0.00000000000E+00 0.  1.
</event>
<event>
 7    1  0.6140348E-006  0.1275598E+03  0.7818608E-02  0.1277027E+00
          2   -1    0    0  502    0  0.00000000000E+00  0.00000000000E+00  0.21266506436E+03  0.21266506436E+03  0.00000000000E+00 0. -1.
          1   -1    0    0  501    0 -0.00000000000E+00 -0.00000000000E+00 -0.35587955600E+03  0.35587955600E+03  0.00000000000E+00 0. -1.
         25    2    1    2    0    0 -0.67604680637E+02 -0.22705412856E+02 -0.21154945625E+02  0.14545657852E+03  0.12499662353E+03 0.  0.
          2    1    1    2  501    0  0.14700198017E+03  0.73057304134E+01 -0.23913124848E+03  0.28079656314E+03  0.00000000000E+00 0. -1.
          1    1    1    2  502    0 -0.79397299538E+02  0.15399682443E+02  0.11707170246E+03  0.14229147870E+03  0.00000000000E+00 0. -1.
         22    1    3    3    0    0 -0.93281814384E+02 -0.36264100325E+02  0.12665466441E+02  0.10088109787E+03  0.00000000000E+00 0.  1.
         22    1    3    3    0    0  0.25677133747E+02  0.13558687469E+02 -0.33820412066E+02  0.44575480655E+02  0.00000000000E+00 0.  1.
</event>
<event>
 7    1  0.6140348E-006  0.1146865E+03  0.7818608E-02  0.1376817E+00
          2   -1    0    0  502    0  0.00000000000E+00  0.00000000000E+00  0.19730503531E+04  0.19730503531E+04  0.00000000000E+00 0. -1.
          1   -1    0    0  501    0 -0.00000000000E+00 -0.00000000000E+00 -0.86323596309E+03  0.86323596309E+03  0.00000000000E+00 0. -1.
         25    2    1    2    0    0  0.78731312518E+02  0.16393785227E+02  0.65572441329E+02  0.16245754262E+03  0.12500132931E+03 0.  0.
          2    1    1    2  501    0 -0.11008506957E+03 -0.36393646901E+02 -0.81048133161E+03  0.81873268468E+03  0.00000000000E+00 0. -1.
          1    1    1    2  502    0  0.31353757053E+02  0.19999861674E+02  0.18547232803E+04  0.18550960888E+04  0.00000000000E+00 0. -1.
         22    1    3    3    0    0 -0.14736542987E+01  0.58099625163E+02  0.22518266497E+02  0.62328247425E+02  0.00000000000E+00 0. -1.
         22    1    3    3    0    0  0.80204966817E+02 -0.41705839935E+02  0.43054174831E+02  0.10012929520E+03  0.00000000000E+00 0. -1.
</event>
<event>
 7    1  0.6140348E-006  0.6689826E+02  0.7818608E-02  0.1471709E+00
          2   -1    0    0  502    0  0.00000000000E+00  0.00000000000E+00  0.45117749368E+03  0.45117749368E+03  0.00000000000E+00 0. -1.
          1   -1    0    0  501    0 -0.00000000000E+00 -0.00000000000E+00 -0.81830262983E+03  0.81830262983E+03  0.00000000000E+00 0. -1.
         25    2    1    2    0    0  0.10680606998E+01 -0.53266437861E+02  0.16474444387E+03  0.21355049993E+03  0.12499852029E+03 0.  0.
          2    1    1    2  501    0  0.29081361869E+02 -0.10276081373E+02 -0.78887326593E+03  0.78947599910E+03  0.00000000000E+00 0. -1.
          1    1    1    2  502    0 -0.30149422569E+02  0.63542519235E+02  0.25700368590E+03  0.26645362448E+03  0.00000000000E+00 0. -1.
         22    1    3    3    0    0 -0.32445322991E+02 -0.70752058111E+02  0.49447279221E+02  0.92214891060E+02  0.00000000000E+00 0.  1.
         22    1    3    3    0    0  0.33513383691E+02  0.17485620249E+02  0.11529716465E+03  0.12133560887E+03  0.00000000000E+00 0.  1.
</event>
<event>
 7    1  0.6140348E-006  0.1281982E+03  0.7818608E-02  0.1438124E+00
          2   -1    0    0  502    0  0.00000000000E+00  0.00000000000E+00  0.19595194622E+03  0.19595194622E+03  0.00000000000E+00 0. -1.
          1   -1    0    0  501    0 -0.00000000000E+00 -0.00000000000E+00 -0.44629572567E+03  0.44629572567E+03  0.00000000000E+00 0. -1.
         25    2    1    2    0    0 -0.13154763876E+02 -0.11886149190E+03  0.25819754850E+02  0.17490294896E+03  0.12499311878E+03 0.  0.
          2    1    1    2  501    0 -0.46312763856E+01  0.12921276517E+03 -0.35921803576E+03  0.38177871158E+03  0.00000000000E+00 0. -1.
          1    1    1    2  502    0  0.17786040261E+02 -0.10351273266E+02  0.83054501456E+02  0.85566011351E+02  0.00000000000E+00 0. -1.
         22    1    3    3    0    0 -0.83521612924E+01 -0.14401319255E+03  0.33646994899E+02  0.14812723751E+03  0.00000000000E+00 0.  1.
         22    1    3    3    0    0 -0.48026025831E+01  0.25151700642E+02 -0.78272400497E+01  0.26775711448E+02  0.00000000000E+00 0.  1.
</event>
<event>
 7    1  0.6140348E-006  0.2002037E+03  0.7818608E-02  0.1293245E+00
          2   -1    0    0  502    0  0.00000000000E+00  0.00000000000E+00  0.35074194766E+03  0.35074194766E+03  0.00000000000E+00 0. -1.
          1   -1    0    0  501    0 -0.00000000000E+00 -0.00000000000E+00 -0.23962592292E+04  0.23962592292E+04  0.00000000000E+00 0. -1.
         25    2    1    2    0    0 -0.14331346002E+03 -0.14485765787E+03 -0.21353541631E+03  0.32053567338E+03  0.12499301988E+03 0.  0.
          2    1    1    2  501    0  0.16838712098E+03  0.10843723252E+03 -0.21228392927E+04  0.21322662870E+04  0.00000000000E+00 0. -1.
          1    1    1    2  502    0 -0.25073660958E+02  0.36420425354E+02  0.29085742750E+03  0.29419921650E+03  0.00000000000E+00 0. -1.
         22    1    3    3    0    0 -0.88080166540E+02 -0.12500129204E+03 -0.75499216000E+02  0.17053905818E+03  0.00000000000E+00 0.  1.
         22    1    3    3    0    0 -0.55233293485E+02 -0.19856365833E+02 -0.13803620031E+03  0.14999661519E+03  0.00000000000E+00 0.  1.
</event>
<event>
 7    1  0.6140348E-006  0.4118455E+02  0.7818608E-02  0.1526777E+00
          2   -1    0    0  502    0  0.00000000000E+00  0.00000000000E+00  0.20322637541E+04  0.20322637541E+04  0.00000000000E+00 0. -1.
          1   -1    0    0  501    0 -0.00000000000E+00 -0.00000000000E+00 -0.18336287840E+03  0.18336287840E+03  0.00000000000E+00 0. -1.
         25    2    1    2    0    0 -0.39876945732E+02  0.56467775958E+02  0.93275387411E+03  0.94362756923E+03  0.12499767684E+03 0.  0.
          2    1    1    2  501    0  0.28916789665E+02 -0.18446456013E+02 -0.17591136581E+03  0.17922405276E+03  0.00000000000E+00 0. -1.
          1    1    1    2  502    0  0.10960156067E+02 -0.38021319945E+02  0.10920583674E+04  0.10927750105E+04  0.00000000000E+00 0. -1.
         22    1    3    3    0    0  0.41849720308E+02 -0.23190226232E+01  0.24930852998E+03  0.25280727853E+03  0.00000000000E+00 0. -1.
         22    1    3    3    0    0 -0.81726666039E+02  0.58786798581E+02  0.68344534413E+03  0.69082029070E+03  0.00000000000E+00 0. -1.
</event>
<event>
 7    1  0.6140348E-006  0.1275919E+03  0.7818608E-02  0.1369280E+00
          2   -1    0    0  502    0  0.00000000000E+00  0.00000000000E+00  0.16503065150E+04  0.16503065150E+04  0.00000000000E+00 0. -1.
          1   -1    0    0  501    0 -0.00000000000E+00 -0.00000000000E+00 -0.20706629492E+03  0.20706629492E+03  0.00000000000E+00 0. -1.
         25    2    1    2    0    0 -0.89993631295E+02 -0.26354756706E+02  0.88560283477E+03  0.89928254635E+03  0.12499316112E+03 0.  0.
          2    1    1    2  501    0  0.12556109370E+03  0.26751989695E+02 -0.17917494520E+03  0.22041986796E+03  0.00000000000E+00 0. -1.
          1    1    1    2  502    0 -0.35567462409E+02 -0.39723298935E+00  0.73681233047E+03  0.73767039558E+03  0.00000000000E+00 0. -1.
         22    1    3    3    0    0 -0.86428470857E+01 -0.43416426910E+02  0.60526052950E+03  0.60687724747E+03  0.00000000000E+00 0. -1.
         22    1    3    3    0    0 -0.81350784209E+02  0.17061670205E+02  0.28034230528E+03  0.29240529887E+03  0.00000000000E+00 0. -1.
</event>
<event>
 7    1  0.6140348E-006  0.1119213E+03  0.7818608E-02  0.1327727E+00
          2   -1    0    0  502    0  0.00000000000E+00  0.00000000000E+00  0.37256641414E+03  0.37256641414E+03  0.00000000000E+00 0. -1.
          1   -1    0    0  501    0 -0.00000000000E+00 -0.00000000000E+00 -0.14824219635E+04  0.14824219635E+04  0.00000000000E+00 0. -1.
         25    2    1    2    0    0 -0.55208053508E+02 -0.11210313337E+03 -0.45568021982E+03  0.48875803294E+03  0.12499964137E+03 0.  0.
          2    1    1    2  501    0 -0.35113174003E+02  0.45981024521E+02 -0.10005479784E+04  0.10022192607E+04  0.00000000000E+00 0. -1.
          1    1    1    2  502    0  0.90321227511E+02  0.66122108848E+02  0.34637264881E+03  0.36401108398E+03  0.00000000000E+00 0. -1.
         22    1    3    3    0    0 -0.17571041016E+02 -0.12672487991E+03 -0.40011625840E+03  0.42007256147E+03  0.00000000000E+00 0.  1.
         22    1    3    3    0    0 -0.37637012492E+02  0.14621746537E+02 -0.55563961425E+02  0.68685471465E+02  0.00000000000E+00 0.  1.
</event>
<event>
 7    1  0.6140348E-006  0.9947427E+02  0.7818608E-02  0.1342724E+00
          2   -1    0    0  502    0  0.00000000000E+00  0.00000000000E+00  0.24644009402E+03  0.24644009402E+03  0.00000000000E+00 0. -1.
          1   -1    0    0  501    0 -0.00000000000E+00 -0.00000000000E+00 -0.79565785442E+03  0.79565785442E+03  0.00000000000E+00 0. -1.
         25    2    1    2    0    0  0.13069367208E+03 -0.59063607506E+02 -0.37687453317E+03  0.42217181536E+03  0.12500112911E+03 0.  0.
          2    1    1    2  501    0 -0.87070506441E+02  0.22205907218E+02 -0.38726138201E+03  0.39754968671E+03  0.00000000000E+00 0. -1.
          1    1    1    2  502    0 -0.43623165635E+02  0.36857700289E+02  0.21491815477E+03  0.22237644637E+03  0.00000000000E+00 0. -1.
         22    1    3    3    0    0  0.44462900787E+02 -0.24395471016E+02 -0.29180030960E+03  0.29617479508E+03  0.00000000000E+00 0. -1.
         22    1    3    3    0    0  0.86230771289E+02 -0.34668136491E+02 -0.85074223567E+02  0.12599702028E+03  0.00000000000E+00 0. -1.
</event>
<event>
 7    1  0.6140348E-006  0.8284590E+02  0.7818608E-02  0.1351829E+00
          2   -1    0    0  502    0  0.00000000000E+00  0.00000000000E+00  0.25413743127E+03  0.25413743127E+03  0.00000000000E+00 0. -1.
          1   -1    0    0  501    0 -0.00000000000E+00 -0.00000000000E+00 -0.77046643677E+03  0.77046643677E+03  0.00000000000E+00 0. -1.
         25    2    1    2    0    0 -0.93719302132E+02  0.85715201028E+02  0.65210087766E+02  0.18975972317E+03  0.12500397479E+03 0.  0.
          2    1    1    2  501    0  0.78621190583E+02 -0.24112199793E+02 -0.69768156702E+03  0.70251139403E+03  0.00000000000E+00 0. -1.
          1    1    1    2  502    0  0.15098111549E+02 -0.61603001235E+02  0.11614247376E+03  0.13233275084E+03  0.00000000000E+00 0. -1.
         22    1    3    3    0    0 -0.95035193335E+02  0.10647645497E+03  0.80578421399E+02  0.16389571510E+03  0.00000000000E+00 0.  1.
         22    1    3    3    0    0  0.13158912032E+01 -0.20761253938E+02 -0.15368333633E+02  0.25864008069E+02  0.00000000000E+00 0.  1.
</event>
<event>
 7    1  0.6140348E-006  0.1241503E+03  0.7818608E-02  0.1346113E+00
          2   -1    0    0  502    0  0.00000000000E+00  0.00000000000E+00  0.82169189346E+03  0.82169189346E+03  0.00000000000E+00 0. -1.
          1   -1    0    0  501    0 -0.00000000000E+00 -0.00000000000E+00 -0.13914983580E+04  0.13914983580E+04  0.00000000000E+00 0. -1.
         25    2    1    2    0    0  0.85103490058E+02 -0.78523428722E+02 -0.36533944590E+03  0.40312080388E+03  0.12499975566E+03 0.  0.
          2    1    1    2  501    0 -0.11769698962E+03  0.48310227311E+02 -0.10026301672E+04  0.10106699321E+04  0.00000000000E+00 0. -1.
          1    1    1    2  502    0  0.32593499564E+02  0.30213201411E+02  0.79816314853E+03  0.79939951553E+03  0.00000000000E+00 0. -1.
         22    1    3    3    0    0  0.24777843522E+02 -0.82923559745E+02 -0.30744113072E+03  0.31939052451E+03  0.00000000000E+00 0. -1.
         22    1    3    3    0    0  0.60325646536E+02  0.44001310235E+01 -0.57898315183E+02  0.83730279374E+02  0.00000000000E+00 0. -1.
</event>
<event>
 7    1  0.6140348E-006  0.2441403E+03  0.7818608E-02  0.1255597E+00
          2   -1    0    0  502    0  0.00000000000E+00  0.00000000000E+00  0.12358170397E+04  0.12358170397E+04  0.00000000000E+00 0. -1.
          1   -1    0    0  501    0 -0.00000000000E+00 -0.00000000000E+00 -0.19988666707E+03  0.19988666707E+03  0.00000000000E+00 0. -1.
         25    2    1    2    0    0  0.12570916252E+03 -0.25125864315E+03  0.54769229390E+03  0.62811184966E+03  0.12499579028E+03 0.  0.
          2    1    1    2  501    0 -0.81001299714E+02  0.22460134639E+03 -0.68525561112E+02  0.24840033793E+03  0.00000000000E+00 0. -1.
          1    1    1    2  502    0 -0.44707862803E+02  0.26657296761E+02  0.55676363980E+03  0.55919151913E+03  0.00000000000E+00 0. -1.
         22    1    3    3    0    0  0.85606283579E+02 -0.24495895420E+03  0.41591005235E+03  0.49021882529E+03  0.00000000000E+00 0.  1.
         22    1    3    3    0    0  0.40102878937E+02 -0.62996889538E+01  0.13178224156E+03  0.13789302437E+03  0.00000000000E+00 0.  1.
</event>
<event>
 7    1  0.6140348E-006  0.1135641E+03  0.7818608E-02  0.1394924E+00
          2   -1    0    0  502    0  0.00000000000E+00  0.00000000000E+00  0.24014822043E+04  0.24014822043E+04  0.00000000000E+00 0. -1.
          1   -1    0    0  501    0 -0.00000000000E+00 -0.00000000000E+00 -0.44748659464E+03  0.44748659464E+03  0.00000000000E+00 0. -1.
         25    2    1    2    0    0  0.81913639226E+02 -0.11523728511E+03  0.10210485791E+03  0.21456960344E+03  0.12500094616E+03 0.  0.
          2    1    1    2  501    0 -0.74852687800E+02  0.83572564708E+02 -0.38309116033E+03  0.39918183271E+03  0.00000000000E+00 0. -1.
          1    1    1    2  502    0 -0.70609514258E+01  0.31664720404E+02  0.22349819121E+04  0.22352173628E+04  0.00000000000E+00 0. -1.
         22    1    3    3    0    0  0.43729173851E+02 -0.63685413799E+02  0.12458387200E+03  0.14659199753E+03  0.00000000000E+00 0.  1.
         22    1    3    3    0    0  0.38184465375E+02 -0.51551871314E+02 -0.22479014085E+02  0.67977605916E+02  0.00000000000E+00 0.  1.
</event>
<event>
 7    1  0.6140348E-006  0.1044356E+03  0.7818608E-02  0.1394179E+00
          2   -1    0    0  502    0  0.00000000000E+00  0.00000000000E+00  0.25303050026E+04  0.25303050026E+04  0.00000000000E+00 0. -1.
          1   -1    0    0  501    0 -0.00000000000E+00 -0.00000000000E+00 -0.20847218901E+02  0.20847218901E+02  0.00000000000E+00 0. -1.
         25    2    1    2    0    0  0.49054598021E+02 -0.59324680765E+02  0.59096719624E+03  0.60892772821E+03  0.12499991925E+03 0.  0.
          2    1    1    2  501    0  0.65775025712E+01 -0.34873808713E+02  0.20300907042E+02  0.40884873743E+02  0.00000000000E+00 0. -1.
          1    1    1    2  502    0 -0.55632100592E+02  0.94198489478E+02  0.18981896804E+04  0.19013396196E+04  0.00000000000E+00 0. -1.
         22    1    3    3    0    0  0.14746694877E+02  0.19252726890E+02  0.38585166029E+03  0.38661303166E+03  0.00000000000E+00 0.  1.
         22    1    3    3    0    0  0.34307903144E+02 -0.78577407655E+02  0.20511553595E+03  0.22231469655E+03  0.00000000000E+00 0.  1.
</event>
<event>
 7    1  0.6140348E-006  0.4365501E+02  0.7818608E-02  0.1573738E+00
          2   -1    0    0  502    0  0.00000000000E+00  0.00000000000E+00  0.13995718081E+04  0.13995718081E+04  0.00000000000E+00 0. -1.
          1   -1    0    0  501    0 -0.00000000000E+00 -0.00000000000E+00 -0.73724976288E+02  0.73724976288E+02  0.00000000000E+00 0. -1.
         25    2    1    2    0    0 -0.35576708288E+02  0.56425631941E+02  0.25489465088E+03  0.29163035187E+03  0.12500969951E+03 0.  0.
          2    1    1    2  501    0  0.97945966362E+01 -0.21837641017E+02 -0.52336673048E+02  0.57549492041E+02  0.00000000000E+00 0. -1.
          1    1    1    2  502    0  0.25782111652E+02 -0.34587990924E+02  0.11232888540E+04  0.11241169405E+04  0.00000000000E+00 0. -1.
         22    1    3    3    0    0  0.30922284076E+02  0.38807846717E+02  0.19237742393E+03  0.19867387815E+03  0.00000000000E+00 0. -1.
         22    1    3    3    0    0 -0.66498992364E+02  0.17617785224E+02  0.62517226954E+02  0.92956473726E+02  0.00000000000E+00 0. -1.
</event>
<event>
 7    1  0.6140348E-006  0.5894637E+02  0.7818608E-02  0.1424661E+00
          2   -1    0    0  502    0  0.00000000000E+00  0.00000000000E+00  0.26248255666E+04  0.26248255666E+04  0.00000000000E+00 0. -1.
          1   -1    0    0  501    0 -0.00000000000E+00 -0.00000000000E+00 -0.46613827880E+03  0.46613827880E+03  0.00000000000E+00 0. -1.
         25    2    1    2    0    0  0.80863266867E+02 -0.68464940650E+02  0.49748134260E+03  0.52377418968E+03  0.12500159802E+03 0.  0.
          2    1    1    2  501    0 -0.36764156781E+02  0.45861192829E+02 -0.45079330586E+03  0.45460912534E+03  0.00000000000E+00 0. -1.
          1    1    1    2  502    0 -0.44099110087E+02  0.22603747820E+02  0.21119992510E+04  0.21125805303E+04  0.00000000000E+00 0. -1.
         22    1    3    3    0    0  0.45248141217E+02 -0.10407869518E+03  0.34195931695E+03  0.36029979673E+03  0.00000000000E+00 0.  1.
         22    1    3    3    0    0  0.35615125650E+02  0.35613754527E+02  0.15552202565E+03  0.16347439295E+03  0.00000000000E+00 0.  1.
</event>
<event>
 7    1  0.6140348E-006  0.1357376E+03  0.7818608E-02  0.1350764E+00
          2   -1    0    0  502    0  0.00000000000E+00  0.00000000000E+00  0.23208195591E+03  0.23208195591E+03  0.00000000000E+00 0. -1.
          1   -1    0    0  501    0 -0.00000000000E+00 -0.00000000000E+00 -0.23351848138E+03  0.23351848138E+03  0.00000000000E+00 0. -1.
         25    2    1    2    0    0 -0.18067196055E+02 -0.11233764013E+03 -0.34724039953E+02  0.17258994379E+03  0.12504143628E+03 0.  0.
          2    1    1    2  501    0  0.24207786948E+02 -0.30659319574E+02 -0.93795624012E+02  0.10160526517E+03  0.00000000000E+00 0. -1.
          1    1    1    2  502    0 -0.61405908935E+01  0.14299695970E+03  0.12708313850E+03  0.19140522833E+03  0.00000000000E+00 0. -1.
         22    1    3    3    0    0  0.42895477614E+02 -0.99181160546E+01 -0.30057276208E+02  0.53308825525E+02  0.00000000000E+00 0. -1.
         22    1    3    3    0    0 -0.60962673668E+02 -0.10241952407E+03 -0.46667637449E+01  0.11928111827E+03  0.00000000000E+00 0. -1.
</event>
<event>
 7    1  0.6140348E-006  0.1447296E+03  0.7818608E-02  0.1258101E+00
          2   -1    0    0  502    0  0.00000000000E+00  0.00000000000E+00  0.52113082882E+03  0.52113082882E+03  0.00000000000E+00 0. -1.
          1   -1    0    0  501    0 -0.00000000000E+00 -0.00000000000E+00 -0.14342592528E+04  0.14342592528E+04  0.00000000000E+00 0. -1.
         25    2    1    2    0    0 -0.17039768516E+03  0.79905909149E+02 -0.26241582896E+03  0.34627584681E+03  0.12499827746E+03 0.  0.
          2    1    1    2  501    0  0.26587090932E+02 -0.81429434328E+02 -0.11174463919E+04  0.11207247945E+04  0.00000000000E+00 0. -1.
          1    1    1    2  502    0  0.14381059423E+03  0.15235251794E+01  0.46673379696E+03  0.48838944027E+03  0.00000000000E+00 0. -1.
         22    1    3    3    0    0 -0.11464906591E+03  0.31947039002E+02 -0.65004115994E+02  0.13561178677E+03  0.00000000000E+00 0. -1.
         22    1    3    3    0    0 -0.55748619247E+02  0.47958870147E+02 -0.19741171296E+03  0.21066406003E+03  0.00000000000E+00 0. -1.
</event>
<event>
 7    1  0.6140348E-006  0.4299500E+02  0.7818608E-02  0.1556590E+00
          2   -1    0    0  502    0  0.00000000000E+00  0.00000000000E+00  0.11012093430E+04  0.11012093430E+04  0.00000000000E+00 0. -1.
          1   -1    0    0  501    0 -0.00000000000E+00 -0.00000000000E+00 -0.82688317753E+02  0.82688317753E+02  0.00000000000E+00 0. -1.
         25    2    1    2    0    0  0.42386188991E+02 -0.23132936241E+02  0.17737625260E+03  0.22230444445E+03  0.12500083711E+03 0.  0.
          2    1    1    2  501    0 -0.19909040333E+02  0.38220536023E+02 -0.52283428336E+02  0.67754971327E+02  0.00000000000E+00 0. -1.
          1    1    1    2  502    0 -0.22477148657E+02 -0.15087599781E+02  0.89342820101E+03  0.89383824501E+03  0.00000000000E+00 0. -1.
         22    1    3    3    0    0  0.74751133950E+02 -0.21043634163E+02  0.53622033437E+02  0.94371017985E+02  0.00000000000E+00 0.  1.
         22    1    3    3    0    0 -0.32364944959E+02 -0.20893020780E+01  0.12375421917E+03  0.12793342646E+03  0.00000000000E+00 0.  1.
</event>
<event>
 7    1  0.6140348E-006  0.5331142E+02  0.7818608E-02  0.1504203E+00
          2   -1    0    0  502    0  0.00000000000E+00  0.00000000000E+00  0.53680058466E+03  0.53680058466E+03  0.00000000000E+00 0. -1.
          1   -1    0    0  501    0 -0.00000000000E+00 -0.00000000000E+00 -0.77523774863E+03  0.77523774863E+03  0.00000000000E+00 0. -1.
         25    2    1    2    0    0  0.29637820116E+02  0.60185356860E+02  0.13980279741E+03  0.19917572894E+03  0.12500188509E+03 0.  0.
          2    1    1    2  501    0 -0.42483399320E+02 -0.32144413277E+02 -0.74394961331E+03  0.74585463039E+03  0.00000000000E+00 0. -1.
          1    1    1    2  502    0  0.12845579204E+02 -0.28040943583E+02  0.36570965194E+03  0.36700797395E+03  0.00000000000E+00 0. -1.
         22    1    3    3    0    0 -0.24613899253E+02 -0.15865463528E+02  0.87155505705E+02  0.91943673758E+02  0.00000000000E+00 0.  1.
         22    1    3    3    0    0  0.54251719368E+02  0.76050820388E+02  0.52647291702E+02  0.10723205519E+03  0.00000000000E+00 0.  1.
</event>
<event>
 7    1  0.6140348E-006  0.7543051E+02  0.7818608E-02  0.1410095E+00
          2   -1    0    0  502    0  0.00000000000E+00  0.00000000000E+00  0.13694506774E+03  0.13694506774E+03  0.00000000000E+00 0. -1.
          1   -1    0    0  501    0 -0.00000000000E+00 -0.00000000000E+00 -0.21296981814E+04  0.21296981814E+04  0.00000000000E+00 0. -1.
         25    2    1    2    0    0 -0.59767568859E+02  0.64597453833E+01 -0.40473774352E+03  0.42784547287E+03  0.12500086811E+03 0.  0.
          2    1    1    2  501    0  0.21126900333E+01  0.43282584085E+02 -0.17015446372E+04  0.17020963539E+04  0.00000000000E+00 0. -1.
          1    1    1    2  502    0  0.57654878826E+02 -0.49742329468E+02  0.11352926708E+03  0.13670142237E+03  0.00000000000E+00 0. -1.
         22    1    3    3    0    0  0.12157470278E+02 -0.36004769570E+02 -0.24158220323E+03  0.24455287451E+03  0.00000000000E+00 0.  1.
         22    1    3    3    0    0 -0.71925039137E+02  0.42464514953E+02 -0.16315554029E+03  0.18329259836E+03  0.00000000000E+00 0.  1.
</event>
<event>
 7    1  0.6140348E-006  0.5237644E+02  0.7818608E-02  0.1490625E+00
          2   -1    0    0  502    0  0.00000000000E+00  0.00000000000E+00  0.56215763832E+03  0.56215763832E+03  0.00000000000E+00 0. -1.
          1   -1    0    0  501    0 -0.00000000000E+00 -0.00000000000E+00 -0.18793428488E+03  0.18793428488E+03  0.00000000000E+00 0. -1.
         25    2    1    2    0    0  0.13777246582E+02 -0.76179815471E+02  0.92179600376E+02  0.17355275224E+03  0.12502120731E+03 0.  0.
          2    1    1    2  501    0 -0.23249955456E+02  0.25455613270E+02 -0.14365016291E+03  0.14772920490E+03  0.00000000000E+00 0. -1.
          1    1    1    2  502    0  0.94727088735E+01  0.50724202201E+02  0.42569391597E+03  0.42880996606E+03  0.00000000000E+00 0. -1.
         22    1    3    3    0    0  0.39206410725E+02 -0.93203315235E+02  0.99743077629E+02  0.14203056765E+03  0.00000000000E+00 0.  1.
         22    1    3    3    0    0 -0.25429164143E+02  0.17023499765E+02 -0.75634772532E+01  0.31522184591E+02  0.00000000000E+00 0.  1.
</event>
<event>
 7    1  0.6140348E-006  0.1190467E+03  0.7818608E-02  0.1444953E+00
          2   -1    0    0  502    0  0.00000000000E+00  0.00000000000E+00  0.26235200453E+03  0.26235200453E+03  0.00000000000E+00 0. -1.
          1   -1    0    0  501    0 -0.00000000000E+00 -0.00000000000E+00 -0.36811933815E+03  0.36811933815E+03  0.00000000000E+00 0. -1.
         25    2    1    2    0    0  0.49394009653E+02 -0.12409033247E+03 -0.56406319926E+02  0.19142760778E+03  0.12499870915E+03 0.  0.
          2    1    1    2  501    0 -0.32484087291E+02  0.11153596011E+03 -0.22973906058E+03  0.25744032761E+03  0.00000000000E+00 0. -1.
          1    1    1    2  502    0 -0.16909922362E+02  0.12554372369E+02  0.18037804689E+03  0.18160340729E+03  0.00000000000E+00 0. -1.
         22    1    3    3    0    0  0.49421146079E+02 -0.12407118561E+03  0.14613875185E+01  0.13355989080E+03  0.00000000000E+00 0.  1.
         22    1    3    3    0    0 -0.27136426080E-01 -0.19146866988E-01 -0.57867707445E+02  0.57867716975E+02  0.00000000000E+00 0.  1.
</event>
<event>
 7    1  0.6140348E-006  0.1323282E+03  0.7818608E-02  0.1412658E+00
          2   -1    0    0  502    0  0.00000000000E+00  0.00000000000E+00  0.32565152319E+03  0.32565152319E+03  0.00000000000E+00 0. -1.
          1   -1    0    0  501    0 -0.00000000000E+00 -0.00000000000E+00 -0.26039246191E+04  0.26039246191E+04  0.00000000000E+00 0. -1.
         25    2    1    2    0    0 -0.15466316176E+03 -0.18050708466E+02 -0.18285276328E+04  0.18393981166E+04  0.12500242270E+03 0.  0.
          2    1    1    2  501    0  0.22901422521E+02  0.78620816382E+01 -0.75612440338E+03  0.75651199651E+03  0.00000000000E+00 0. -1.
          1    1    1    2  502    0  0.13176173924E+03  0.10188626827E+02  0.30637894024E+03  0.33366602923E+03  0.00000000000E+00 0. -1.
         22    1    3    3    0    0 -0.10057071864E+03  0.41188057389E+02 -0.13326126485E+04  0.13370367970E+04  0.00000000000E+00 0.  1.
         22    1    3    3    0    0 -0.54092443119E+02 -0.59238765855E+02 -0.49591498428E+03  0.50236131958E+03  0.00000000000E+00 0.  1.
</event>
<event>
 7    1  0.6140348E-006  0.1745567E+03  0.7818608E-02  0.1312680E+00
          2   -1    0    0  502    0  0.00000000000E+00  0.00000000000E+00  0.13326922630E+04  0.13326922630E+04  0.00000000000E+00 0. -1.
          1   -1    0    0  501    0 -0.00000000000E+00 -0.00000000000E+00 -0.10953231572E+03  0.10953231572E+03  0.00000000000E+00 0. -1.
         25    2    1    2    0    0  0.92249593867E+02 -0.10751178176E+03  0.11468411316E+03  0.22100992350E+03  0.12499667871E+03 0.  0.
          2    1    1    2  501    0  0.40556577618E+02 -0.12470823903E+02 -0.40336539152E+02  0.58543947832E+02  0.00000000000E+00 0. -1.
          1    1    1    2  502    0 -0.13280617149E+03  0.11998260567E+03  0.11488123733E+04  0.11626707074E+04  0.00000000000E+00 0. -1.
         22    1    3    3    0    0  0.61258925726E+02 -0.12522403815E+03  0.51831742720E+02  0.14872876408E+03  0.00000000000E+00 0. -1.
         22    1    3    3    0    0  0.30990668142E+02  0.17712256384E+02  0.62852370439E+02  0.72281159426E+02  0.00000000000E+00 0. -1.
</event>
<event>
 7    1  0.6938923E-006  0.7719469E+02  0.7818608E-02  0.1342216E+00
          2   -1    0    0  502    0  0.00000000000E+00  0.00000000000E+00  0.12347850546E+04  0.12347850546E+04  0.00000000000E+00 0. -1.
          1   -1    0    0  501    0 -0.00000000000E+00 -0.00000000000E+00 -0.84524121907E+03  0.84524121907E+03  0.00000000000E+00 0. -1.
         25    2    1    2    0    0  0.65121685507E+01 -0.69057243733E+02 -0.78553768228E+02  0.16311225093E+03  0.12499440247E+03 0.  0.
          2    1    1    2  501    0  0.63977506944E+02  0.46817516019E+02 -0.72108830445E+03  0.72543321127E+03  0.00000000000E+00 0. -1.
          1    1    1    2  502    0 -0.70489675494E+02  0.22239727714E+02  0.11891859082E+04  0.11914808114E+04  0.00000000000E+00 0. -1.
         22    1    3    3    0    0  0.10238553462E+02 -0.71505882919E+02  0.11329685598E+02  0.73118267518E+02  0.00000000000E+00 0.  1.
         22    1    3    3    0    0 -0.37263849109E+01  0.24486391865E+01 -0.89883453826E+02  0.89993983410E+02  0.00000000000E+00 0.  1.
</event>
<event>
 7    1  0.6140348E-006  0.7498322E+02  0.7818608E-02  0.1491607E+00
          2   -1    0    0  502    0  0.00000000000E+00  0.00000000000E+00  0.12430039875E+02  0.12430039875E+02  0.00000000000E+00 0. -1.
          1   -1    0    0  501    0 -0.00000000000E+00 -0.00000000000E+00 -0.14283654206E+04  0.14283654206E+04  0.00000000000E+00 0. -1.
         25    2    1    2    0    0  0.70638708873E+02  0.23961455606E+02 -0.92916576857E+03  0.94049892427E+03  0.12500089015E+03 0.  0.
          2    1    1    2  501    0 -0.10086116242E+02  0.21686701453E+02 -0.26180210979E+03  0.26289234955E+03  0.00000000000E+00 0. -1.
          1    1    1    2  502    0 -0.60552592631E+02 -0.45648157059E+02 -0.22496750233E+03  0.23740418662E+03  0.00000000000E+00 0. -1.
         22    1    3    3    0    0 -0.44475328820E+01  0.58446862472E+02 -0.27803846526E+03  0.28414996823E+03  0.00000000000E+00 0.  1.
         22    1    3    3    0    0  0.75086241755E+02 -0.34485406866E+02 -0.65112730331E+03  0.65634895605E+03  0.00000000000E+00 0.  1.
</event>
<event>
 7    1  0.6140348E-006  0.1014753E+03  0.7818608E-02  0.1305034E+00
          2   -1    0    0  502    0  0.00000000000E+00  0.00000000000E+00  0.34786507655E+03  0.34786507655E+03  0.00000000000E+00 0. -1.
          1   -1    0    0  501    0 -0.00000000000E+00 -0.00000000000E+00 -0.54909374958E+03  0.54909374958E+03  0.00000000000E+00 0. -1.
         25    2    1    2    0    0  0.14210692249E+03  0.42341231216E+02 -0.19832063119E+03  0.27738451548E+03  0.12499575749E+03 0.  0.
          2    1    1    2  501    0 -0.93364081076E+02  0.18863150837E+02 -0.29874676462E+03  0.31356386824E+03  0.00000000000E+00 0. -1.
          1    1    1    2  502    0 -0.48742841414E+02 -0.61204382054E+02  0.29583872278E+03  0.30601044242E+03  0.00000000000E+00 0. -1.
         22    1    3    3    0    0  0.83321397171E+02  0.86712459703E+02 -0.12528583109E+03  0.17366071912E+03  0.00000000000E+00 0.  1.
         22    1    3    3    0    0  0.58785525319E+02 -0.44371228486E+02 -0.73034800102E+02  0.10372379636E+03  0.00000000000E+00 0.  1.
</event>
<event>
 7    1  0.6140348E-006  0.9971553E+02  0.7818608E-02  0.1293088E+00
          2   -1    0    0  502    0  0.00000000000E+00  0.00000000000E+00  0.37847992939E+03  0.37847992939E+03  0.00000000000E+00 0. -1.
          1   -1    0    0  501    0 -0.00000000000E+00 -0.00000000000E+00 -0.58832185382E+03  0.58832185382E+03  0.00000000000E+00 0. -1.
         25    2    1    2    0    0  0.63933065104E+02  0.12368603420E+03 -0.24125406511E+03  0.30531924807E+03  0.12502258773E+03 0.  0.
          2    1    1    2  501    0  0.27523573976E+02 -0.84539385047E+02 -0.30133773577E+03  0.31417970295E+03  0.00000000000E+00 0. -1.
          1    1    1    2  502    0 -0.91456639080E+02 -0.39146649155E+02  0.33274987644E+03  0.34730283218E+03  0.00000000000E+00 0. -1.
         22    1    3    3    0    0 -0.28953360581E+01 -0.24434151170E+02 -0.30119583380E+02  0.38892158815E+02  0.00000000000E+00 0. -1.
         22    1    3    3    0    0  0.66828401162E+02  0.14812018537E+03 -0.21113448173E+03  0.26642708926E+03  0.00000000000E+00 0. -1.
</event>
<event>
 7    1  0.6140348E-006  0.1103159E+03  0.7818608E-02  0.1311053E+00
          2   -1    0    0  502    0  0.00000000000E+00  0.00000000000E+00  0.26201547892E+03  0.26201547892E+03  0.00000000000E+00 0. -1.
          1   -1    0    0  501    0 -0.00000000000E+00 -0.00000000000E+00 -0.77217029041E+03  0.77217029041E+03  0.00000000000E+00 0. -1.
         25    2    1    2    0    0 -0.11019749661E+03 -0.32339877054E+02 -0.52199389451E+03  0.54888767136E+03  0.12494276273E+03 0.  0.
          2    1    1    2  501    0  0.53827476181E+01  0.67922107804E+02 -0.21896667674E+03  0.22932246341E+03  0.00000000000E+00 0. -1.
          1    1    1    2  502    0  0.10481474899E+03 -0.35582230750E+02  0.23080575976E+03  0.25597563456E+03  0.00000000000E+00 0. -1.
         22    1    3    3    0    0 -0.13084479596E+03 -0.17883423765E+02 -0.33316518485E+03  0.35838417637E+03  0.00000000000E+00 0. -1.
         22    1    3    3    0    0  0.20647299351E+02 -0.14456453289E+02 -0.18882870966E+03  0.19050349499E+03  0.00000000000E+00 0. -1.
</event>
<event>
 7    1  0.6140348E-006  0.7336976E+02  0.7818608E-02  0.1385302E+00
          2   -1    0    0  502    0  0.00000000000E+00  0.00000000000E+00  0.17107048729E+04  0.17107048729E+04  0.00000000000E+00 0. -1.
          1   -1    0    0  501    0 -0.00000000000E+00 -0.00000000000E+00 -0.11568392119E+03  0.11568392119E+03  0.00000000000E+00 0. -1.
         25    2    1    2    0    0 -0.23743988069E+02  0.85665392322E+02  0.12350768575E+03  0.19693440795E+03  0.12500670456E+03 0.  0.
          2    1    1    2  501    0 -0.34926100593E+02 -0.41513250255E+02 -0.68674212443E+02  0.87517597682E+02  0.00000000000E+00 0. -1.
          1    1    1    2  502    0  0.58670088662E+02 -0.44152142068E+02  0.15401874785E+04  0.15419367885E+04  0.00000000000E+00 0. -1.
         22    1    3    3    0    0  0.22466257611E+02 -0.16282173238E+02  0.64911444674E+02  0.70592758454E+02  0.00000000000E+00 0.  1.
         22    1    3    3    0    0 -0.46210245679E+02  0.10194756556E+03  0.58596241073E+02  0.12634164950E+03  0.00000000000E+00 0.  1.
</event>
<event>
 7    1  0.6140348E-006  0.5486786E+02  0.7818608E-02  0.1529416E+00
          2   -1    0    0  502    0  0.00000000000E+00  0.00000000000E+00  0.89792090559E+03  0.89792090559E+03  0.00000000000E+00 0. -1.
          1   -1    0    0  501    0 -0.00000000000E+00 -0.00000000000E+00 -0.19948906176E+03  0.19948906176E+03  0.00000000000E+00 0. -1.
         25    2    1    2    0    0  0.53027246196E+02  0.56135515146E+02  0.23247721559E+02  0.14875645682E+03  0.12499976795E+03 0.  0.
          2    1    1    2  501    0 -0.41801431326E+02 -0.33462163772E+02 -0.13128665836E+03  0.14178597507E+03  0.00000000000E+00 0. -1.
          1    1    1    2  502    0 -0.11225814870E+02 -0.22673351374E+02  0.80647078062E+03  0.80686753546E+03  0.00000000000E+00 0. -1.
         22    1    3    3    0    0  0.85761343912E+02  0.21935636207E+02 -0.12546386317E+02  0.89406890423E+02  0.00000000000E+00 0.  1.
         22    1    3    3    0    0 -0.32734097716E+02  0.34199878939E+02  0.35794107876E+02  0.59349566395E+02  0.00000000000E+00 0.  1.
</event>
<event>
 7    1  0.6140348E-006  0.7093160E+02  0.7818608E-02  0.1412978E+00
          2   -1    0    0  502    0  0.00000000000E+00  0.00000000000E+00  0.99524593033E+03  0.99524593033E+03  0.00000000000E+00 0. -1.
          1   -1    0    0  501    0 -0.00000000000E+00 -0.00000000000E+00 -0.48243466072E+02  0.48243466072E+02  0.00000000000E+00 0. -1.
         25    2    1    2    0    0  0.37942352466E+01  0.10368636655E+03  0.21708986157E+03  0.27114256557E+03  0.12500009616E+03 0.  0.
          2    1    1    2  501    0  0.21916103160E+02 -0.39371016752E+02  0.63833183719E+01  0.45509771382E+02  0.00000000000E+00 0. -1.
          1    1    1    2  502    0 -0.25710338407E+02 -0.64315349800E+02  0.72352928432E+03  0.72683705945E+03  0.00000000000E+00 0. -1.
         22    1    3    3    0    0 -0.27762504414E+00  0.12969662409E+03  0.20400710929E+03  0.24174406304E+03  0.00000000000E+00 0. -1.
         22    1    3    3    0    0  0.40718602907E+01 -0.26010257543E+02  0.13082752282E+02  0.29398502529E+02  0.00000000000E+00 0. -1.
</event>
<event>
 7    1  0.6140348E-006  0.7888146E+02  0.7818608E-02  0.1355241E+00
          2   -1    0    0  502    0  0.00000000000E+00  0.00000000000E+00  0.42076116769E+03  0.42076116769E+03  0.00000000000E+00 0. -1.
          1   -1    0    0  501    0 -0.00000000000E+00 -0.00000000000E+00 -0.39401960541E+03  0.39401960541E+03  0.00000000000E+00 0. -1.
         25    2    1    2    0    0 -0.59328861353E+01  0.13911242879E+02  0.28095601856E+03  0.30787923083E+03  0.12499845836E+03 0.  0.
          2    1    1    2  501    0  0.27253222788E+02 -0.75011385879E+02 -0.36770012630E+03  0.37626164971E+03  0.00000000000E+00 0. -1.
          1    1    1    2  502    0 -0.21320336653E+02  0.61100143000E+02  0.11348567002E+03  0.13063989256E+03  0.00000000000E+00 0. -1.
         22    1    3    3    0    0  0.53611503425E+02  0.46980755342E+01  0.68886600582E+02  0.87416411234E+02  0.00000000000E+00 0. -1.
         22    1    3    3    0    0 -0.59544389560E+02  0.92131673451E+01  0.21206941798E+03  0.22046281959E+03  0.00000000000E+00 0. -1.
</event>
<event>
 7    1  0.6140348E-006  0.7674789E+02  0.7818608E-02  0.1447743E+00
          2   -1    0    0  502    0  0.00000000000E+00  0.00000000000E+00  0.66617599662E+03  0.66617599662E+03  0.00000000000E+00 0. -1.
          1   -1    0    0  501    0 -0.00000000000E+00 -0.00000000000E+00 -0.23576481514E+03  0.23576481514E+03  0.00000000000E+00 0. -1.
         25    2    1    2    0    0 -0.10438918160E+03 -0.11558407413E+02  0.18692834684E+03  0.24818658655E+03  0.12499470738E+03 0.  0.
          2    1    1    2  501    0  0.30448807352E+02  0.98429374148E+01 -0.20081189883E+03  0.20334559744E+03  0.00000000000E+00 0. -1.
          1    1    1    2  502    0  0.73940374244E+02  0.17154699986E+01  0.44429473347E+03  0.45040862777E+03  0.00000000000E+00 0. -1.
         22    1    3    3    0    0 -0.14923959541E+02  0.29720443025E+02  0.13044082037E+03  0.13461365801E+03  0.00000000000E+00 0. -1.
         22    1    3    3    0    0 -0.89465222056E+02 -0.41278850439E+02  0.56487526465E+02  0.11357292854E+03  0.00000000000E+00 0. -1.
</event>
<event>
 7    1  0.6140348E-006  0.9365466E+02  0.7818608E-02  0.1425743E+00
          2   -1    0    0  502    0  0.00000000000E+00  0.00000000000E+00  0.29015168134E+03  0.29015168134E+03  0.00000000000E+00 0. -1.
          1   -1    0    0  501    0 -0.00000000000E+00 -0.00000000000E+00 -0.60996848414E+03  0.60996848414E+03  0.00000000000E+00 0. -1.
         25    2    1    2    0    0  0.68313364182E+02  0.29563562209E+02 -0.31461528284E+02  0.14884869438E+03  0.12500154448E+03 0.  0.
          2    1    1    2  501    0 -0.94398154634E+02 -0.12936798069E+02 -0.51438490620E+03  0.52313497691E+03  0.00000000000E+00 0. -1.
          1    1    1    2  502    0  0.26084790451E+02 -0.16626764141E+02  0.22602963168E+03  0.22813649418E+03  0.00000000000E+00 0. -1.
         22    1    3    3    0    0  0.68810557916E+02  0.56008055202E+02  0.20034878530E+02  0.90957085958E+02  0.00000000000E+00 0.  1.
         22    1    3    3    0    0 -0.49719373384E+00 -0.26444492993E+02 -0.51496406814E+02  0.57891608425E+02  0.00000000000E+00 0.  1.
</event>
<event>
 7    1  0.6140348E-006  0.4191608E+02  0.7818608E-02  0.1526338E+00
          2   -1    0    0  502    0  0.00000000000E+00  0.00000000000E+00  0.81115870225E+03  0.81115870225E+03  0.00000000000E+00 0. -1.
          1   -1    0    0  501    0 -0.00000000000E+00 -0.00000000000E+00 -0.50159242169E+02  0.50159242169E+02  0.00000000000E+00 0. -1.
         25    2    1    2    0    0  0.10626489507E+02  0.28822873301E+02  0.26631089223E+03  0.29578723648E+03  0.12499967055E+03 0.  0.
          2    1    1    2  501    0  0.30338041807E+02 -0.14898833836E+02 -0.26252009472E+02  0.42796495553E+02  0.00000000000E+00 0. -1.
          1    1    1    2  502    0 -0.40964531313E+02 -0.13924039465E+02  0.52094057732E+03  0.52273421239E+03  0.00000000000E+00 0. -1.
         22    1    3    3    0    0  0.49402064509E+02  0.42328695059E+02  0.23586028060E+03  0.24466784498E+03  0.00000000000E+00 0. -1.
         22    1    3    3    0    0 -0.38775575003E+02 -0.13505821758E+02  0.30450611630E+02  0.51119391495E+02  0.00000000000E+00 0. -1.
</event>
<event>
 7    1  0.6140348E-006  0.3179605E+02  0.7818608E-02  0.1632093E+00
          2   -1    0    0  502    0  0.00000000000E+00  0.00000000000E+00  0.55804906456E+03  0.55804906456E+03  0.00000000000E+00 0. -1.
          1   -1    0    0  501    0 -0.00000000000E+00 -0.00000000000E+00 -0.17335473618E+03  0.17335473618E+03  0.00000000000E+00 0. -1.
         25    2    1    2    0    0 -0.94950425912E+01 -0.16929565295E+02  0.48785583403E+02  0.13557469019E+03  0.12499478972E+03 0.  0.
          2    1    1    2  501    0  0.31053884738E+02  0.84714056762E+01 -0.12767356530E+03  0.13166870451E+03  0.00000000000E+00 0. -1.
          1    1    1    2  502    0 -0.21558842147E+02  0.84581596189E+01  0.46358231027E+03  0.46416040604E+03  0.00000000000E+00 0. -1.
         22    1    3    3    0    0 -0.61346543424E+02  0.16683200289E+02  0.15712750861E+02  0.65487541575E+02  0.00000000000E+00 0.  1.
         22    1    3    3    0    0  0.51851500833E+02 -0.33612765585E+02  0.33072832542E+02  0.70087148616E+02  0.00000000000E+00 0.  1.
</event>
<event>
 7    1  0.6140348E-006  0.8771090E+02  0.7818608E-02  0.1468396E+00
          2   -1    0    0  502    0  0.00000000000E+00  0.00000000000E+00  0.37848800255E+03  0.37848800255E+03  0.00000000000E+00 0. -1.
          1   -1    0    0  501    0 -0.00000000000E+00 -0.00000000000E+00 -0.76216359560E+03  0.76216359560E+03  0.00000000000E+00 0. -1.
         25    2    1    2    0    0 -0.67197526276E+01  0.64417516773E+02 -0.93015513993E+02  0.16873745753E+03  0.12500268873E+03 0.  0.
          2    1    1    2  501    0  0.43728792189E+00  0.24085787846E+02 -0.62527343036E+03  0.62573730839E+03  0.00000000000E+00 0. -1.
          1    1    1    2  502    0  0.62824647057E+01 -0.88503304618E+02  0.33461335131E+03  0.34617683222E+03  0.00000000000E+00 0. -1.
         22    1    3    3    0    0 -0.63312561343E+02  0.53812431606E+02 -0.58287153637E+02  0.10149704675E+03  0.00000000000E+00 0.  1.
         22    1    3    3    0    0  0.56592808715E+02  0.10605085167E+02 -0.34728360356E+02  0.67240410786E+02  0.00000000000E+00 0.  1.
</event>
<event>
 7    1  0.6140348E-006  0.5663292E+02  0.7818608E-02  0.1412794E+00
          2   -1    0    0  502    0  0.00000000000E+00  0.00000000000E+00  0.17617184485E+04  0.17617184485E+04  0.00000000000E+00 0. -1.
          1   -1    0    0  501    0 -0.00000000000E+00 -0.00000000000E+00 -0.32842376029E+02  0.32842376029E+02  0.00000000000E+00 0. -1.
         25    2    1    2    0    0 -0.53641682695E+02  0.26168783190E+02  0.24550617016E+03  0.28188673295E+03  0.12499846114E+03 0.  0.
          2    1    1    2  501    0  0.50068535149E+01 -0.56411162275E+02  0.42852003525E+02  0.71018180894E+02  0.00000000000E+00 0. -1.
          1    1    1    2  502    0  0.48634829180E+02  0.30242379085E+02  0.14405178988E+04  0.14416559107E+04  0.00000000000E+00 0. -1.
         22    1    3    3    0    0 -0.14038758433E+02 -0.44935665744E+02  0.43488797939E+02  0.64090376348E+02  0.00000000000E+00 0.  1.
         22    1    3    3    0    0 -0.39602924261E+02  0.71104448934E+02  0.20201737223E+03  0.21779635660E+03  0.00000000000E+00 0.  1.
</event>
<event>
 7    1  0.6140348E-006  0.5717367E+02  0.7818608E-02  0.1510495E+00
          2   -1    0    0  502    0  0.00000000000E+00  0.00000000000E+00  0.86906567301E+02  0.86906567301E+02  0.00000000000E+00 0. -1.
          1   -1    0    0  501    0 -0.00000000000E+00 -0.00000000000E+00 -0.36398957747E+03  0.36398957747E+03  0.00000000000E+00 0. -1.
         25    2    1    2    0    0  0.28896253205E+02  0.77430667603E+02 -0.83143936609E+02  0.17137404274E+03  0.12500258636E+03 0.  0.
          2    1    1    2  501    0 -0.21752403255E+02 -0.50818147246E+02 -0.22863106781E+03  0.23521865637E+03  0.00000000000E+00 0. -1.
          1    1    1    2  502    0 -0.71438499500E+01 -0.26612520357E+02  0.34691994253E+02  0.44303445657E+02  0.00000000000E+00 0. -1.
         22    1    3    3    0    0 -0.91938532224E+01  0.94813366945E+02 -0.22836085585E+02  0.97957073728E+02  0.00000000000E+00 0. -1.
         22    1    3    3    0    0  0.38090106427E+02 -0.17382699343E+02 -0.60307851024E+02  0.73416969014E+02  0.00000000000E+00 0. -1.
</event>
<event>
 7    1  0.6140348E-006  0.8575345E+02  0.7818608E-02  0.1361108E+00
          2   -1    0    0  502    0  0.00000000000E+00  0.00000000000E+00  0.10657148193E+04  0.10657148193E+04  0.00000000000E+00 0. -1.
          1   -1    0    0  501    0 -0.00000000000E+00 -0.00000000000E+00 -0.46686488873E+03  0.46686488873E+03  0.00000000000E+00 0. -1.
         25    2    1    2    0    0 -0.44721055599E+02 -0.71365502430E+02 -0.20886632134E+03  0.25757183251E+03  0.12500040386E+03 0.  0.
          2    1    1    2  501    0  0.85387218096E+02  0.31917906152E+02 -0.22394751267E+03  0.24178961553E+03  0.00000000000E+00 0. -1.
          1    1    1    2  502    0 -0.40666162497E+02  0.39447596278E+02  0.10316637646E+04  0.10332182600E+04  0.00000000000E+00 0. -1.
         22    1    3    3    0    0 -0.30912319573E+02 -0.22502657255E+02 -0.20287084902E+03  0.20644254035E+03  0.00000000000E+00 0.  1.
         22    1    3    3    0    0 -0.13808736026E+02 -0.48862845174E+02 -0.59954723202E+01  0.51129292167E+02  0.00000000000E+00 0.  1.
</event>
<event>
 7    1  0.6140348E-006  0.7742767E+02  0.7818608E-02  0.1399504E+00
          2   -1    0    0  502    0  0.00000000000E+00  0.00000000000E+00  0.87578460624E+03  0.87578460624E+03  0.00000000000E+00 0. -1.
          1   -1    0    0  501    0 -0.00000000000E+00 -0.00000000000E+00 -0.43834909859E+03  0.43834909859E+03  0.00000000000E+00 0. -1.
         25    2    1    2    0    0  0.22659505149E+02 -0.76948970786E+02 -0.13800599887E+03  0.20272152205E+03  0.12496304454E+03 0.  0.
          2    1    1    2  501    0 -0.60410379804E+02  0.50871430390E+02 -0.26152461552E+03  0.27318938658E+03  0.00000000000E+00 0. -1.
          1    1    1    2  502    0  0.37750874655E+02  0.26077540396E+02  0.83696612203E+03  0.83822279620E+03  0.00000000000E+00 0. -1.
         22    1    3    3    0    0 -0.42217665170E+02 -0.15868091184E+02 -0.91952572943E+02  0.10241778772E+03  0.00000000000E+00 0. -1.
         22    1    3    3    0    0  0.64877170319E+02 -0.61080879602E+02 -0.46053425922E+02  0.10030373433E+03  0.00000000000E+00 0. -1.
</event>
<event>
 7    1  0.6140348E-006  0.5106951E+02  0.7818608E-02  0.1439836E+00
          2   -1    0    0  502    0  0.00000000000E+00  0.00000000000E+00  0.43530179839E+02  0.43530179839E+02  0.00000000000E+00 0. -1.
          1   -1    0    0  501    0 -0.00000000000E+00 -0.00000000000E+00 -0.39788541071E+03  0.39788541071E+03  0.00000000000E+00 0. -1.
         25    2    1    2    0    0 -0.35261621252E+01 -0.11194474941E+02 -0.16618105052E+03  0.20827623318E+03  0.12500039067E+03 0.  0.
          2    1    1    2  501    0 -0.31640028848E+02 -0.40087445668E+02 -0.15386939990E+03  0.16212306113E+03  0.00000000000E+00 0. -1.
          1    1    1    2  502    0  0.35166190973E+02  0.51281920608E+02 -0.34304780452E+02  0.71016296233E+02  0.00000000000E+00 0. -1.
         22    1    3    3    0    0 -0.43964776700E+02 -0.51435676348E+02 -0.78115028885E+02  0.10334644711E+03  0.00000000000E+00 0.  1.
         22    1    3    3    0    0  0.40438614575E+02  0.40241201408E+02 -0.88066021633E+02  0.10492978608E+03  0.00000000000E+00 0.  1.
</event>
<event>
 7    1  0.6140348E-006  0.3941891E+02  0.7818608E-02  0.1598225E+00
          2   -1    0    0  502    0  0.00000000000E+00  0.00000000000E+00  0.23465356490E+04  0.23465356490E+04  0.00000000000E+00 0. -1.
          1   -1    0    0  501    0 -0.00000000000E+00 -0.00000000000E+00 -0.90283806186E+02  0.90283806186E+02  0.00000000000E+00 0. -1.
         25    2    1    2    0    0  0.52424152870E+02  0.32044029724E+02  0.10816525655E+03  0.17635302753E+03  0.12500222377E+03 0.  0.
          2    1    1    2  501    0 -0.21397458084E+02 -0.79104533537E+01 -0.53691767456E+02  0.58337229771E+02  0.00000000000E+00 0. -1.
          1    1    1    2  502    0 -0.31026694786E+02 -0.24133576370E+02  0.22017783537E+04  0.22021291979E+04  0.00000000000E+00 0. -1.
         22    1    3    3    0    0 -0.19334836330E+02  0.17425455710E+01  0.95478691367E+02  0.97432298886E+02  0.00000000000E+00 0. -1.
         22    1    3    3    0    0  0.71758989200E+02  0.30301484153E+02  0.12686565186E+02  0.78920728640E+02  0.00000000000E+00 0. -1.
</event>
<event>
 7    1  0.6140348E-006  0.4938008E+02  0.7818608E-02  0.1537570E+00
          2   -1    0    0  502    0  0.00000000000E+00  0.00000000000E+00  0.15361666356E+04  0.15361666356E+04  0.00000000000E+00 0. -1.
          1   -1    0    0  501    0 -0.00000000000E+00 -0.00000000000E+00 -0.77660898626E+03  0.77660898626E+03  0.00000000000E+00 0. -1.
         25    2    1    2    0    0  0.14747333295E+02  0.67466558968E+02  0.60581099880E+02  0.15512690403E+03  0.12500026509E+03 0.  0.
          2    1    1    2  501    0 -0.24559778947E+02 -0.42692738146E+02 -0.72838006517E+03  0.73004340417E+03  0.00000000000E+00 0. -1.
          1    1    1    2  502    0  0.98124456528E+01 -0.24773820821E+02  0.14273566147E+04  0.14276053137E+04  0.00000000000E+00 0. -1.
         22    1    3    3    0    0  0.29512496183E+02  0.89747730924E+02  0.78595387612E+02  0.12289376547E+03  0.00000000000E+00 0.  1.
         22    1    3    3    0    0 -0.14765162888E+02 -0.22281171956E+02 -0.18014287733E+02  0.32233138559E+02  0.00000000000E+00 0.  1.
</event>
<event>
 7    1  0.6140348E-006  0.9486758E+02  0.7818608E-02  0.1302729E+00
          2   -1    0    0  502    0  0.00000000000E+00  0.00000000000E+00  0.93890801169E+03  0.93890801169E+03  0.00000000000E+00 0. -1.
          1   -1    0    0  501    0 -0.00000000000E+00 -0.00000000000E+00 -0.36289983021E+03  0.36289983021E+03  0.00000000000E+00 0. -1.
         25    2    1    2    0    0  0.86282893767E+02  0.24379251714E+00 -0.95938951525E+02  0.17964491025E+03  0.12499285646E+03 0.  0.
          2    1    1    2  501    0 -0.43546003873E+02  0.84452232952E+02 -0.21242998323E+03  0.23271212232E+03  0.00000000000E+00 0. -1.
          1    1    1    2  502    0 -0.42736889894E+02 -0.84696025469E+02  0.88437711623E+03  0.88945080932E+03  0.00000000000E+00 0. -1.
         22    1    3    3    0    0 -0.25652627244E+02 -0.22142606430E+02 -0.62171967540E+01  0.34452951100E+02  0.00000000000E+00 0.  1.
         22    1    3    3    0    0  0.11193552101E+03  0.22386398947E+02 -0.89721754771E+02  0.14519195915E+03  0.00000000000E+00 0.  1.
</event>
<event>
 7    1  0.6140348E-006  0.5410447E+02  0.7818608E-02  0.1432974E+00
          2   -1    0    0  502    0  0.00000000000E+00  0.00000000000E+00  0.11942321642E+04  0.11942321642E+04  0.00000000000E+00 0. -1.
          1   -1    0    0  501    0 -0.00000000000E+00 -0.00000000000E+00 -0.46932472247E+02  0.46932472247E+02  0.00000000000E+00 0. -1.
         25    2    1    2    0    0 -0.23109154705E+02 -0.23058488221E+02  0.18355450935E+03  0.22446526737E+03  0.12500668559E+03 0.  0.
          2    1    1    2  501    0 -0.22873110457E+02  0.51570320349E+02  0.52285870331E+01  0.56656996436E+02  0.00000000000E+00 0. -1.
          1    1    1    2  502    0  0.45982265162E+02 -0.28511832128E+02  0.95851659557E+03  0.96004237264E+03  0.00000000000E+00 0. -1.
         22    1    3    3    0    0 -0.70696774187E+02 -0.36646575625E+02  0.11699233701E+03  0.14152106664E+03  0.00000000000E+00 0. -1.
         22    1    3    3    0    0  0.47587619482E+02  0.13588087404E+02  0.66562172345E+02  0.82944200729E+02  0.00000000000E+00 0. -1.
</event>
<event>
 7    1  0.6140348E-006  0.7842077E+02  0.7818608E-02  0.1379469E+00
          2   -1    0    0  502    0  0.00000000000E+00  0.00000000000E+00  0.49981228586E+03  0.49981228586E+03  0.00000000000E+00 0. -1.
          1   -1    0    0  501    0 -0.00000000000E+00 -0.00000000000E+00 -0.47443290275E+03  0.47443290275E+03  0.00000000000E+00 0. -1.
         25    2    1    2    0    0  0.21722149566E+02  0.11917279794E+03  0.21234058668E+02  0.17535739898E+03  0.12500129831E+03 0.  0.
          2    1    1    2  501    0 -0.31184228992E+02 -0.43127615275E+02 -0.39189977723E+03  0.39549700723E+03  0.00000000000E+00 0. -1.
          1    1    1    2  502    0  0.94620794259E+01 -0.76045182669E+02  0.39604510167E+03  0.40339078238E+03  0.00000000000E+00 0. -1.
         22    1    3    3    0    0  0.18089209636E+02  0.13215804850E+03  0.50899272493E+02  0.14277151407E+03  0.00000000000E+00 0. -1.
         22    1    3    3    0    0  0.36329399308E+01 -0.12985250557E+02 -0.29665213824E+02  0.32585884917E+02  0.00000000000E+00 0. -1.
</event>
<event>
 7    1  0.6140348E-006  0.6058037E+02  0.7818608E-02  0.1491261E+00
          2   -1    0    0  502    0  0.00000000000E+00  0.00000000000E+00  0.38305289588E+03  0.38305289588E+03  0.00000000000E+00 0. -1.
          1   -1    0    0  501    0 -0.00000000000E+00 -0.00000000000E+00 -0.19276893838E+04  0.19276893838E+04  0.00000000000E+00 0. -1.
         25    2    1    2    0    0  0.11791145001E+02  0.89260304648E+02 -0.34596872286E+03  0.37871620593E+03  0.12500069742E+03 0.  0.
          2    1    1    2  501    0 -0.47146796275E+01 -0.29298130477E+02 -0.15627195894E+04  0.15630013191E+04  0.00000000000E+00 0. -1.
          1    1    1    2  502    0 -0.70764653736E+01 -0.59962174171E+02  0.36405182433E+03  0.36902475458E+03  0.00000000000E+00 0. -1.
         22    1    3    3    0    0 -0.43222978368E+02  0.76174690476E+02 -0.27106609976E+03  0.28486424797E+03  0.00000000000E+00 0.  1.
         22    1    3    3    0    0  0.55014123369E+02  0.13085614172E+02 -0.74902623093E+02  0.93851957969E+02  0.00000000000E+00 0.  1.
</event>
<event>
 7    1  0.6140348E-006  0.1316357E+03  0.7818608E-02  0.1374383E+00
          2   -1    0    0  502    0  0.00000000000E+00  0.00000000000E+00  0.11456252597E+04  0.11456252597E+04  0.00000000000E+00 0. -1.
          1   -1    0    0  501    0 -0.00000000000E+00 -0.00000000000E+00 -0.45820222050E+03  0.45820222050E+03  0.00000000000E+00 0. -1.
         25    2    1    2    0    0  0.10386099353E+03 -0.87968727077E+02 -0.17061483265E+03  0.25151558811E+03  0.12500026808E+03 0.  0.
          2    1    1    2  501    0 -0.11745892832E+03  0.57840300387E+02 -0.22952758278E+03  0.26424422690E+03  0.00000000000E+00 0. -1.
          1    1    1    2  502    0  0.13597934790E+02  0.30128426690E+02  0.10875654547E+04  0.10880676652E+04  0.00000000000E+00 0. -1.
         22    1    3    3    0    0  0.14882718799E+02 -0.78498119265E+02 -0.31026637471E+02  0.85709406017E+02  0.00000000000E+00 0. -1.
         22    1    3    3    0    0  0.88978274732E+02 -0.94706078121E+01 -0.13958819518E+03  0.16580618210E+03  0.00000000000E+00 0. -1.
</event>
<event>
 7    1  0.6140348E-006  0.9047767E+02  0.7818608E-02  0.1313087E+00
          2   -1    0    0  502    0  0.00000000000E+00  0.00000000000E+00  0.15370858068E+04  0.15370858068E+04  0.00000000000E+00 0. -1.
          1   -1    0    0  501    0 -0.00000000000E+00 -0.00000000000E+00 -0.48499196723E+02  0.48499196723E+02  0.00000000000E+00 0. -1.
         25    2    1    2    0    0 -0.20389050937E+02 -0.31533342665E+02  0.31254866237E+03  0.33870577531E+03  0.12499948312E+03 0.  0.
          2    1    1    2  501    0 -0.65985364538E+02  0.61904278609E+02  0.27311730426E+02  0.94509992393E+02  0.00000000000E+00 0. -1.
          1    1    1    2  502    0  0.86374415475E+02 -0.30370935943E+02  0.11487262172E+04  0.11523692358E+04  0.00000000000E+00 0. -1.
         22    1    3    3    0    0  0.29253493126E+02 -0.48485649326E+02  0.67508986059E+02  0.88114063857E+02  0.00000000000E+00 0.  1.
         22    1    3    3    0    0 -0.49642544063E+02  0.16952306661E+02  0.24503967631E+03  0.25059171145E+03  0.00000000000E+00 0.  1.
</event>
<event>
 7    1  0.6140348E-006  0.3085855E+03  0.7818608E-02  0.1255772E+00
          2   -1    0    0  502    0  0.00000000000E+00  0.00000000000E+00  0.17807363097E+04  0.17807363097E+04  0.00000000000E+00 0. -1.
          1   -1    0    0  501    0 -0.00000000000E+00 -0.00000000000E+00 -0.26511531856E+04  0.26511531856E+04  0.00000000000E+00 0. -1.
         25    2    1    2    0    0 -0.31991450109E+03 -0.99204183430E+02 -0.10643009999E+03  0.37301307866E+03  0.12499853059E+03 0.  0.
          2    1    1    2  501    0  0.19335098835E+02  0.36279123620E+02 -0.23969426261E+04  0.23972951370E+04  0.00000000000E+00 0. -1.
          1    1    1    2  502    0  0.30057940225E+03  0.62925059811E+02  0.16329558502E+04  0.16615812796E+04  0.00000000000E+00 0. -1.
         22    1    3    3    0    0 -0.14697748948E+03 -0.44572713340E+02 -0.11434702545E+03  0.19147937596E+03  0.00000000000E+00 0.  1.
         22    1    3    3    0    0 -0.17293701160E+03 -0.54631470091E+02  0.79169254585E+01  0.18153370270E+03  0.00000000000E+00 0.  1.
</event>
<event>
 7    1  0.6140348E-006  0.1544631E+03  0.7818608E-02  0.1238153E+00
          2   -1    0    0  502    0  0.00000000000E+00  0.00000000000E+00  0.20219467870E+04  0.20219467870E+04  0.00000000000E+00 0. -1.
          1   -1    0    0  501    0 -0.00000000000E+00 -0.00000000000E+00 -0.42958276103E+03  0.42958276103E+03  0.00000000000E+00 0. -1.
         25    2    1    2    0    0 -0.72217733916E+02 -0.13753195572E+02  0.21241388476E+03  0.25719564576E+03  0.12500156109E+03 0.  0.
          2    1    1    2  501    0 -0.85008259980E+02 -0.48802432275E+02 -0.39721524429E+03  0.40913082499E+03  0.00000000000E+00 0. -1.
          1    1    1    2  502    0  0.15722599390E+03  0.62555627847E+02  0.17771653855E+04  0.17852030772E+04  0.00000000000E+00 0. -1.
         22    1    3    3    0    0 -0.90934903059E+02 -0.62314177040E+01  0.74238814085E+02  0.11755589597E+03  0.00000000000E+00 0.  1.
         22    1    3    3    0    0  0.18717169143E+02 -0.75217778681E+01  0.13817507068E+03  0.13963974978E+03  0.00000000000E+00 0.  1.
</event>
<event>
 7    1  0.6140348E-006  0.9824052E+02  0.7818608E-02  0.1335811E+00
          2   -1    0    0  502    0  0.00000000000E+00  0.00000000000E+00  0.41556415100E+03  0.41556415100E+03  0.00000000000E+00 0. -1.
          1   -1    0    0  501    0 -0.00000000000E+00 -0.00000000000E+00 -0.54680884625E+03  0.54680884625E+03  0.00000000000E+00 0. -1.
         25    2    1    2    0    0  0.92274241337E+02  0.29981045184E+02 -0.13367301981E+03  0.20713801965E+03  0.12499713706E+03 0.  0.
          2    1    1    2  501    0 -0.34778179034E+02  0.50599445682E+02 -0.36734502161E+03  0.37244085509E+03  0.00000000000E+00 0. -1.
          1    1    1    2  502    0 -0.57496062304E+02 -0.80580490866E+02  0.36977334617E+03  0.38279412251E+03  0.00000000000E+00 0. -1.
         22    1    3    3    0    0  0.31702638573E+02  0.18660500329E+02 -0.14041130933E+03  0.14515029229E+03  0.00000000000E+00 0. -1.
         22    1    3    3    0    0  0.60571602764E+02  0.11320544855E+02  0.67382895132E+01  0.61987727357E+02  0.00000000000E+00 0. -1.
</event>
<event>
 7    1  0.6140348E-006  0.6630803E+02  0.7818608E-02  0.1445558E+00
          2   -1    0    0  502    0  0.00000000000E+00  0.00000000000E+00  0.16073714232E+04  0.16073714232E+04  0.00000000000E+00 0. -1.
          1   -1    0    0  501    0 -0.00000000000E+00 -0.00000000000E+00 -0.11120079339E+04  0.11120079339E+04  0.00000000000E+00 0. -1.
         25    2    1    2    0    0  0.91109347235E+02 -0.57986664170E+01 -0.19444512816E+02  0.15600566486E+03  0.12500056281E+03 0.  0.
          2    1    1    2  501    0 -0.63106753719E+02 -0.19356727550E+02 -0.10229888259E+04  0.10251162291E+04  0.00000000000E+00 0. -1.
          1    1    1    2  502    0 -0.28002593516E+02  0.25155393967E+02  0.15377968280E+04  0.15382574632E+04  0.00000000000E+00 0. -1.
         22    1    3    3    0    0  0.74777001148E+02  0.11307445689E+02  0.44555002086E+02  0.87775887575E+02  0.00000000000E+00 0.  1.
         22    1    3    3    0    0  0.16332346087E+02 -0.17106112106E+02 -0.63999514902E+02  0.68229777281E+02  0.00000000000E+00 0.  1.
</event>
<event>
 7    1  0.6140348E-006  0.1097042E+03  0.7818608E-02  0.1286347E+00
          2   -1    0    0  502    0  0.00000000000E+00  0.00000000000E+00  0.17005043406E+03  0.17005043406E+03  0.00000000000E+00 0. -1.
          1   -1    0    0  501    0 -0.00000000000E+00 -0.00000000000E+00 -0.13266238941E+04  0.13266238941E+04  0.00000000000E+00 0. -1.
         25    2    1    2    0    0  0.20761795631E+02  0.57137582657E+02 -0.43794098066E+02  0.14573426442E+03  0.12499918916E+03 0.  0.
          2    1    1    2  501    0 -0.10540609426E+03 -0.41483004438E+02 -0.12133130145E+04  0.12185892481E+04  0.00000000000E+00 0. -1.
          1    1    1    2  502    0  0.84644298633E+02 -0.15654578219E+02  0.10053365254E+03  0.13235081565E+03  0.00000000000E+00 0. -1.
         22    1    3    3    0    0  0.47658493227E+02  0.71354008542E+02 -0.65846630091E+02  0.10815962836E+03  0.00000000000E+00 0.  1.
         22    1    3    3    0    0 -0.26896697597E+02 -0.14216425886E+02  0.22052532025E+02  0.37574636063E+02  0.00000000000E+00 0.  1.
</event>
<event>
 7    1  0.6140348E-006  0.1337289E+03  0.7818608E-02  0.1254575E+00
          2   -1    0    0  502    0  0.00000000000E+00  0.00000000000E+00  0.48271092085E+03  0.48271092085E+03  0.00000000000E+00 0. -1.
          1   -1    0    0  501    0 -0.00000000000E+00 -0.00000000000E+00 -0.55459513067E+03  0.55459513067E+03  0.00000000000E+00 0. -1.
         25    2    1    2    0    0  0.54006854374E+02  0.21135058338E+03 -0.12217083900E+03  0.27952942478E+03  0.12500070400E+03 0.  0.
          2    1    1    2  501    0 -0.32946512855E+02 -0.11769404607E+03 -0.33715308087E+03  0.35862175217E+03  0.00000000000E+00 0. -1.
          1    1    1    2  502    0 -0.21060341520E+02 -0.93656537311E+02  0.38743971005E+03  0.39915487457E+03  0.00000000000E+00 0. -1.
         22    1    3    3    0    0 -0.15622750743E+02 -0.54039293724E+01 -0.29320561627E+02  0.33659591910E+02  0.00000000000E+00 0. -1.
         22    1    3    3    0    0  0.69629605117E+02  0.21675451275E+03 -0.92850277377E+02  0.24586983287E+03  0.00000000000E+00 0. -1.
</event>
<event>
 7    1  0.6140348E-006  0.6587340E+02  0.7818608E-02  0.1508988E+00
          2   -1    0    0  502    0  0.00000000000E+00  0.00000000000E+00  0.41788433733E+02  0.41788433733E+02  0.00000000000E+00 0. -1.
          1   -1    0    0  501    0 -0.00000000000E+00 -0.00000000000E+00 -0.71091634435E+03  0.71091634435E+03  0.00000000000E+00 0. -1.
         25    2    1    2    0    0 -0.46745298191E+02  0.63583901796E+01 -0.60837830016E+03  0.62287657534E+03  0.12500207985E+03 0.  0.
          2    1    1    2  501    0 -0.19856600091E+02 -0.13765242260E+02 -0.57918390548E+02  0.62755927412E+02  0.00000000000E+00 0. -1.
          1    1    1    2  502    0  0.66601898282E+02  0.74068520800E+01 -0.28312199077E+01  0.67072275336E+02  0.00000000000E+00 0. -1.
         22    1    3    3    0    0 -0.79228922984E+02 -0.23546156005E+02 -0.48132234593E+03  0.48836753004E+03  0.00000000000E+00 0. -1.
         22    1    3    3    0    0  0.32483624793E+02  0.29904546185E+02 -0.12705595423E+03  0.13450904530E+03  0.00000000000E+00 0. -1.
</event>
<event>
 7    1  0.6140348E-006  0.6123640E+02  0.7818608E-02  0.1398127E+00
          2   -1    0    0  502    0  0.00000000000E+00  0.00000000000E+00  0.12977432622E+04  0.12977432622E+04  0.00000000000E+00 0. -1.
          1   -1    0    0  501    0 -0.00000000000E+00 -0.00000000000E+00 -0.24193500023E+03  0.24193500023E+03  0.00000000000E+00 0. -1.
         25    2    1    2    0    0  0.72738846189E+02 -0.83855681003E+02  0.27698227930E+03  0.32351933443E+03  0.12499144662E+03 0.  0.
          2    1    1    2  501    0 -0.20697031331E+02  0.54877640048E+02 -0.21382472431E+03  0.22172265380E+03  0.00000000000E+00 0. -1.
          1    1    1    2  502    0 -0.52041814858E+02  0.28978040955E+02  0.99265070694E+03  0.99443627414E+03  0.00000000000E+00 0. -1.
         22    1    3    3    0    0 -0.25211944684E+02 -0.57223090495E+02  0.76502683558E+02  0.98806805596E+02  0.00000000000E+00 0. -1.
         22    1    3    3    0    0  0.97950790873E+02 -0.26632590508E+02  0.20047959574E+03  0.22471252884E+03  0.00000000000E+00 0. -1.
</event>
<event>
 7    1  0.6140348E-006  0.3055393E+02  0.7818608E-02  0.1607911E+00
          2   -1    0    0  502    0  0.00000000000E+00  0.00000000000E+00  0.12077553483E+04  0.12077553483E+04  0.00000000000E+00 0. -1.
          1   -1    0    0  501    0 -0.00000000000E+00 -0.00000000000E+00 -0.87323591564E+02  0.87323591564E+02  0.00000000000E+00 0. -1.
         25    2    1    2    0    0 -0.10066552129E+02  0.16220963611E+01  0.95473411343E+03  0.96293541728E+03  0.12499369518E+03 0.  0.
          2    1    1    2  501    0 -0.11466993577E+02 -0.28320500860E+02 -0.79182470970E+02  0.84872883888E+02  0.00000000000E+00 0. -1.
          1    1    1    2  502    0  0.21533545706E+02  0.26698404499E+02  0.24488011423E+03  0.24727063865E+03  0.00000000000E+00 0. -1.
         22    1    3    3    0    0 -0.28507021236E+02  0.45034518657E+02  0.20823952505E+03  0.21495222242E+03  0.00000000000E+00 0.  1.
         22    1    3    3    0    0  0.18440469107E+02 -0.43412422295E+02  0.74649458838E+03  0.74798319486E+03  0.00000000000E+00 0.  1.
</event>
<event>
 7    1  0.6140348E-006  0.7757167E+02  0.7818608E-02  0.1345479E+00
          2   -1    0    0  502    0  0.00000000000E+00  0.00000000000E+00  0.14562425852E+04  0.14562425852E+04  0.00000000000E+00 0. -1.
          1   -1    0    0  501    0 -0.00000000000E+00 -0.00000000000E+00 -0.47716805484E+03  0.47716805484E+03  0.00000000000E+00 0. -1.
         25    2    1    2    0    0 -0.14294971962E+01 -0.15540785115E+02  0.13063759358E+03  0.18147898975E+03  0.12499953361E+03 0.  0.
          2    1    1    2  501    0  0.69257645373E+02  0.38215144234E+02 -0.44729100089E+03  0.45423150283E+03  0.00000000000E+00 0. -1.
          1    1    1    2  502    0 -0.67828148177E+02 -0.22674359120E+02  0.12957279377E+04  0.12977001475E+04  0.00000000000E+00 0. -1.
         22    1    3    3    0    0 -0.52694363106E+02 -0.35542887782E+02  0.10001598674E+03  0.11850396777E+03  0.00000000000E+00 0. -1.
         22    1    3    3    0    0  0.51264865909E+02  0.20002102668E+02  0.30621606841E+02  0.62975021980E+02  0.00000000000E+00 0. -1.
</event>
<event>
 7    1  0.6140348E-006  0.6358893E+02  0.7818608E-02  0.1419998E+00
          2   -1    0    0  502    0  0.00000000000E+00  0.00000000000E+00  0.39200447792E+03  0.39200447792E+03  0.00000000000E+00 0. -1.
          1   -1    0    0  501    0 -0.00000000000E+00 -0.00000000000E+00 -0.30381055233E+03  0.30381055233E+03  0.00000000000E+00 0. -1.
         25    2    1    2    0    0  0.52545712208E+01 -0.24017068509E+02 -0.17062022970E+02  0.12853553222E+03  0.12500336122E+03 0.  0.
          2    1    1    2  501    0  0.20269281960E+02  0.64204917954E+02 -0.22435926800E+03  0.23424388235E+03  0.00000000000E+00 0. -1.
          1    1    1    2  502    0 -0.25523853181E+02 -0.40187849445E+02  0.32961521656E+03  0.33303561569E+03  0.00000000000E+00 0. -1.
         22    1    3    3    0    0 -0.28694486040E+02 -0.43045745653E+02  0.35785554421E+02  0.62904019371E+02  0.00000000000E+00 0.  1.
         22    1    3    3    0    0  0.33949057260E+02  0.19028677144E+02 -0.52847577390E+02  0.65631512848E+02  0.00000000000E+00 0.  1.
</event>
<event>
 7    1  0.6140348E-006  0.8025195E+02  0.7818608E-02  0.1338093E+00
          2   -1    0    0  502    0  0.00000000000E+00  0.00000000000E+00  0.34327555531E+04  0.34327555531E+04  0.00000000000E+00 0. -1.
          1   -1    0    0  501    0 -0.00000000000E+00 -0.00000000000E+00 -0.52716966866E+03  0.52716966866E+03  0.00000000000E+00 0. -1.
         25    2    1    2    0    0 -0.76763579032E+02  0.10282524719E+03  0.34849906065E+03  0.39184386817E+03  0.12499737285E+03 0.  0.
          2    1    1    2  501    0  0.74494133994E+02 -0.29176499728E+02 -0.50188531153E+03  0.50822191025E+03  0.00000000000E+00 0. -1.
          1    1    1    2  502    0  0.22694450376E+01 -0.73648747459E+02  0.30589721353E+04  0.30598594433E+04  0.00000000000E+00 0. -1.
         22    1    3    3    0    0  0.22129396525E+02  0.70362627475E+02  0.12181938499E+03  0.14240987359E+03  0.00000000000E+00 0.  1.
         22    1    3    3    0    0 -0.98892975556E+02  0.32462619711E+02  0.22667967566E+03  0.24943399458E+03  0.00000000000E+00 0.  1.
</event>
<event>
 7    1  0.6140348E-006  0.8528797E+02  0.7818608E-02  0.1363359E+00
          2   -1    0    0  502    0  0.00000000000E+00  0.00000000000E+00  0.88622967341E+03  0.88622967341E+03  0.00000000000E+00 0. -1.
          1   -1    0    0  501    0 -0.00000000000E+00 -0.00000000000E+00 -0.47625113542E+03  0.47625113542E+03  0.00000000000E+00 0. -1.
         25    2    1    2    0    0  0.34192491805E+02  0.12984749877E+03  0.69327189272E+02  0.19611664868E+03  0.12500392508E+03 0.  0.
          2    1    1    2  501    0 -0.25246615565E+01 -0.83781415858E+02 -0.40754861192E+03  0.41607880340E+03  0.00000000000E+00 0. -1.
          1    1    1    2  502    0 -0.31667830249E+02 -0.46066082911E+02  0.74819996064E+03  0.75028535676E+03  0.00000000000E+00 0. -1.
         22    1    3    3    0    0  0.24970521838E+02 -0.19302723500E+02  0.24948216728E+02  0.40231027992E+02  0.00000000000E+00 0.  1.
         22    1    3    3    0    0  0.92219699670E+01  0.14915022227E+03  0.44378972544E+02  0.15588562069E+03  0.00000000000E+00 0.  1.
</event>
<event>
 7    1  0.6140348E-006  0.2279118E+03  0.7818608E-02  0.1187513E+00
          2   -1    0    0  502    0  0.00000000000E+00  0.00000000000E+00  0.27980771785E+04  0.27980771785E+04  0.00000000000E+00 0. -1.
          1   -1    0    0  501    0 -0.00000000000E+00 -0.00000000000E+00 -0.58794351194E+03  0.58794351194E+03  0.00000000000E+00 0. -1.
         25    2    1    2    0    0 -0.25284803491E+03  0.21309179614E+03  0.85564769126E+03  0.92579582880E+03  0.12499881091E+03 0.  0.
          2    1    1    2  501    0  0.19305469801E+03 -0.11625742619E+03 -0.52811473974E+03  0.57418732474E+03  0.00000000000E+00 0. -1.
          1    1    1    2  502    0  0.59793336904E+02 -0.96834369949E+02  0.18826007150E+04  0.18860375369E+04  0.00000000000E+00 0. -1.
         22    1    3    3    0    0 -0.12194519341E+03  0.15740816114E+03  0.37561817525E+03  0.42513171250E+03  0.00000000000E+00 0.  1.
         22    1    3    3    0    0 -0.13090284150E+03  0.55683635000E+02  0.48002951601E+03  0.50066411631E+03  0.00000000000E+00 0.  1.
</event>
<event>
 7    1  0.6140348E-006  0.3503440E+03  0.7818608E-02  0.1235646E+00
          2   -1    0    0  502    0  0.00000000000E+00  0.00000000000E+00  0.13585610985E+04  0.13585610985E+04  0.00000000000E+00 0. -1.
          1   -1    0    0  501    0 -0.00000000000E+00 -0.00000000000E+00 -0.91090245210E+03  0.91090245210E+03  0.00000000000E+00 0. -1.
         25    2    1    2    0    0 -0.13893045842E+03 -0.28119619637E+03 -0.31287837599E+03  0.46031459450E+03  0.12499469838E+03 0.  0.
          2    1    1    2  501    0  0.29967674540E+01 -0.44235035356E+02 -0.49910267749E+03  0.50106806089E+03  0.00000000000E+00 0. -1.
          1    1    1    2  502    0  0.13593369096E+03  0.32543123173E+03  0.12596396999E+04  0.13080808952E+04  0.00000000000E+00 0. -1.
         22    1    3    3    0    0  0.10733703767E+02 -0.98823617618E+01 -0.55868086737E+02  0.57741809690E+02  0.00000000000E+00 0. -1.
         22    1    3    3    0    0 -0.14966416219E+03 -0.27131383461E+03 -0.25701028925E+03  0.40257278481E+03  0.00000000000E+00 0. -1.
</event>
<event>
 7    1  0.6140348E-006  0.4191429E+02  0.7818608E-02  0.1523432E+00
          2   -1    0    0  502    0  0.00000000000E+00  0.00000000000E+00  0.14851750619E+03  0.14851750619E+03  0.00000000000E+00 0. -1.
          1   -1    0    0  501    0 -0.00000000000E+00 -0.00000000000E+00 -0.85350562934E+03  0.85350562934E+03  0.00000000000E+00 0. -1.
         25    2    1    2    0    0 -0.52946588925E+01 -0.78785537407E+01  0.51411478963E+02  0.13549110917E+03  0.12499838189E+03 0.  0.
          2    1    1    2  501    0  0.38515931572E+02  0.17032048607E+02 -0.80547035414E+03  0.80657055430E+03  0.00000000000E+00 0. -1.
          1    1    1    2  502    0 -0.33221272679E+02 -0.91534948665E+01  0.49070752029E+02  0.59961472058E+02  0.00000000000E+00 0. -1.
         22    1    3    3    0    0  0.12936909427E+02 -0.61907612699E+02  0.46017008145E+02  0.78214328446E+02  0.00000000000E+00 0.  1.
         22    1    3    3    0    0 -0.18231568319E+02  0.54029058958E+02  0.53944708184E+01  0.57276780729E+02  0.00000000000E+00 0.  1.
</event>
<event>
 7    1  0.6140348E-006  0.6483626E+02  0.7818608E-02  0.1462940E+00
          2   -1    0    0  502    0  0.00000000000E+00  0.00000000000E+00  0.54546850309E+03  0.54546850309E+03  0.00000000000E+00 0. -1.
          1   -1    0    0  501    0 -0.00000000000E+00 -0.00000000000E+00 -0.44141269629E+03  0.44141269629E+03  0.00000000000E+00 0. -1.
         25    2    1    2    0    0 -0.55828903174E+02 -0.70311281835E+02 -0.22033675295E+03  0.26876319420E+03  0.12499930829E+03 0.  0.
          2    1    1    2  501    0  0.25781404027E+02  0.54625211957E+02 -0.19166019080E+03  0.20095328639E+03  0.00000000000E+00 0. -1.
          1    1    1    2  502    0  0.30047499147E+02  0.15686069878E+02  0.51605275056E+03  0.51716471878E+03  0.00000000000E+00 0. -1.
         22    1    3    3    0    0  0.17898282928E+02  0.54741364180E+01  0.54099128386E+01  0.19482860627E+02  0.00000000000E+00 0.  1.
         22    1    3    3    0    0 -0.73727186102E+02 -0.75785418253E+02 -0.22574666579E+03  0.24928033357E+03  0.00000000000E+00 0.  1.
</event>
<event>
 7    1  0.6140348E-006  0.8808910E+02  0.7818608E-02  0.1367170E+00
          2   -1    0    0  502    0  0.00000000000E+00  0.00000000000E+00  0.26357507467E+04  0.26357507467E+04  0.00000000000E+00 0. -1.
          1   -1    0    0  501    0 -0.00000000000E+00 -0.00000000000E+00 -0.16029032645E+03  0.16029032645E+03  0.00000000000E+00 0. -1.
         25    2    1    2    0    0 -0.42864388306E+02  0.21992475546E+02  0.49959498706E+02  0.14302321376E+03  0.12505464165E+03 0.  0.
          2    1    1    2  501    0  0.95196625943E+02 -0.18779648865E+02 -0.92744912971E+02  0.13422627047E+03  0.00000000000E+00 0. -1.
          1    1    1    2  502    0 -0.52332237637E+02 -0.32128266807E+01  0.25182458345E+04  0.25187915889E+04  0.00000000000E+00 0. -1.
         22    1    3    3    0    0 -0.56287033541E+01 -0.46939273155E+01  0.85019971926E+02  0.85335285090E+02  0.00000000000E+00 0. -1.
         22    1    3    3    0    0 -0.37235684952E+02  0.26686402862E+02 -0.35060473220E+02  0.57687928668E+02  0.00000000000E+00 0. -1.
</event>
<event>
 7    1  0.6140348E-006  0.7195909E+02  0.7818608E-02  0.1462903E+00
          2   -1    0    0  502    0  0.00000000000E+00  0.00000000000E+00  0.70538978006E+03  0.70538978006E+03  0.00000000000E+00 0. -1.
          1   -1    0    0  501    0 -0.00000000000E+00 -0.00000000000E+00 -0.91887856339E+03  0.91887856339E+03  0.00000000000E+00 0. -1.
         25    2    1    2    0    0 -0.57078463359E+02  0.14632128008E+02 -0.28535464541E+03  0.31705670649E+03  0.12500252527E+03 0.  0.
          2    1    1    2  501    0  0.59161664500E+02 -0.45109612243E+02 -0.61509194871E+03  0.61957492286E+03  0.00000000000E+00 0. -1.
          1    1    1    2  502    0 -0.20832011416E+01  0.30477484235E+02  0.68695781079E+03  0.68763671410E+03  0.00000000000E+00 0. -1.
         22    1    3    3    0    0  0.27535484246E+02  0.37907461980E+02 -0.67275707094E+02  0.81982920974E+02  0.00000000000E+00 0.  1.
         22    1    3    3    0    0 -0.84613947605E+02 -0.23275333971E+02 -0.21807893832E+03  0.23507378552E+03  0.00000000000E+00 0.  1.
</event>
<event>
 7    1  0.1613976E-005  0.4814058E+02  0.7818608E-02  0.1467966E+00
          2   -1    0    0  502    0  0.00000000000E+00  0.00000000000E+00  0.13123858478E+04  0.13123858478E+04  0.00000000000E+00 0. -1.
          1   -1    0    0  501    0 -0.00000000000E+00 -0.00000000000E+00 -0.19645220335E+04  0.19645220335E+04  0.00000000000E+00 0. -1.
         25    2    1    2    0    0  0.56682807040E+02  0.65915725932E+02 -0.29723839357E+03  0.33396615529E+03  0.12499962693E+03 0.  0.
          2    1    1    2  501    0 -0.40361547919E+02 -0.25026042862E+02 -0.16482031561E+04  0.16488872008E+04  0.00000000000E+00 0. -1.
          1    1    1    2  502    0 -0.16321259121E+02 -0.40889683070E+02  0.12933053639E+04  0.12940545252E+04  0.00000000000E+00 0. -1.
         22    1    3    3    0    0  0.61457811156E+02  0.79385151472E+02 -0.30251006407E+03  0.31873406421E+03  0.00000000000E+00 0.  1.
         22    1    3    3    0    0 -0.47750041166E+01 -0.13469425541E+02  0.52716705041E+01  0.15232091078E+02  0.00000000000E+00 0.  1.
</event>
<event>
 7    1  0.6140348E-006  0.5101364E+02  0.7818608E-02  0.1461464E+00
          2   -1    0    0  502    0  0.00000000000E+00  0.00000000000E+00  0.10467253787E+04  0.10467253787E+04  0.00000000000E+00 0. -1.
          1   -1    0    0  501    0 -0.00000000000E+00 -0.00000000000E+00 -0.24919816119E+02  0.24919816119E+02  0.00000000000E+00 0. -1.
         25    2    1    2    0    0  0.48706113567E+02 -0.68492680822E+02  0.60670583324E+03  0.62512542775E+03  0.12500519792E+03 0.  0.
          2    1    1    2  501    0 -0.42100335155E+02  0.25453830125E+02  0.27262131914E+02  0.56245528931E+02  0.00000000000E+00 0. -1.
          1    1    1    2  502    0 -0.66057784116E+01  0.43038850697E+02  0.38783759746E+03  0.39027423818E+03  0.00000000000E+00 0. -1.
         22    1    3    3    0    0  0.62731718376E+02 -0.65494656229E+02  0.60369666761E+03  0.61047070770E+03  0.00000000000E+00 0.  1.
         22    1    3    3    0    0 -0.14025604809E+02 -0.29980245930E+01  0.30091656294E+01  0.14654720042E+02  0.00000000000E+00 0.  1.
</event>
<event>
 7    1  0.6140348E-006  0.1014003E+03  0.7818608E-02  0.1324613E+00
          2   -1    0    0  502    0  0.00000000000E+00  0.00000000000E+00  0.27044113712E+03  0.27044113712E+03  0.00000000000E+00 0. -1.
          1   -1    0    0  501    0 -0.00000000000E+00 -0.00000000000E+00 -0.43154711751E+03  0.43154711751E+03  0.00000000000E+00 0. -1.
         25    2    1    2    0    0 -0.12315133390E+03  0.32387576690E+02 -0.67118109516E+02  0.19064642122E+03  0.12500404447E+03 0.  0.
          2    1    1    2  501    0  0.96117368354E+02  0.27428572672E+02 -0.28888451569E+03  0.30568797573E+03  0.00000000000E+00 0. -1.
          1    1    1    2  502    0  0.27033965546E+02 -0.59816149362E+02  0.19489664482E+03  0.20565385768E+03  0.00000000000E+00 0. -1.
         22    1    3    3    0    0 -0.68017608907E+02  0.41903885639E+02  0.24267627839E+02  0.83494002862E+02  0.00000000000E+00 0. -1.
         22    1    3    3    0    0 -0.55133724993E+02 -0.95163089481E+01 -0.91385737355E+02  0.10715241836E+03  0.00000000000E+00 0. -1.
</event>
<event>
 7    1  0.6140348E-006  0.6678943E+02  0.7818608E-02  0.1495170E+00
          2   -1    0    0  502    0  0.00000000000E+00  0.00000000000E+00  0.13986443906E+04  0.13986443906E+04  0.00000000000E+00 0. -1.
          1   -1    0    0  501    0 -0.00000000000E+00 -0.00000000000E+00 -0.18682299248E+03  0.18682299248E+03  0.00000000000E+00 0. -1.
         25    2    1    2    0    0 -0.99010044545E+01  0.50254536168E+02  0.84492125746E+02  0.15933678931E+03  0.12500297924E+03 0.  0.
          2    1    1    2  501    0 -0.25223353018E+02  0.70732228163E+01 -0.14735956284E+03  0.14966993278E+03  0.00000000000E+00 0. -1.
          1    1    1    2  502    0  0.35124357473E+02 -0.57327758984E+02  0.12746888352E+04  0.12764606610E+04  0.00000000000E+00 0. -1.
         22    1    3    3    0    0 -0.33077974821E+02 -0.20458038477E+02  0.74782805446E+02  0.84292062183E+02  0.00000000000E+00 0. -1.
         22    1    3    3    0    0  0.23176970367E+02  0.70712574645E+02  0.97093202999E+01  0.75044727123E+02  0.00000000000E+00 0. -1.
</event>
<event>
 7    1  0.6140348E-006  0.5975848E+02  0.7818608E-02  0.1469302E+00
          2   -1    0    0  502    0  0.00000000000E+00  0.00000000000E+00  0.81696284833E+02  0.81696284833E+02  0.00000000000E+00 0. -1.
          1   -1    0    0  501    0 -0.00000000000E+00 -0.00000000000E+00 -0.12625137603E+04  0.12625137603E+04  0.00000000000E+00 0. -1.
         25    2    1    2    0    0  0.10073500502E+02  0.38971030325E+02 -0.14801005977E+03  0.19787130160E+03  0.12500343029E+03 0.  0.
          2    1    1    2  501    0  0.19901287822E+02 -0.57288682562E+02 -0.10832076933E+04  0.10849041254E+04  0.00000000000E+00 0. -1.
          1    1    1    2  502    0 -0.29974788324E+02  0.18317652237E+02  0.50400277644E+02  0.61434618133E+02  0.00000000000E+00 0. -1.
         22    1    3    3    0    0  0.35696683631E+02  0.28845041030E+02 -0.16099827588E+03  0.16741187070E+03  0.00000000000E+00 0.  1.
         22    1    3    3    0    0 -0.25623183128E+02  0.10125989295E+02  0.12988216110E+02  0.30459430897E+02  0.00000000000E+00 0.  1.
</event>
<event>
 7    1  0.6140348E-006  0.7116941E+02  0.7818608E-02  0.1416014E+00
          2   -1    0    0  502    0  0.00000000000E+00  0.00000000000E+00  0.11969550324E+04  0.11969550324E+04  0.00000000000E+00 0. -1.
          1   -1    0    0  501    0 -0.00000000000E+00 -0.00000000000E+00 -0.41780925756E+03  0.41780925756E+03  0.00000000000E+00 0. -1.
         25    2    1    2    0    0 -0.15965330100E+02  0.86325634732E+02  0.18798884856E+03  0.24222230436E+03  0.12499932228E+03 0.  0.
          2    1    1    2  501    0 -0.23464551724E+02 -0.67106371571E+02 -0.38696301361E+03  0.39343897137E+03  0.00000000000E+00 0. -1.
          1    1    1    2  502    0  0.39429881823E+02 -0.19219263161E+02  0.97811993991E+03  0.97910301425E+03  0.00000000000E+00 0. -1.
         22    1    3    3    0    0  0.55788728633E+01  0.10642936941E+03  0.88715301627E+02  0.13866772962E+03  0.00000000000E+00 0.  1.
         22    1    3    3    0    0 -0.21544202963E+02 -0.20103734674E+02  0.99273546937E+02  0.10355457475E+03  0.00000000000E+00 0.  1.
</event>
<event>
 7    1  0.6140348E-006  0.4830472E+02  0.7818608E-02  0.1463851E+00
          2   -1    0    0  502    0  0.00000000000E+00  0.00000000000E+00  0.97655939665E+03  0.97655939665E+03  0.00000000000E+00 0. -1.
          1   -1    0    0  501    0 -0.00000000000E+00 -0.00000000000E+00 -0.92275057229E+02  0.92275057229E+02  0.00000000000E+00 0. -1.
         25    2    1    2    0    0 -0.36530900512E+02 -0.26213198459E+02  0.58825947382E+01  0.13296666086E+03  0.12499555797E+03 0.  0.
          2    1    1    2  501    0 -0.84939858625E+01  0.44391596531E+02 -0.98764772621E+01  0.46263446061E+02  0.00000000000E+00 0. -1.
          1    1    1    2  502    0  0.45024886374E+02 -0.18178398071E+02  0.88827822195E+03  0.88960434696E+03  0.00000000000E+00 0. -1.
         22    1    3    3    0    0  0.40012466520E+02 -0.36532534771E+02 -0.71090613373E+01  0.54645789654E+02  0.00000000000E+00 0. -1.
         22    1    3    3    0    0 -0.76543367031E+02  0.10319336312E+02  0.12991656076E+02  0.78320871203E+02  0.00000000000E+00 0. -1.
</event>
<event>
 7    1  0.6140348E-006  0.5004755E+02  0.7818608E-02  0.1550353E+00
          2   -1    0    0  502    0  0.00000000000E+00  0.00000000000E+00  0.11572414060E+04  0.11572414060E+04  0.00000000000E+00 0. -1.
          1   -1    0    0  501    0 -0.00000000000E+00 -0.00000000000E+00 -0.11889943797E+03  0.11889943797E+03  0.00000000000E+00 0. -1.
         25    2    1    2    0    0  0.44546798304E+02 -0.18377907320E+02  0.16549375498E+03  0.21292067738E+03  0.12499946881E+03 0.  0.
          2    1    1    2  501    0 -0.50041294368E+02 -0.51927579526E+01 -0.88375231891E+02  0.10169207191E+03  0.00000000000E+00 0. -1.
          1    1    1    2  502    0  0.54944960644E+01  0.23570665272E+02  0.96122344499E+03  0.96152809472E+03  0.00000000000E+00 0. -1.
         22    1    3    3    0    0 -0.24043783609E+02  0.34758838566E+02  0.29264052694E+02  0.51406859161E+02  0.00000000000E+00 0. -1.
         22    1    3    3    0    0  0.68590581913E+02 -0.53136745886E+02  0.13622970229E+03  0.16151381822E+03  0.00000000000E+00 0. -1.
</event>
<event>
 7    1  0.6140348E-006  0.6138015E+02  0.7818608E-02  0.1417436E+00
          2   -1    0    0  502    0  0.00000000000E+00  0.00000000000E+00  0.17453583293E+04  0.17453583293E+04  0.00000000000E+00 0. -1.
          1   -1    0    0  501    0 -0.00000000000E+00 -0.00000000000E+00 -0.43792808067E+03  0.43792808067E+03  0.00000000000E+00 0. -1.
         25    2    1    2    0    0  0.64668035617E+02  0.58272183652E+02  0.40693121861E+03  0.43450587468E+03  0.12499894492E+03 0.  0.
          2    1    1    2  501    0 -0.60784921054E+02 -0.81177335895E+01 -0.42144319604E+03  0.42588152310E+03  0.00000000000E+00 0. -1.
          1    1    1    2  502    0 -0.38831145624E+01 -0.50154450063E+02  0.13219422261E+04  0.13228990122E+04  0.00000000000E+00 0. -1.
         22    1    3    3    0    0  0.21960937064E+02  0.29929221075E+02  0.16328402075E+02  0.40554380098E+02  0.00000000000E+00 0.  1.
         22    1    3    3    0    0  0.42707098553E+02  0.28342962577E+02  0.39060281654E+03  0.39395149458E+03  0.00000000000E+00 0.  1.
</event>
<event>
 7    1  0.6140348E-006  0.9409918E+02  0.7818608E-02  0.1350100E+00
          2   -1    0    0  502    0  0.00000000000E+00  0.00000000000E+00  0.93982059764E+03  0.93982059764E+03  0.00000000000E+00 0. -1.
          1   -1    0    0  501    0 -0.00000000000E+00 -0.00000000000E+00 -0.11195714248E+03  0.11195714248E+03  0.00000000000E+00 0. -1.
         25    2    1    2    0    0 -0.25078027296E+02 -0.14099047179E+03  0.34149365223E+03  0.39083246816E+03  0.12499953226E+03 0.  0.
          2    1    1    2  501    0 -0.16294985642E+01  0.91008599467E+02 -0.61693133290E+02  0.10996027982E+03  0.00000000000E+00 0. -1.
          1    1    1    2  502    0  0.26707525861E+02  0.49981872325E+02  0.54806293622E+03  0.55098499214E+03  0.00000000000E+00 0. -1.
         22    1    3    3    0    0  0.22823602529E+02 -0.49275445677E+02  0.23936812048E+03  0.24545077608E+03  0.00000000000E+00 0. -1.
         22    1    3    3    0    0 -0.47901629825E+02 -0.91715026115E+02  0.10212553176E+03  0.14538169208E+03  0.00000000000E+00 0. -1.
</event>
<event>
 7    1  0.6140348E-006  0.5756238E+02  0.7818608E-02  0.1485322E+00
          2   -1    0    0  502    0  0.00000000000E+00  0.00000000000E+00  0.10832277404E+03  0.10832277404E+03  0.00000000000E+00 0. -1.
          1   -1    0    0  501    0 -0.00000000000E+00 -0.00000000000E+00 -0.48063425799E+03  0.48063425799E+03  0.00000000000E+00 0. -1.
         25    2    1    2    0    0 -0.26811297405E+02 -0.12500352086E+02 -0.80375565441E+02  0.15152533674E+03  0.12499836673E+03 0.  0.
          2    1    1    2  501    0 -0.32551635710E+02 -0.31342851724E+00 -0.35112394052E+03  0.35262973333E+03  0.00000000000E+00 0. -1.
          1    1    1    2  502    0  0.59362933115E+02  0.12813780603E+02  0.59188022018E+02  0.84801961957E+02  0.00000000000E+00 0. -1.
         22    1    3    3    0    0  0.58904861437E+01 -0.42799161177E+02 -0.95200273911E+02  0.10454452725E+03  0.00000000000E+00 0.  1.
         22    1    3    3    0    0 -0.32701783549E+02  0.30298809091E+02  0.14824708470E+02  0.46980809495E+02  0.00000000000E+00 0.  1.
</event>
<event>
 7    1  0.6140348E-006  0.8250154E+02  0.7818608E-02  0.1490429E+00
          2   -1    0    0  502    0  0.00000000000E+00  0.00000000000E+00  0.16328803004E+04  0.16328803004E+04  0.00000000000E+00 0. -1.
          1   -1    0    0  501    0 -0.00000000000E+00 -0.00000000000E+00 -0.40729586115E+03  0.40729586115E+03  0.00000000000E+00 0. -1.
         25    2    1    2    0    0  0.88560402108E+02  0.22472762425E+01  0.79419996960E+02  0.17257151379E+03  0.12500158553E+03 0.  0.
          2    1    1    2  501    0 -0.79341886220E+02 -0.22130883230E+02 -0.35593678250E+03  0.36534354249E+03  0.00000000000E+00 0. -1.
          1    1    1    2  502    0 -0.92185158873E+01  0.19883606987E+02  0.15021012248E+04  0.15022611053E+04  0.00000000000E+00 0. -1.
         22    1    3    3    0    0  0.47986353348E+02 -0.40198082548E+02  0.93187317804E+02  0.11226064381E+03  0.00000000000E+00 0.  1.
         22    1    3    3    0    0  0.40574048760E+02  0.42445358791E+02 -0.13767320843E+02  0.60310869989E+02  0.00000000000E+00 0.  1.
</event>
<event>
 7    1  0.6140348E-006  0.8936778E+02  0.7818608E-02  0.1357568E+00
          2   -1    0    0  502    0  0.00000000000E+00  0.00000000000E+00  0.47264275867E+03  0.47264275867E+03  0.00000000000E+00 0. -1.
          1   -1    0    0  501    0 -0.00000000000E+00 -0.00000000000E+00 -0.21048059345E+04  0.21048059345E+04  0.00000000000E+00 0. -1.
         25    2    1    2    0    0  0.28627358395E+02  0.38947924891E+02 -0.22629930968E+03  0.26300796115E+03  0.12500137425E+03 0.  0.
          2    1    1    2  501    0 -0.10033429295E+02 -0.91778917246E+02 -0.18572750111E+04  0.18595683656E+04  0.00000000000E+00 0. -1.
          1    1    1    2  502    0 -0.18593929100E+02  0.52830992355E+02  0.45141114497E+03  0.45487236644E+03  0.00000000000E+00 0. -1.
         22    1    3    3    0    0  0.23893509392E+02  0.70241656498E+02 -0.65021223727E+02  0.98653685352E+02  0.00000000000E+00 0.  1.
         22    1    3    3    0    0  0.47338490029E+01 -0.31293731607E+02 -0.16127808596E+03  0.16435427580E+03  0.00000000000E+00 0.  1.
</event>
<event>
 7    1  0.6140348E-006  0.7512893E+02  0.7818608E-02  0.1387362E+00
          2   -1    0    0  502    0  0.00000000000E+00  0.00000000000E+00  0.11438196765E+04  0.11438196765E+04  0.00000000000E+00 0. -1.
          1   -1    0    0  501    0 -0.00000000000E+00 -0.00000000000E+00 -0.57153817532E+02  0.57153817532E+02  0.00000000000E+00 0. -1.
         25    2    1    2    0    0 -0.83721438868E+02 -0.64274818591E+02  0.16883093128E+03  0.23509617570E+03  0.12500318733E+03 0.  0.
          2    1    1    2  501    0  0.67658864220E+02  0.14705763697E+02  0.28269858022E+02  0.74787473992E+02  0.00000000000E+00 0. -1.
          1    1    1    2  502    0  0.16062574648E+02  0.49569054894E+02  0.88956506969E+03  0.89108984436E+03  0.00000000000E+00 0. -1.
         22    1    3    3    0    0 -0.64732580594E+02  0.25598278839E+02  0.91846633076E+02  0.11524488222E+03  0.00000000000E+00 0. -1.
         22    1    3    3    0    0 -0.18988858274E+02 -0.89873097431E+02  0.76984298199E+02  0.11985129348E+03  0.00000000000E+00 0. -1.
</event>
<event>
 7    1  0.6140348E-006  0.6156569E+02  0.7818608E-02  0.1487071E+00
          2   -1    0    0  502    0  0.00000000000E+00  0.00000000000E+00  0.10889381984E+04  0.10889381984E+04  0.00000000000E+00 0. -1.
          1   -1    0    0  501    0 -0.00000000000E+00 -0.00000000000E+00 -0.10033691035E+04  0.10033691035E+04  0.00000000000E+00 0. -1.
         25    2    1    2    0    0  0.41337992349E+02  0.44148810683E+02  0.39721287799E+03  0.42079331256E+03  0.12502397516E+03 0.  0.
          2    1    1    2  501    0 -0.58442484199E+02 -0.19422370999E+02 -0.99028948602E+03  0.99220260964E+03  0.00000000000E+00 0. -1.
          1    1    1    2  502    0  0.17104491850E+02 -0.24726439684E+02  0.67864570291E+03  0.67931137966E+03  0.00000000000E+00 0. -1.
         22    1    3    3    0    0  0.46155334076E+02  0.57739553046E+02  0.10603064043E+03  0.12925427482E+03  0.00000000000E+00 0. -1.
         22    1    3    3    0    0 -0.48173417266E+01 -0.13590742363E+02  0.29118223756E+03  0.29153903774E+03  0.00000000000E+00 0. -1.
</event>
<event>
 7    1  0.6140348E-006  0.1081202E+03  0.7818608E-02  0.1334785E+00
          2   -1    0    0  502    0  0.00000000000E+00  0.00000000000E+00  0.12777102518E+04  0.12777102518E+04  0.00000000000E+00 0. -1.
          1   -1    0    0  501    0 -0.00000000000E+00 -0.00000000000E+00 -0.38402732636E+03  0.38402732636E+03  0.00000000000E+00 0. -1.
         25    2    1    2    0    0 -0.11366723485E+03 -0.52201718380E+02 -0.19615294109E+02  0.17791882755E+03  0.12500035902E+03 0.  0.
          2    1    1    2  501    0  0.67136705312E+02  0.83879473957E+02 -0.27445372916E+03  0.29473369811E+03  0.00000000000E+00 0. -1.
          1    1    1    2  502    0  0.46530529533E+02 -0.31677755577E+02  0.11877519487E+04  0.11890850525E+04  0.00000000000E+00 0. -1.
         22    1    3    3    0    0  0.24812222214E+02  0.52855444942E+01 -0.11239540797E+02  0.27747263452E+02  0.00000000000E+00 0.  1.
         22    1    3    3    0    0 -0.13847945706E+03 -0.57487262874E+02 -0.83757533123E+01  0.15017156410E+03  0.00000000000E+00 0.  1.
</event>
<event>
 7    1  0.6140348E-006  0.2445847E+03  0.7818608E-02  0.1234411E+00
          2   -1    0    0  502    0  0.00000000000E+00  0.00000000000E+00  0.11969457985E+04  0.11969457985E+04  0.00000000000E+00 0. -1.
          1   -1    0    0  501    0 -0.00000000000E+00 -0.00000000000E+00 -0.76584441849E+03  0.76584441849E+03  0.00000000000E+00 0. -1.
         25    2    1    2    0    0  0.11400851263E+03  0.26646179515E+03 -0.26354959914E+03  0.41119730620E+03  0.12500001678E+03 0.  0.
          2    1    1    2  501    0 -0.97065074030E+02 -0.20441758161E+03 -0.39758041723E+03  0.45746952296E+03  0.00000000000E+00 0. -1.
          1    1    1    2  502    0 -0.16943438601E+02 -0.62044213539E+02  0.10922313964E+04  0.10941233878E+04  0.00000000000E+00 0. -1.
         22    1    3    3    0    0  0.74930000136E+02  0.25605230927E+03 -0.25660016912E+03  0.37016339203E+03  0.00000000000E+00 0. -1.
         22    1    3    3    0    0  0.39078512495E+02  0.10409485875E+02 -0.69494300205E+01  0.41033914176E+02  0.00000000000E+00 0. -1.
</event>
<event>
 7    1  0.6140348E-006  0.1051253E+03  0.7818608E-02  0.1432383E+00
          2   -1    0    0  502    0  0.00000000000E+00  0.00000000000E+00  0.45463414965E+02  0.45463414965E+02  0.00000000000E+00 0. -1.
          1   -1    0    0  501    0 -0.00000000000E+00 -0.00000000000E+00 -0.42288116753E+04  0.42288116753E+04  0.00000000000E+00 0. -1.
         25    2    1    2    0    0 -0.61928531812E+02  0.10414626033E+03 -0.22983074897E+04  0.23048918903E+04  0.12501088953E+03 0.  0.
          2    1    1    2  501    0  0.25517857578E+02 -0.59540280340E+01 -0.18619599589E+04  0.18621443284E+04  0.00000000000E+00 0. -1.
          1    1    1    2  502    0  0.36410674234E+02 -0.98192232300E+02 -0.23080811784E+02  0.10723887147E+03  0.00000000000E+00 0. -1.
         22    1    3    3    0    0  0.37471346311E+02  0.29770233558E+02 -0.49153221527E+03  0.49385654521E+03  0.00000000000E+00 0. -1.
         22    1    3    3    0    0 -0.99399878122E+02  0.74376026775E+02 -0.18067752744E+04  0.18110353451E+04  0.00000000000E+00 0. -1.
</event>
<event>
 7    1  0.6140348E-006  0.4160397E+02  0.7818608E-02  0.1543802E+00
          2   -1    0    0  502    0  0.00000000000E+00  0.00000000000E+00  0.51747529819E+03  0.51747529819E+03  0.00000000000E+00 0. -1.
          1   -1    0    0  501    0 -0.00000000000E+00 -0.00000000000E+00 -0.11218400497E+04  0.11218400497E+04  0.00000000000E+00 0. -1.
         25    2    1    2    0    0 -0.41109614035E+02  0.37590439591E+02  0.27500011094E+03  0.30715558446E+03  0.12496579743E+03 0.  0.
          2    1    1    2  501    0  0.10847678080E+02 -0.40157330271E+02 -0.11043504565E+04  0.11051335729E+04  0.00000000000E+00 0. -1.
          1    1    1    2  502    0  0.30261935955E+02  0.25668906803E+01  0.22498559398E+03  0.22702619055E+03  0.00000000000E+00 0. -1.
         22    1    3    3    0    0 -0.63528690126E+02  0.63201969060E+02  0.12790202502E+03  0.15617077629E+03  0.00000000000E+00 0. -1.
         22    1    3    3    0    0  0.22419076091E+02 -0.25611529470E+02  0.14709808592E+03  0.15098480817E+03  0.00000000000E+00 0. -1.
</event>
<event>
 7    1  0.6140348E-006  0.1141033E+03  0.7818608E-02  0.1285627E+00
          2   -1    0    0  502    0  0.00000000000E+00  0.00000000000E+00  0.92959233437E+02  0.92959233437E+02  0.00000000000E+00 0. -1.
          1   -1    0    0  501    0 -0.00000000000E+00 -0.00000000000E+00 -0.13875689776E+04  0.13875689776E+04  0.00000000000E+00 0. -1.
         25    2    1    2    0    0 -0.17209389617E+03  0.56385878681E+02 -0.24952111896E+03  0.33268716836E+03  0.12499714706E+03 0.  0.
          2    1    1    2  501    0  0.83140706150E+02 -0.55323746103E+01 -0.10420050087E+04  0.10453312501E+04  0.00000000000E+00 0. -1.
          1    1    1    2  502    0  0.88953190020E+02 -0.50853504070E+02 -0.30836164981E+01  0.10250979261E+03  0.00000000000E+00 0. -1.
         22    1    3    3    0    0 -0.92717826743E+02  0.81133795466E+02 -0.89254779768E+02  0.15213712195E+03  0.00000000000E+00 0. -1.
         22    1    3    3    0    0 -0.79376069427E+02 -0.24747916786E+02 -0.16026633919E+03  0.18055004641E+03  0.00000000000E+00 0. -1.
</event>
<event>
 7    1  0.6140348E-006  0.1008070E+03  0.7818608E-02  0.1357338E+00
          2   -1    0    0  502    0  0.00000000000E+00  0.00000000000E+00  0.10787694563E+04  0.10787694563E+04  0.00000000000E+00 0. -1.
          1   -1    0    0  501    0 -0.00000000000E+00 -0.00000000000E+00 -0.85541034552E+03  0.85541034552E+03  0.00000000000E+00 0. -1.
         25    2    1    2    0    0  0.13754977521E+03  0.24230442961E+01 -0.39806779110E+03  0.43932723470E+03  0.12499856412E+03 0.  0.
          2    1    1    2  501    0 -0.40474629005E+02 -0.28926106794E+02 -0.43289260084E+03  0.43574180326E+03  0.00000000000E+00 0. -1.
          1    1    1    2  502    0 -0.97075146202E+02  0.26503062498E+02  0.10543195028E+04  0.10591107639E+04  0.00000000000E+00 0. -1.
         22    1    3    3    0    0  0.95542403422E+02  0.60459345383E+02 -0.21913158189E+03  0.24658129182E+03  0.00000000000E+00 0. -1.
         22    1    3    3    0    0  0.42007371784E+02 -0.58036301087E+02 -0.17893620921E+03  0.19274594288E+03  0.00000000000E+00 0. -1.
</event>
<event>
 7    1  0.6140348E-006  0.1770065E+03  0.7818608E-02  0.1208330E+00
          2   -1    0    0  502    0  0.00000000000E+00  0.00000000000E+00  0.29626855698E+04  0.29626855698E+04  0.00000000000E+00 0. -1.
          1   -1    0    0  501    0 -0.00000000000E+00 -0.00000000000E+00 -0.19124708924E+03  0.19124708924E+03  0.00000000000E+00 0. -1.
         25    2    1    2    0    0 -0.82838966854E+02  0.60774650627E+02  0.31578044155E+03  0.35481994869E+03  0.12499622448E+03 0.  0.
          2    1    1    2  501    0 -0.10917608558E+03 -0.41486211543E+02 -0.14787660242E+03  0.18843569979E+03  0.00000000000E+00 0. -1.
          1    1    1    2  502    0  0.19201505244E+03 -0.19288439084E+02  0.26035346414E+04  0.26106770106E+04  0.00000000000E+00 0. -1.
         22    1    3    3    0    0  0.15165083000E+02  0.21344623601E+02  0.18433810774E+03  0.18618837413E+03  0.00000000000E+00 0. -1.
         22    1    3    3    0    0 -0.98004049854E+02  0.39430027026E+02  0.13144233381E+03  0.16863157455E+03  0.00000000000E+00 0. -1.
</event>
<event>
 7    1  0.6140348E-006  0.1197148E+03  0.7818608E-02  0.1361814E+00
          2   -1    0    0  502    0  0.00000000000E+00  0.00000000000E+00  0.12527697323E+04  0.12527697323E+04  0.00000000000E+00 0. -1.
          1   -1    0    0  501    0 -0.00000000000E+00 -0.00000000000E+00 -0.49586824993E+03  0.49586824993E+03  0.00000000000E+00 0. -1.
         25    2    1    2    0    0  0.14828812121E+03  0.24488994949E+02 -0.20590611637E+03  0.28392019814E+03  0.12499708951E+03 0.  0.
          2    1    1    2  501    0 -0.10802333929E+03 -0.21964421383E+02 -0.23849487960E+03  0.26273805441E+03  0.00000000000E+00 0. -1.
          1    1    1    2  502    0 -0.40264781924E+02 -0.25245735664E+01  0.12013024783E+04  0.12019797297E+04  0.00000000000E+00 0. -1.
         22    1    3    3    0    0  0.52518432866E+02 -0.46262183537E+02 -0.11289205060E+03  0.13282691935E+03  0.00000000000E+00 0.  1.
         22    1    3    3    0    0  0.95769688348E+02  0.70751178486E+02 -0.93014065766E+02  0.15109327878E+03  0.00000000000E+00 0.  1.
</event>
<event>
 7    1  0.6140348E-006  0.1141528E+03  0.7818608E-02  0.1365814E+00
          2   -1    0    0  502    0  0.00000000000E+00  0.00000000000E+00  0.24330995913E+03  0.24330995913E+03  0.00000000000E+00 0. -1.
          1   -1    0    0  501    0 -0.00000000000E+00 -0.00000000000E+00 -0.13364360420E+04  0.13364360420E+04  0.00000000000E+00 0. -1.
         25    2    1    2    0    0  0.13922221194E+03 -0.31991261443E+02  0.12355266242E+02  0.19022729394E+03  0.12501002219E+03 0.  0.
          2    1    1    2  501    0 -0.31485613912E+02  0.26134563000E+02 -0.12266166607E+04  0.12272989821E+04  0.00000000000E+00 0. -1.
          1    1    1    2  502    0 -0.10773659803E+03  0.58566984431E+01  0.12113531161E+03  0.16221972503E+03  0.00000000000E+00 0. -1.
         22    1    3    3    0    0  0.54963943461E+02 -0.43882564870E+02  0.60223954256E+02  0.92593948218E+02  0.00000000000E+00 0.  1.
         22    1    3    3    0    0  0.84258268476E+02  0.11891303427E+02 -0.47868688014E+02  0.97633345717E+02  0.00000000000E+00 0.  1.
</event>
<event>
 7    1  0.6140348E-006  0.1253803E+03  0.7818608E-02  0.1371118E+00
          2   -1    0    0  502    0  0.00000000000E+00  0.00000000000E+00  0.33776652224E+03  0.33776652224E+03  0.00000000000E+00 0. -1.
          1   -1    0    0  501    0 -0.00000000000E+00 -0.00000000000E+00 -0.96850816544E+03  0.96850816544E+03  0.00000000000E+00 0. -1.
         25    2    1    2    0    0  0.51339005764E+02 -0.80519781119E+02 -0.20880539658E+03  0.26142589751E+03  0.12499871033E+03 0.  0.
          2    1    1    2  501    0  0.32239380479E+02 -0.15218791196E+02 -0.71996879205E+03  0.72085092133E+03  0.00000000000E+00 0. -1.
          1    1    1    2  502    0 -0.83578386243E+02  0.95738572315E+02  0.29803254543E+03  0.32399786884E+03  0.00000000000E+00 0. -1.
         22    1    3    3    0    0  0.12544177410E+02  0.34078319755E+02 -0.47762524443E+02  0.59999558377E+02  0.00000000000E+00 0. -1.
         22    1    3    3    0    0  0.38794828355E+02 -0.11459810087E+03 -0.16104287214E+03  0.20142633913E+03  0.00000000000E+00 0. -1.
</event>
<event>
 7    1  0.6140348E-006  0.1292637E+03  0.7818608E-02  0.1236982E+00
          2   -1    0    0  502    0  0.00000000000E+00  0.00000000000E+00  0.18840130279E+04  0.18840130279E+04  0.00000000000E+00 0. -1.
          1   -1    0    0  501    0 -0.00000000000E+00 -0.00000000000E+00 -0.31419156911E+03  0.31419156911E+03  0.00000000000E+00 0. -1.
         25    2    1    2    0    0 -0.22141207691E+03  0.94205849729E+02  0.18783788420E+03  0.32985777594E+03  0.12500012673E+03 0.  0.
          2    1    1    2  501    0  0.10953182216E+03 -0.55041362572E+02 -0.22541122183E+03  0.25658719880E+03  0.00000000000E+00 0. -1.
          1    1    1    2  502    0  0.11188025475E+03 -0.39164487158E+02  0.16073947964E+04  0.16117596223E+04  0.00000000000E+00 0. -1.
         22    1    3    3    0    0 -0.14042738352E+03  0.47684335642E+02  0.18407842303E+03  0.23638636114E+03  0.00000000000E+00 0.  1.
         22    1    3    3    0    0 -0.80984693394E+02  0.46521514088E+02  0.37594611748E+01  0.93471414804E+02  0.00000000000E+00 0.  1.
</event>
<event>
 7    1  0.6140348E-006  0.9183367E+02  0.7818608E-02  0.1423530E+00
          2   -1    0    0  502    0  0.00000000000E+00  0.00000000000E+00  0.13924117052E+04  0.13924117052E+04  0.00000000000E+00 0. -1.
          1   -1    0    0  501    0 -0.00000000000E+00 -0.00000000000E+00 -0.20074083921E+04  0.20074083921E+04  0.00000000000E+00 0. -1.
         25    2    1    2    0    0  0.76899652632E+02 -0.96045073333E+02 -0.19311764892E+02  0.17646052269E+03  0.12500863618E+03 0.  0.
          2    1    1    2  501    0 -0.60649072077E+02  0.68380600607E+02 -0.19082323379E+04  0.19104200774E+04  0.00000000000E+00 0. -1.
          1    1    1    2  502    0 -0.16250580555E+02  0.27664472726E+02  0.13125474159E+04  0.13129394972E+04  0.00000000000E+00 0. -1.
         22    1    3    3    0    0  0.19356956489E+02  0.30524662754E+02 -0.75733885080E+01  0.36929703685E+02  0.00000000000E+00 0.  1.
         22    1    3    3    0    0  0.57542696143E+02 -0.12656973609E+03 -0.11738376384E+02  0.13953081901E+03  0.00000000000E+00 0.  1.
</event>
<event>
 7    1  0.6140348E-006  0.1035688E+03  0.7818608E-02  0.1276301E+00
          2   -1    0    0  502    0  0.00000000000E+00  0.00000000000E+00  0.26381262102E+03  0.26381262102E+03  0.00000000000E+00 0. -1.
          1   -1    0    0  501    0 -0.00000000000E+00 -0.00000000000E+00 -0.55507410412E+03  0.55507410412E+03  0.00000000000E+00 0. -1.
         25    2    1    2    0    0 -0.10309789147E+03  0.81874059243E+02 -0.28114426611E+03  0.33466358255E+03  0.12500031326E+03 0.  0.
          2    1    1    2  501    0  0.97832278333E+02  0.22138124771E+02 -0.22449632733E+03  0.24588585205E+03  0.00000000000E+00 0. -1.
          1    1    1    2  502    0  0.52656131355E+01 -0.10401218401E+03  0.21437911035E+03  0.23833729053E+03  0.00000000000E+00 0. -1.
         22    1    3    3    0    0 -0.73112338774E+02  0.65704741779E+02 -0.28394784818E+03  0.30048112696E+03  0.00000000000E+00 0. -1.
         22    1    3    3    0    0 -0.29985552694E+02  0.16169317465E+02  0.28035820690E+01  0.34182455588E+02  0.00000000000E+00 0. -1.
</event>
<event>
 7    1  0.6140348E-006  0.2896204E+02  0.7818608E-02  0.1621782E+00
          2   -1    0    0  502    0  0.00000000000E+00  0.00000000000E+00  0.82895500902E+03  0.82895500902E+03  0.00000000000E+00 0. -1.
          1   -1    0    0  501    0 -0.00000000000E+00 -0.00000000000E+00 -0.94311778526E+03  0.94311778526E+03  0.00000000000E+00 0. -1.
         25    2    1    2    0    0  0.11134931266E+02  0.27679122463E+01 -0.36892569351E+03  0.38968853880E+03  0.12497736558E+03 0.  0.
          2    1    1    2  501    0  0.56365089024E+01 -0.26400294585E+02 -0.56323081277E+03  0.56387737518E+03  0.00000000000E+00 0. -1.
          1    1    1    2  502    0 -0.16771440168E+02  0.23632382339E+02  0.81799373005E+03  0.81850688030E+03  0.00000000000E+00 0. -1.
         22    1    3    3    0    0 -0.72021905270E+01 -0.56566426657E+02 -0.11610841679E+03  0.12935531153E+03  0.00000000000E+00 0. -1.
         22    1    3    3    0    0  0.18337121793E+02  0.59334338904E+02 -0.25281727672E+03  0.26033322727E+03  0.00000000000E+00 0. -1.
</event>
<event>
 7    1  0.6140348E-006  0.6215855E+02  0.7818608E-02  0.1540139E+00
          2   -1    0    0  502    0  0.00000000000E+00  0.00000000000E+00  0.15428687858E+04  0.15428687858E+04  0.00000000000E+00 0. -1.
          1   -1    0    0  501    0 -0.00000000000E+00 -0.00000000000E+00 -0.10778194481E+04  0.10778194481E+04  0.00000000000E+00 0. -1.
         25    2    1    2    0    0  0.93540132973E+01 -0.53517082186E+02  0.68101404094E+03  0.69451901979E+03  0.12499987698E+03 0.  0.
          2    1    1    2  501    0  0.20600847131E+02 -0.29909262383E+01 -0.10697696625E+04  0.10699721825E+04  0.00000000000E+00 0. -1.
          1    1    1    2  502    0 -0.29954860429E+02  0.56508008424E+02  0.85380495918E+03  0.85619703164E+03  0.00000000000E+00 0. -1.
         22    1    3    3    0    0 -0.27329768704E+01  0.39727804499E+02  0.26765365748E+03  0.27059979301E+03  0.00000000000E+00 0. -1.
         22    1    3    3    0    0  0.12086990168E+02 -0.93244886685E+02  0.41336038346E+03  0.42391922678E+03  0.00000000000E+00 0. -1.
</event>
<event>
 7    1  0.6140348E-006  0.8235813E+02  0.7818608E-02  0.1384371E+00
          2   -1    0    0  502    0  0.00000000000E+00  0.00000000000E+00  0.48003176821E+03  0.48003176821E+03  0.00000000000E+00 0. -1.
          1   -1    0    0  501    0 -0.00000000000E+00 -0.00000000000E+00 -0.19363718740E+03  0.19363718740E+03  0.00000000000E+00 0. -1.
         25    2    1    2    0    0 -0.23767424948E+02  0.69350447097E+02  0.11165591235E+01  0.14489518084E+03  0.12497596459E+03 0.  0.
          2    1    1    2  501    0 -0.44175704900E+02 -0.20489394368E+02 -0.11234212465E+03  0.12244207266E+03  0.00000000000E+00 0. -1.
          1    1    1    2  502    0  0.67943129848E+02 -0.48861052729E+02  0.39762014634E+03  0.40633170211E+03  0.00000000000E+00 0. -1.
         22    1    3    3    0    0 -0.30617606625E+02 -0.26596184944E+02 -0.21755058483E+02  0.46022575532E+02  0.00000000000E+00 0. -1.
         22    1    3    3    0    0  0.68501816773E+01  0.95946632040E+02  0.22871617607E+02  0.98872605310E+02  0.00000000000E+00 0. -1.
</event>
<event>
 7    1  0.6140348E-006  0.4138278E+02  0.7818608E-02  0.1605543E+00
          2   -1    0    0  502    0  0.00000000000E+00  0.00000000000E+00  0.19804423994E+04  0.19804423994E+04  0.00000000000E+00 0. -1.
          1   -1    0    0  501    0 -0.00000000000E+00 -0.00000000000E+00 -0.54957509793E+03  0.54957509793E+03  0.00000000000E+00 0. -1.
         25    2    1    2    0    0 -0.23912702611E+02  0.89022633990E+00  0.80300818750E+03  0.81303006072E+03  0.12499248214E+03 0.  0.
          2    1    1    2  501    0  0.38173108872E+02 -0.16027468114E+02 -0.54368484540E+03  0.54525890831E+03  0.00000000000E+00 0. -1.
          1    1    1    2  502    0 -0.14260406261E+02  0.15137241774E+02  0.11715439594E+04  0.11717285283E+04  0.00000000000E+00 0. -1.
         22    1    3    3    0    0  0.47651679639E+02 -0.12751804104E+02  0.44200908994E+03  0.44475310754E+03  0.00000000000E+00 0. -1.
         22    1    3    3    0    0 -0.71564382249E+02  0.13642030444E+02  0.36099909756E+03  0.36827695317E+03  0.00000000000E+00 0. -1.
</event>
<event>
 7    1  0.6140348E-006  0.7202086E+02  0.7818608E-02  0.1358013E+00
          2   -1    0    0  502    0  0.00000000000E+00  0.00000000000E+00  0.21931176777E+04  0.21931176777E+04  0.00000000000E+00 0. -1.
          1   -1    0    0  501    0 -0.00000000000E+00 -0.00000000000E+00 -0.16346655694E+03  0.16346655694E+03  0.00000000000E+00 0. -1.
         25    2    1    2    0    0  0.49951316660E+02 -0.44969019477E+02  0.10300981680E+04  0.10398288693E+04  0.12499798010E+03 0.  0.
          2    1    1    2  501    0 -0.59890744203E+02 -0.34740308316E+02 -0.14957541118E+03  0.16482291677E+03  0.00000000000E+00 0. -1.
          1    1    1    2  502    0  0.99394275432E+01  0.79709327792E+02  0.11491283639E+04  0.11519324485E+04  0.00000000000E+00 0. -1.
         22    1    3    3    0    0  0.16273947841E+02 -0.51813172256E+02  0.15836167048E+03  0.16741524684E+03  0.00000000000E+00 0.  1.
         22    1    3    3    0    0  0.33677368818E+02  0.68441527792E+01  0.87173649750E+03  0.87241362247E+03  0.00000000000E+00 0.  1.
</event>
<event>
 7    1  0.6140348E-006  0.5650404E+02  0.7818608E-02  0.1425232E+00
          2   -1    0    0  502    0  0.00000000000E+00  0.00000000000E+00  0.30457407402E+04  0.30457407402E+04  0.00000000000E+00 0. -1.
          1   -1    0    0  501    0 -0.00000000000E+00 -0.00000000000E+00 -0.14777835793E+03  0.14777835793E+03  0.00000000000E+00 0. -1.
         25    2    1    2    0    0 -0.62879412910E+02 -0.11708785096E+02  0.78040184188E+02  0.16064289589E+03  0.12499981374E+03 0.  0.
          2    1    1    2  501    0  0.44440134115E+02 -0.36346521655E+02 -0.98494793880E+02  0.11400534890E+03  0.00000000000E+00 0. -1.
          1    1    1    2  502    0  0.18439278795E+02  0.48055306751E+02  0.29184169919E+04  0.29188708533E+04  0.00000000000E+00 0. -1.
         22    1    3    3    0    0  0.28096019537E+02  0.17206663074E+02  0.52233637498E+02  0.61756039820E+02  0.00000000000E+00 0.  1.
         22    1    3    3    0    0 -0.90975432447E+02 -0.28915448170E+02  0.25806546690E+02  0.98886856072E+02  0.00000000000E+00 0.  1.
</event>
<event>
 7    1  0.6140348E-006  0.5113285E+02  0.7818608E-02  0.1440955E+00
          2   -1    0    0  502    0  0.00000000000E+00  0.00000000000E+00  0.46084907350E+03  0.46084907350E+03  0.00000000000E+00 0. -1.
          1   -1    0    0  501    0 -0.00000000000E+00 -0.00000000000E+00 -0.68075082218E+03  0.68075082218E+03  0.00000000000E+00 0. -1.
         25    2    1    2    0    0 -0.31278055727E+02 -0.83009381209E+02  0.12894885479E+03  0.20031615169E+03  0.12501951583E+03 0.  0.
          2    1    1    2  501    0  0.38795146361E+02  0.33057911666E+02 -0.64189605208E+03  0.64391647795E+03  0.00000000000E+00 0. -1.
          1    1    1    2  502    0 -0.75170906334E+01  0.49951469543E+02  0.29304544861E+03  0.29736726604E+03  0.00000000000E+00 0. -1.
         22    1    3    3    0    0  0.21696039210E+02  0.12770804246E+02 -0.66648400070E+01  0.26042881000E+02  0.00000000000E+00 0.  1.
         22    1    3    3    0    0 -0.52974094937E+02 -0.95780185454E+02  0.13561369480E+03  0.17427327069E+03  0.00000000000E+00 0.  1.
</event>
<event>
 7    1  0.6140348E-006  0.7039373E+02  0.7818608E-02  0.1487080E+00
          2   -1    0    0  502    0  0.00000000000E+00  0.00000000000E+00  0.88583555269E+02  0.88583555269E+02  0.00000000000E+00 0. -1.
          1   -1    0    0  501    0 -0.00000000000E+00 -0.00000000000E+00 -0.39339425044E+03  0.39339425044E+03  0.00000000000E+00 0. -1.
         25    2    1    2    0    0 -0.46531714240E+02 -0.46813369056E+02 -0.76076295065E+02  0.16053400316E+03  0.12500748597E+03 0.  0.
          2    1    1    2  501    0  0.17622058380E+02 -0.19514720598E+02 -0.24571954185E+03  0.24712234724E+03  0.00000000000E+00 0. -1.
          1    1    1    2  502    0  0.28909655860E+02  0.66328089654E+02  0.16985141736E+02  0.74321455307E+02  0.00000000000E+00 0. -1.
         22    1    3    3    0    0 -0.16289943559E+02  0.26902368287E+02 -0.74471400653E+02  0.80839898539E+02  0.00000000000E+00 0. -1.
         22    1    3    3    0    0 -0.30241770680E+02 -0.73715737343E+02 -0.16048944119E+01  0.79694104625E+02  0.00000000000E+00 0. -1.
</event>
<event>
 7    1  0.6140348E-006  0.4394710E+02  0.7818608E-02  0.1539433E+00
          2   -1    0    0  502    0  0.00000000000E+00  0.00000000000E+00  0.75487391092E+03  0.75487391092E+03  0.00000000000E+00 0. -1.
          1   -1    0    0  501    0 -0.00000000000E+00 -0.00000000000E+00 -0.53820298096E+03  0.53820298096E+03  0.00000000000E+00 0. -1.
         25    2    1    2    0    0 -0.59805258758E+02  0.35708771466E+02  0.74094720116E+02  0.16114612299E+03  0.12500504018E+03 0.  0.
          2    1    1    2  501    0  0.42065271470E+02 -0.12040108693E+02 -0.49336532329E+03  0.49530171967E+03  0.00000000000E+00 0. -1.
          1    1    1    2  502    0  0.17739987288E+02 -0.23668662773E+02  0.63594153313E+03  0.63662904922E+03  0.00000000000E+00 0. -1.
         22    1    3    3    0    0 -0.95728750480E+02  0.42593994854E+02  0.43453289639E+02  0.11343028893E+03  0.00000000000E+00 0. -1.
         22    1    3    3    0    0  0.35923491722E+02 -0.68852233874E+01  0.30641430478E+02  0.47715834063E+02  0.00000000000E+00 0. -1.
</event>
<event>
 7    1  0.6140348E-006  0.6607250E+02  0.7818608E-02  0.1399730E+00
          2   -1    0    0  502    0  0.00000000000E+00  0.00000000000E+00  0.21971731596E+04  0.21971731596E+04  0.00000000000E+00 0. -1.
          1   -1    0    0  501    0 -0.00000000000E+00 -0.00000000000E+00 -0.23799457637E+04  0.23799457637E+04  0.00000000000E+00 0. -1.
         25    2    1    2    0    0 -0.11896404944E+02  0.10385242729E+02  0.10248478189E+03  0.16241088776E+03  0.12499915291E+03 0.  0.
          2    1    1    2  501    0  0.65561954265E+02 -0.95836316790E+01 -0.23491667234E+04  0.23501009575E+04  0.00000000000E+00 0. -1.
          1    1    1    2  502    0 -0.53665549320E+02 -0.80161105046E+00  0.20639093374E+04  0.20646070781E+04  0.00000000000E+00 0. -1.
         22    1    3    3    0    0 -0.60287937860E+02  0.17750098858E+02  0.93478114356E+02  0.11264039828E+03  0.00000000000E+00 0.  1.
         22    1    3    3    0    0  0.48391532915E+02 -0.73648561284E+01  0.90066675311E+01  0.49770489486E+02  0.00000000000E+00 0.  1.
</event>
<event>
 7    1  0.6140348E-006  0.1207879E+03  0.7818608E-02  0.1299936E+00
          2   -1    0    0  502    0  0.00000000000E+00  0.00000000000E+00  0.27681134604E+04  0.27681134604E+04  0.00000000000E+00 0. -1.
          1   -1    0    0  501    0 -0.00000000000E+00 -0.00000000000E+00 -0.20213371836E+03  0.20213371836E+03  0.00000000000E+00 0. -1.
         25    2    1    2    0    0 -0.12407408674E+03  0.54312643614E+02  0.28384366571E+03  0.33843238392E+03  0.12500003866E+03 0.  0.
          2    1    1    2  501    0  0.70863013272E+02 -0.98054636166E+02 -0.15336578326E+03  0.19533904320E+03  0.00000000000E+00 0. -1.
          1    1    1    2  502    0  0.53211073471E+02  0.43741992552E+02  0.24355018595E+04  0.24364757516E+04  0.00000000000E+00 0. -1.
         22    1    3    3    0    0 -0.83990187508E+01 -0.21204509415E+02  0.55780409190E-01  0.22807407721E+02  0.00000000000E+00 0.  1.
         22    1    3    3    0    0 -0.11567506799E+03  0.75517153030E+02  0.28378788530E+03  0.31562497620E+03  0.00000000000E+00 0.  1.
</event>
<event>
 7    1  0.6140348E-006  0.1150180E+03  0.7818608E-02  0.1326723E+00
          2   -1    0    0  502    0  0.00000000000E+00  0.00000000000E+00  0.28385996612E+03  0.28385996612E+03  0.00000000000E+00 0. -1.
          1   -1    0    0  501    0 -0.00000000000E+00 -0.00000000000E+00 -0.75592875578E+03  0.75592875578E+03  0.00000000000E+00 0. -1.
         25    2    1    2    0    0 -0.15449147868E+03  0.86066928755E+01 -0.16029720595E+03  0.25546377839E+03  0.12499942275E+03 0.  0.
          2    1    1    2  501    0  0.10820739466E+03  0.24315402126E+02 -0.53890434183E+03  0.55019811767E+03  0.00000000000E+00 0. -1.
          1    1    1    2  502    0  0.46284084021E+02 -0.32922095002E+02  0.22713275812E+03  0.23412682585E+03  0.00000000000E+00 0. -1.
         22    1    3    3    0    0 -0.17142876029E+03 -0.25683833133E+01 -0.11676071355E+03  0.20743066474E+03  0.00000000000E+00 0.  1.
         22    1    3    3    0    0  0.16937281609E+02  0.11175076189E+02 -0.43536492398E+02  0.48033113646E+02  0.00000000000E+00 0.  1.
</event>
<event>
 7    1  0.6140348E-006  0.8346331E+02  0.7818608E-02  0.1384128E+00
          2   -1    0    0  502    0  0.00000000000E+00  0.00000000000E+00  0.93893205513E+03  0.93893205513E+03  0.00000000000E+00 0. -1.
          1   -1    0    0  501    0 -0.00000000000E+00 -0.00000000000E+00 -0.17322849864E+03  0.17322849864E+03  0.00000000000E+00 0. -1.
         25    2    1    2    0    0 -0.90253804685E+02 -0.83967491941E+02  0.31437246624E+03  0.36007110576E+03  0.12499945883E+03 0.  0.
          2    1    1    2  501    0  0.44420649773E+02  0.69223768216E+02 -0.13807692933E+03  0.16071827098E+03  0.00000000000E+00 0. -1.
          1    1    1    2  502    0  0.45833154913E+02  0.14743723725E+02  0.58940801958E+03  0.59137117703E+03  0.00000000000E+00 0. -1.
         22    1    3    3    0    0  0.27715349594E+02 -0.26287130052E+02  0.36979016802E+02  0.53165792509E+02  0.00000000000E+00 0. -1.
         22    1    3    3    0    0 -0.11796915428E+03 -0.57680361890E+02  0.27739344944E+03  0.30690531325E+03  0.00000000000E+00 0. -1.
</event>
<event>
 7    1  0.6140348E-006  0.1019326E+03  0.7818608E-02  0.1332422E+00
          2   -1    0    0  502    0  0.00000000000E+00  0.00000000000E+00  0.12917739065E+04  0.12917739065E+04  0.00000000000E+00 0. -1.
          1   -1    0    0  501    0 -0.00000000000E+00 -0.00000000000E+00 -0.33236873195E+02  0.33236873195E+02  0.00000000000E+00 0. -1.
         25    2    1    2    0    0  0.39637826703E+02  0.28333992656E+02  0.17196787872E+03  0.21811256359E+03  0.12500466647E+03 0.  0.
          2    1    1    2  501    0  0.41087417386E+02  0.45025357506E+02  0.12403624477E+03  0.13820437295E+03  0.00000000000E+00 0. -1.
          1    1    1    2  502    0 -0.80725244089E+02 -0.73359350163E+02  0.96253290982E+03  0.96869384316E+03  0.00000000000E+00 0. -1.
         22    1    3    3    0    0  0.71941945912E+02 -0.58609600206E+01  0.14943311668E+03  0.16595255586E+03  0.00000000000E+00 0.  1.
         22    1    3    3    0    0 -0.32304119209E+02  0.34194952677E+02  0.22534762035E+02  0.52160007731E+02  0.00000000000E+00 0.  1.
</event>
<event>
 7    1  0.6140348E-006  0.5634350E+02  0.7818608E-02  0.1419406E+00
          2   -1    0    0  502    0  0.00000000000E+00  0.00000000000E+00  0.35749417235E+03  0.35749417235E+03  0.00000000000E+00 0. -1.
          1   -1    0    0  501    0 -0.00000000000E+00 -0.00000000000E+00 -0.45259362222E+03  0.45259362222E+03  0.00000000000E+00 0. -1.
         25    2    1    2    0    0  0.17358611672E+02  0.18863696682E+02  0.54524395357E+02  0.13876507236E+03  0.12500270063E+03 0.  0.
          2    1    1    2  501    0  0.25899518877E+02 -0.51145119168E+02 -0.40564382346E+03  0.40967489526E+03  0.00000000000E+00 0. -1.
          1    1    1    2  502    0 -0.43258130550E+02  0.32281422485E+02  0.25601997823E+03  0.26164782695E+03  0.00000000000E+00 0. -1.
         22    1    3    3    0    0 -0.41289361851E+02 -0.28335823458E+02  0.92698630541E+01  0.50927994798E+02  0.00000000000E+00 0.  1.
         22    1    3    3    0    0  0.58647973523E+02  0.47199520140E+02  0.45254532303E+02  0.87837077558E+02  0.00000000000E+00 0.  1.
</event>
<event>
 7    1  0.6140348E-006  0.4105779E+02  0.7818608E-02  0.1506299E+00
          2   -1    0    0  502    0  0.00000000000E+00  0.00000000000E+00  0.11011267312E+03  0.11011267312E+03  0.00000000000E+00 0. -1.
          1   -1    0    0  501    0 -0.00000000000E+00 -0.00000000000E+00 -0.17840017105E+04  0.17840017105E+04  0.00000000000E+00 0. -1.
         25    2    1    2    0    0 -0.18471180990E+02  0.26066011771E+02 -0.69482475663E+02  0.14653816707E+03  0.12499999395E+03 0.  0.
          2    1    1    2  501    0 -0.23733762308E+02 -0.31549388536E+02 -0.16694115189E+04  0.16698782815E+04  0.00000000000E+00 0. -1.
          1    1    1    2  502    0  0.42204943298E+02  0.54833767651E+01  0.65004957188E+02  0.77697935099E+02  0.00000000000E+00 0. -1.
         22    1    3    3    0    0 -0.70084181815E+02 -0.19021576649E+01 -0.41912831757E+02  0.81682900355E+02  0.00000000000E+00 0. -1.
         22    1    3    3    0    0  0.51613000825E+02  0.27968169436E+02 -0.27569643906E+02  0.64855266716E+02  0.00000000000E+00 0. -1.
</event>
<event>
 7    1  0.6140348E-006  0.7412619E+02  0.7818608E-02  0.1372324E+00
          2   -1    0    0  502    0  0.00000000000E+00  0.00000000000E+00  0.75257397030E+03  0.75257397030E+03  0.00000000000E+00 0. -1.
          1   -1    0    0  501    0 -0.00000000000E+00 -0.00000000000E+00 -0.71648403674E+02  0.71648403674E+02  0.00000000000E+00 0. -1.
         25    2    1    2    0    0 -0.27736302944E+01  0.71715474568E+02  0.63855999328E+03  0.65462530444E+03  0.12499848748E+03 0.  0.
          2    1    1    2  501    0  0.57666122398E+02 -0.48234313811E+02 -0.25332962203E+02  0.79332778063E+02  0.00000000000E+00 0. -1.
          1    1    1    2  502    0 -0.54892492104E+02 -0.23481160757E+02  0.67698535544E+02  0.90264291470E+02  0.00000000000E+00 0. -1.
         22    1    3    3    0    0 -0.26357178253E+01  0.67546943300E+02  0.13434633163E+03  0.15039439278E+03  0.00000000000E+00 0.  1.
         22    1    3    3    0    0 -0.13791246910E+00  0.41685312685E+01  0.50421366166E+03  0.50423091166E+03  0.00000000000E+00 0.  1.
</event>
<event>
 7    1  0.6140348E-006  0.3337733E+03  0.7818608E-02  0.1241940E+00
          2   -1    0    0  502    0  0.00000000000E+00  0.00000000000E+00  0.29159698490E+03  0.29159698490E+03  0.00000000000E+00 0. -1.
          1   -1    0    0  501    0 -0.00000000000E+00 -0.00000000000E+00 -0.15423239960E+04  0.15423239960E+04  0.00000000000E+00 0. -1.
         25    2    1    2    0    0 -0.24157148793E+03 -0.25871634830E+03 -0.12279793438E+04  0.12840756542E+04  0.12500433699E+03 0.  0.
          2    1    1    2  501    0 -0.10560551832E+02  0.42353928640E+02 -0.17789041479E+03  0.18316762870E+03  0.00000000000E+00 0. -1.
          1    1    1    2  502    0  0.25213203976E+03  0.21636241966E+03  0.15514274749E+03  0.36667769801E+03  0.00000000000E+00 0. -1.
         22    1    3    3    0    0 -0.12997657666E+03 -0.11885268413E+03 -0.81810037837E+03  0.83684413130E+03  0.00000000000E+00 0.  1.
         22    1    3    3    0    0 -0.11159491127E+03 -0.13986366417E+03 -0.40987896539E+03  0.44723152286E+03  0.00000000000E+00 0.  1.
</event>
<event>
 7    1  0.6140348E-006  0.1552105E+03  0.7818608E-02  0.1399923E+00
          2   -1    0    0  502    0  0.00000000000E+00  0.00000000000E+00  0.73632809753E+02  0.73632809753E+02  0.00000000000E+00 0. -1.
          1   -1    0    0  501    0 -0.00000000000E+00 -0.00000000000E+00 -0.15111568767E+04  0.15111568767E+04  0.00000000000E+00 0. -1.
         25    2    1    2    0    0  0.71708381575E+01  0.13886199867E+03 -0.43904516494E+03  0.47719881197E+03  0.12499589471E+03 0.  0.
          2    1    1    2  501    0 -0.99850045591E+01  0.20511510973E+02 -0.93616852610E+03  0.93644643822E+03  0.00000000000E+00 0. -1.
          1    1    1    2  502    0  0.28141664016E+01 -0.15937350964E+03 -0.62310375865E+02  0.17114443622E+03  0.00000000000E+00 0. -1.
         22    1    3    3    0    0 -0.52924291741E+02  0.37831833100E+02 -0.20850668154E+03  0.21841992697E+03  0.00000000000E+00 0. -1.
         22    1    3    3    0    0  0.60095129898E+02  0.10103016557E+03 -0.23053848340E+03  0.25877888500E+03  0.00000000000E+00 0. -1.
</event>
<event>
 7    1  0.6140348E-006  0.8072527E+02  0.7818608E-02  0.1347617E+00
          2   -1    0    0  502    0  0.00000000000E+00  0.00000000000E+00  0.31441524529E+03  0.31441524529E+03  0.00000000000E+00 0. -1.
          1   -1    0    0  501    0 -0.00000000000E+00 -0.00000000000E+00 -0.91528374193E+03  0.91528374193E+03  0.00000000000E+00 0. -1.
         25    2    1    2    0    0  0.11858978414E+03  0.23788918861E+02 -0.14631703280E+02  0.17455132372E+03  0.12499851323E+03 0.  0.
          2    1    1    2  501    0 -0.75167470190E+02  0.27857617204E+02 -0.81382708460E+03  0.81776568713E+03  0.00000000000E+00 0. -1.
          1    1    1    2  502    0 -0.43422313952E+02 -0.51646536065E+02  0.22759029124E+03  0.23738197637E+03  0.00000000000E+00 0. -1.
         22    1    3    3    0    0  0.14375132388E+02  0.38128253546E+02  0.39059564797E+02  0.56445174743E+02  0.00000000000E+00 0. -1.
         22    1    3    3    0    0  0.10421465175E+03 -0.14339334685E+02 -0.53691268076E+02  0.11810614898E+03  0.00000000000E+00 0. -1.
</event>
<event>
 7    1  0.6140348E-006  0.1204360E+03  0.7818608E-02  0.1266185E+00
          2   -1    0    0  502    0  0.00000000000E+00  0.00000000000E+00  0.18996619587E+04  0.18996619587E+04  0.00000000000E+00 0. -1.
          1   -1    0    0  501    0 -0.00000000000E+00 -0.00000000000E+00 -0.12280870271E+04  0.12280870271E+04  0.00000000000E+00 0. -1.
         25    2    1    2    0    0 -0.51114753478E+02  0.68514384251E+02 -0.17847318600E+02  0.15249065532E+03  0.12501173668E+03 0.  0.
          2    1    1    2  501    0 -0.70796924944E+02 -0.63500722064E+02 -0.11389026988E+04  0.11428665293E+04  0.00000000000E+00 0. -1.
          1    1    1    2  502    0  0.12191167842E+03 -0.50136621868E+01  0.18283249490E+04  0.18323918012E+04  0.00000000000E+00 0. -1.
         22    1    3    3    0    0  0.24250044560E+02  0.37448851459E+02 -0.48040763716E+02  0.65562154595E+02  0.00000000000E+00 0. -1.
         22    1    3    3    0    0 -0.75364798038E+02  0.31065532792E+02  0.30193445116E+02  0.86928500728E+02  0.00000000000E+00 0. -1.
</event>
<event>
 7    1  0.6140348E-006  0.6280897E+02  0.7818608E-02  0.1391566E+00
          2   -1    0    0  502    0  0.00000000000E+00  0.00000000000E+00  0.19850869023E+04  0.19850869023E+04  0.00000000000E+00 0. -1.
          1   -1    0    0  501    0 -0.00000000000E+00 -0.00000000000E+00 -0.10958836619E+03  0.10958836619E+03  0.00000000000E+00 0. -1.
         25    2    1    2    0    0 -0.41729189365E+01 -0.39897367787E+01  0.72255726209E+02  0.14446030856E+03  0.12495823113E+03 0.  0.
          2    1    1    2  501    0  0.60576449903E+02  0.31623198567E+02 -0.56954858984E+02  0.88957230917E+02  0.00000000000E+00 0. -1.
          1    1    1    2  502    0 -0.56403530967E+02 -0.27633461788E+02  0.18601976689E+04  0.18612577290E+04  0.00000000000E+00 0. -1.
         22    1    3    3    0    0 -0.26124118857E+02 -0.57749794214E+01  0.10312545632E+03  0.10653956877E+03  0.00000000000E+00 0.  1.
         22    1    3    3    0    0  0.21951199921E+02  0.17852426428E+01 -0.30869730108E+02  0.37920739789E+02  0.00000000000E+00 0.  1.
</event>
<event>
 7    1  0.6140348E-006  0.1573971E+03  0.7818608E-02  0.1250222E+00
          2   -1    0    0  502    0  0.00000000000E+00  0.00000000000E+00  0.23630937513E+04  0.23630937513E+04  0.00000000000E+00 0. -1.
          1   -1    0    0  501    0 -0.00000000000E+00 -0.00000000000E+00 -0.35193943034E+03  0.35193943034E+03  0.00000000000E+00 0. -1.
         25    2    1    2    0    0  0.48860970474E+02 -0.22539601628E+03  0.10258579710E+04  0.10588674925E+04  0.12500012566E+03 0.  0.
          2    1    1    2  501    0  0.80415436531E+00  0.15620581766E+03 -0.31578049655E+03  0.35230416708E+03  0.00000000000E+00 0. -1.
          1    1    1    2  502    0 -0.49665124839E+02  0.69190198615E+02  0.13010768465E+04  0.13038615221E+04  0.00000000000E+00 0. -1.
         22    1    3    3    0    0  0.67944765757E+02 -0.23049795281E+03  0.90280774758E+03  0.93424173880E+03  0.00000000000E+00 0.  1.
         22    1    3    3    0    0 -0.19083795283E+02  0.51019365284E+01  0.12305022345E+03  0.12462575372E+03  0.00000000000E+00 0.  1.
</event>
<event>
 7    1  0.9260169E-006  0.7498404E+02  0.7818608E-02  0.1383204E+00
          2   -1    0    0  502    0  0.00000000000E+00  0.00000000000E+00  0.25230546836E+04  0.25230546836E+04  0.00000000000E+00 0. -1.
          1   -1    0    0  501    0 -0.00000000000E+00 -0.00000000000E+00 -0.14673827332E+04  0.14673827332E+04  0.00000000000E+00 0. -1.
         25    2    1    2    0    0 -0.98450367665E+02  0.40998195061E+02 -0.15910951358E+03  0.22872313382E+03  0.12500043096E+03 0.  0.
          2    1    1    2  501    0  0.51196714682E+02  0.17151819414E+02 -0.12723296276E+04  0.12734747621E+04  0.00000000000E+00 0. -1.
          1    1    1    2  502    0  0.47253652983E+02 -0.58150014475E+02  0.24871110915E+04  0.24882395209E+04  0.00000000000E+00 0. -1.
         22    1    3    3    0    0 -0.23317969218E+02 -0.41092020998E+02 -0.21946634994E+02  0.52095457246E+02  0.00000000000E+00 0. -1.
         22    1    3    3    0    0 -0.75132398447E+02  0.82090216059E+02 -0.13716287858E+03  0.17662767657E+03  0.00000000000E+00 0. -1.
</event>
<event>
 7    1  0.6140348E-006  0.4160467E+02  0.7818608E-02  0.1541667E+00
          2   -1    0    0  502    0  0.00000000000E+00  0.00000000000E+00  0.28140364675E+03  0.28140364675E+03  0.00000000000E+00 0. -1.
          1   -1    0    0  501    0 -0.00000000000E+00 -0.00000000000E+00 -0.69612496756E+03  0.69612496756E+03  0.00000000000E+00 0. -1.
         25    2    1    2    0    0  0.22030468853E+00  0.69714577916E+02 -0.75764869919E+02  0.16194293692E+03  0.12500011358E+03 0.  0.
          2    1    1    2  501    0  0.86624735499E+01 -0.40230001760E+02 -0.57553857461E+03  0.57700792226E+03  0.00000000000E+00 0. -1.
          1    1    1    2  502    0 -0.88827782384E+01 -0.29484576156E+02  0.23658212372E+03  0.23857775513E+03  0.00000000000E+00 0. -1.
         22    1    3    3    0    0 -0.50958850577E+02  0.75762630814E+02 -0.53296338484E+02  0.10572265782E+03  0.00000000000E+00 0. -1.
         22    1    3    3    0    0  0.51179155265E+02 -0.60480528978E+01 -0.22468531435E+02  0.56220279102E+02  0.00000000000E+00 0. -1.
</event>
<event>
 7    1  0.6140348E-006  0.4730971E+02  0.7818608E-02  0.1537292E+00
          2   -1    0    0  502    0  0.00000000000E+00  0.00000000000E+00  0.57010909455E+03  0.57010909455E+03  0.00000000000E+00 0. -1.
          1   -1    0    0  501    0 -0.00000000000E+00 -0.00000000000E+00 -0.35080746318E+03  0.35080746318E+03  0.00000000000E+00 0. -1.
         25    2    1    2    0    0 -0.25229252728E+02  0.23768092573E+01  0.24132990516E+03  0.27295851114E+03  0.12499624500E+03 0.  0.
          2    1    1    2  501    0  0.39528832146E+02 -0.26290549067E+02 -0.33268459732E+03  0.33605470214E+03  0.00000000000E+00 0. -1.
          1    1    1    2  502    0 -0.14299579419E+02  0.23913739810E+02  0.31065632353E+03  0.31190334444E+03  0.00000000000E+00 0. -1.
         22    1    3    3    0    0  0.36567198669E+02 -0.38508855282E+02  0.91075163964E+02  0.10542664485E+03  0.00000000000E+00 0.  1.
         22    1    3    3    0    0 -0.61796451396E+02  0.40885664540E+02  0.15025474119E+03  0.16753186629E+03  0.00000000000E+00 0.  1.
</event>
<event>
 7    1  0.6140348E-006  0.6476611E+02  0.7818608E-02  0.1427283E+00
          2   -1    0    0  502    0  0.00000000000E+00  0.00000000000E+00  0.10748121208E+03  0.10748121208E+03  0.00000000000E+00 0. -1.
          1   -1    0    0  501    0 -0.00000000000E+00 -0.00000000000E+00 -0.13252753276E+04  0.13252753276E+04  0.00000000000E+00 0. -1.
         25    2    1    2    0    0  0.96862135503E+02 -0.45272701856E+02 -0.22492331802E+03  0.27864257384E+03  0.12497717446E+03 0.  0.
          2    1    1    2  501    0 -0.39923471295E+02  0.18988403561E+02 -0.10607664335E+04  0.10616872748E+04  0.00000000000E+00 0. -1.
          1    1    1    2  502    0 -0.56938664209E+02  0.26284298295E+02  0.67895636035E+02  0.92426691012E+02  0.00000000000E+00 0. -1.
         22    1    3    3    0    0  0.74475260118E+02  0.15713704713E+02 -0.47551248687E+02  0.89747457553E+02  0.00000000000E+00 0. -1.
         22    1    3    3    0    0  0.22386875385E+02 -0.60986406569E+02 -0.17737206933E+03  0.18889511628E+03  0.00000000000E+00 0. -1.
</event>
<event>
 7    1  0.6140348E-006  0.9904222E+02  0.7818608E-02  0.1366807E+00
          2   -1    0    0  502    0  0.00000000000E+00  0.00000000000E+00  0.14687517384E+04  0.14687517384E+04  0.00000000000E+00 0. -1.
          1   -1    0    0  501    0 -0.00000000000E+00 -0.00000000000E+00 -0.28348137502E+03  0.28348137502E+03  0.00000000000E+00 0. -1.
         25    2    1    2    0    0 -0.14823321282E+02  0.72471165480E+02 -0.10305994130E+03  0.17809219365E+03  0.12499470893E+03 0.  0.
          2    1    1    2  501    0 -0.34314746106E+01 -0.11553550082E+03 -0.11908056588E+03  0.16595302991E+03  0.00000000000E+00 0. -1.
          1    1    1    2  502    0  0.18254795893E+02  0.43064335337E+02  0.14074108706E+04  0.14081878899E+04  0.00000000000E+00 0. -1.
         22    1    3    3    0    0  0.52575607503E+02  0.13648099758E+02 -0.51435382557E+02  0.74806842669E+02  0.00000000000E+00 0. -1.
         22    1    3    3    0    0 -0.67398928786E+02  0.58823065722E+02 -0.51624558748E+02  0.10328535099E+03  0.00000000000E+00 0. -1.
</event>
<event>
 7    1  0.6140348E-006  0.4723146E+02  0.7818608E-02  0.1505137E+00
          2   -1    0    0  502    0  0.00000000000E+00  0.00000000000E+00  0.10614069402E+04  0.10614069402E+04  0.00000000000E+00 0. -1.
          1   -1    0    0  501    0 -0.00000000000E+00 -0.00000000000E+00 -0.14671181201E+03  0.14671181201E+03  0.00000000000E+00 0. -1.
         25    2    1    2    0    0 -0.33673520861E+01 -0.55411277395E+02  0.36970483811E+03  0.39419316722E+03  0.12499934815E+03 0.  0.
          2    1    1    2  501    0  0.30424088875E+02  0.16462185179E+02 -0.13139880362E+03  0.13587595195E+03  0.00000000000E+00 0. -1.
          1    1    1    2  502    0 -0.27056736789E+02  0.38949092215E+02  0.67638909365E+03  0.67804963299E+03  0.00000000000E+00 0. -1.
         22    1    3    3    0    0 -0.56893364555E+02 -0.19615436769E+02  0.26099828586E+03  0.26784645884E+03  0.00000000000E+00 0.  1.
         22    1    3    3    0    0  0.53526012469E+02 -0.35795840626E+02  0.10870655225E+03  0.12634670838E+03  0.00000000000E+00 0.  1.
</event>
<event>
 7    1  0.6140348E-006  0.8390867E+02  0.7818608E-02  0.1490384E+00
          2   -1    0    0  502    0  0.00000000000E+00  0.00000000000E+00  0.95164403039E+03  0.95164403039E+03  0.00000000000E+00 0. -1.
          1   -1    0    0  501    0 -0.00000000000E+00 -0.00000000000E+00 -0.33756674991E+02  0.33756674991E+02  0.00000000000E+00 0. -1.
         25    2    1    2    0    0 -0.83939062522E+02 -0.46604506377E+02  0.22106865299E+03  0.27149758602E+03  0.12498737396E+03 0.  0.
          2    1    1    2  501    0  0.62894502638E+02  0.41937303125E+02  0.16328958487E+03  0.17993872397E+03  0.00000000000E+00 0. -1.
          1    1    1    2  502    0  0.21044559883E+02  0.46672032523E+01  0.53352911754E+03  0.53396439539E+03  0.00000000000E+00 0. -1.
         22    1    3    3    0    0 -0.47240987627E+02 -0.39164449578E+02  0.22558430724E+03  0.23378161753E+03  0.00000000000E+00 0. -1.
         22    1    3    3    0    0 -0.36698074895E+02 -0.74400567992E+01 -0.45156542446E+01  0.37715968494E+02  0.00000000000E+00 0. -1.
</event>
<event>
 7    1  0.6140348E-006  0.7351028E+02  0.7818608E-02  0.1413239E+00
          2   -1    0    0  502    0  0.00000000000E+00  0.00000000000E+00  0.12461590117E+04  0.12461590117E+04  0.00000000000E+00 0. -1.
          1   -1    0    0  501    0 -0.00000000000E+00 -0.00000000000E+00 -0.59580274324E+03  0.59580274324E+03  0.00000000000E+00 0. -1.
         25    2    1    2    0    0 -0.77882505409E+02  0.74828876835E+01  0.38510683780E+03  0.41237619457E+03  0.12500068429E+03 0.  0.
          2    1    1    2  501    0  0.57546718609E+02 -0.45813385769E+02 -0.57928544427E+03  0.58393674065E+03  0.00000000000E+00 0. -1.
          1    1    1    2  502    0  0.20335786799E+02  0.38330498085E+02  0.84453487493E+03  0.84564881971E+03  0.00000000000E+00 0. -1.
         22    1    3    3    0    0 -0.50583932229E+02 -0.12807040607E+02  0.37244539132E+03  0.37608286854E+03  0.00000000000E+00 0.  1.
         22    1    3    3    0    0 -0.27298573180E+02  0.20289928290E+02  0.12661446472E+02  0.36293326032E+02  0.00000000000E+00 0.  1.
</event>
<event>
 7    1  0.6140348E-006  0.9357169E+02  0.7818608E-02  0.1345809E+00
          2   -1    0    0  502    0  0.00000000000E+00  0.00000000000E+00  0.10269445381E+04  0.10269445381E+04  0.00000000000E+00 0. -1.
          1   -1    0    0  501    0 -0.00000000000E+00 -0.00000000000E+00 -0.79073567280E+02  0.79073567280E+02  0.00000000000E+00 0. -1.
         25    2    1    2    0    0  0.19721217500E+02  0.39154541259E+02  0.31555102435E+03  0.34222829447E+03  0.12500300813E+03 0.  0.
          2    1    1    2  501    0 -0.68955849153E+02 -0.71884205463E+02 -0.25898007863E+02  0.10292208188E+03  0.00000000000E+00 0. -1.
          1    1    1    2  502    0  0.49234631654E+02  0.32729664204E+02  0.65821795429E+03  0.66086772899E+03  0.00000000000E+00 0. -1.
         22    1    3    3    0    0  0.68721452627E+02  0.18426139203E+02  0.23626552053E+03  0.24674593583E+03  0.00000000000E+00 0. -1.
         22    1    3    3    0    0 -0.49000235128E+02  0.20728402057E+02  0.79285503824E+02  0.95482358638E+02  0.00000000000E+00 0. -1.
</event>
<event>
 7    1  0.6140348E-006  0.3202906E+03  0.7818608E-02  0.1260350E+00
          2   -1    0    0  502    0  0.00000000000E+00  0.00000000000E+00  0.13317886665E+04  0.13317886665E+04  0.00000000000E+00 0. -1.
          1   -1    0    0  501    0 -0.00000000000E+00 -0.00000000000E+00 -0.91540944073E+03  0.91540944073E+03  0.00000000000E+00 0. -1.
         25    2    1    2    0    0  0.38961924208E+02 -0.31654453872E+03  0.34172825127E+03  0.48385715675E+03  0.12498429459E+03 0.  0.
          2    1    1    2  501    0 -0.76455708741E+02  0.31129246505E+03 -0.81350462654E+03  0.87437878039E+03  0.00000000000E+00 0. -1.
          1    1    1    2  502    0  0.37493784533E+02  0.52520736723E+01  0.88815560107E+03  0.88896217010E+03  0.00000000000E+00 0. -1.
         22    1    3    3    0    0  0.13501280090E+01 -0.89367666626E+02  0.26008928137E+02  0.93085267506E+02  0.00000000000E+00 0.  1.
         22    1    3    3    0    0  0.37611796199E+02 -0.22717687210E+03  0.31571932313E+03  0.39077188925E+03  0.00000000000E+00 0.  1.
</event>
<event>
 7    1  0.6140348E-006  0.8348052E+02  0.7818608E-02  0.1360976E+00
          2   -1    0    0  502    0  0.00000000000E+00  0.00000000000E+00  0.12359688243E+04  0.12359688243E+04  0.00000000000E+00 0. -1.
          1   -1    0    0  501    0 -0.00000000000E+00 -0.00000000000E+00 -0.14352972575E+04  0.14352972575E+04  0.00000000000E+00 0. -1.
         25    2    1    2    0    0  0.25198674540E+02 -0.13187730861E+02  0.79103960716E+02  0.15063399831E+03  0.12499710158E+03 0.  0.
          2    1    1    2  501    0  0.56871879580E+02 -0.12653728451E+02 -0.13972733457E+04  0.13984875152E+04  0.00000000000E+00 0. -1.
          1    1    1    2  502    0 -0.82070554120E+02  0.25841459312E+02  0.11188409518E+04  0.11221445683E+04  0.00000000000E+00 0. -1.
         22    1    3    3    0    0  0.13643834674E+02  0.26353510029E+02 -0.24919192144E+02  0.38750843250E+02  0.00000000000E+00 0.  1.
         22    1    3    3    0    0  0.11554839866E+02 -0.39541240890E+02  0.10402315286E+03  0.11188315506E+03  0.00000000000E+00 0.  1.
</event>
<event>
 7    1  0.6140348E-006  0.8940574E+02  0.7818608E-02  0.1424089E+00
          2   -1    0    0  502    0  0.00000000000E+00  0.00000000000E+00  0.10405301334E+04  0.10405301334E+04  0.00000000000E+00 0. -1.
          1   -1    0    0  501    0 -0.00000000000E+00 -0.00000000000E+00 -0.14631123746E+03  0.14631123746E+03  0.00000000000E+00 0. -1.
         25    2    1    2    0    0  0.10675135038E+03  0.51440863303E+02  0.23986597977E+03  0.29530139616E+03  0.12500085239E+03 0.  0.
          2    1    1    2  501    0 -0.32030895870E+02 -0.71307642270E+01 -0.11382751393E+03  0.11846319688E+03  0.00000000000E+00 0. -1.
          1    1    1    2  502    0 -0.74720454506E+02 -0.44310099076E+02  0.76818043012E+03  0.77307677783E+03  0.00000000000E+00 0. -1.
         22    1    3    3    0    0  0.98919565813E+02  0.47078997755E+02  0.81152704834E+02  0.13633515332E+03  0.00000000000E+00 0.  1.
         22    1    3    3    0    0  0.78317845629E+01  0.43618655487E+01  0.15871327493E+03  0.15896624283E+03  0.00000000000E+00 0.  1.
</event>
<event>
 7    1  0.6140348E-006  0.4032528E+02  0.7818608E-02  0.1577814E+00
          2   -1    0    0  502    0  0.00000000000E+00  0.00000000000E+00  0.14879207593E+03  0.14879207593E+03  0.00000000000E+00 0. -1.
          1   -1    0    0  501    0 -0.00000000000E+00 -0.00000000000E+00 -0.69077010819E+03  0.69077010819E+03  0.00000000000E+00 0. -1.
         25    2    1    2    0    0  0.19169816285E+02  0.52176845320E+02 -0.59078232839E+01  0.13691591940E+03  0.12498464532E+03 0.  0.
          2    1    1    2  501    0 -0.28270741335E+02 -0.28610738185E+02 -0.61677238456E+03  0.61808250542E+03  0.00000000000E+00 0. -1.
          1    1    1    2  502    0  0.91009250502E+01 -0.23566107136E+02  0.80702175582E+02  0.84563759294E+02  0.00000000000E+00 0. -1.
         22    1    3    3    0    0 -0.74850325511E+00  0.72753602813E+02 -0.47154732194E+02  0.86701878571E+02  0.00000000000E+00 0.  1.
         22    1    3    3    0    0  0.19918319540E+02 -0.20576757493E+02  0.41246908910E+02  0.50214040833E+02  0.00000000000E+00 0.  1.
</event>
<event>
 7    1  0.6140348E-006  0.1101851E+03  0.7818608E-02  0.1260451E+00
          2   -1    0    0  502    0  0.00000000000E+00  0.00000000000E+00  0.25295909638E+04  0.25295909638E+04  0.00000000000E+00 0. -1.
          1   -1    0    0  501    0 -0.00000000000E+00 -0.00000000000E+00 -0.14524373093E+03  0.14524373093E+03  0.00000000000E+00 0. -1.
         25    2    1    2    0    0 -0.65821520081E+02  0.13356721399E+03  0.26527379719E+03  0.32888892053E+03  0.12500024564E+03 0.  0.
          2    1    1    2  501    0  0.10594749552E+03 -0.30948230474E+02 -0.84880954695E+02  0.13923879218E+03  0.00000000000E+00 0. -1.
          1    1    1    2  502    0 -0.40125975444E+02 -0.10261898351E+03  0.22039543904E+04  0.22067069820E+04  0.00000000000E+00 0. -1.
         22    1    3    3    0    0 -0.84254323575E+02  0.37563383334E+02  0.94149570182E+02  0.13181024381E+03  0.00000000000E+00 0.  1.
         22    1    3    3    0    0  0.18432803495E+02  0.96003830654E+02  0.17112422701E+03  0.19707867671E+03  0.00000000000E+00 0.  1.
</event>
<event>
 7    1  0.6140348E-006  0.7646902E+02  0.7818608E-02  0.1350861E+00
          2   -1    0    0  502    0  0.00000000000E+00  0.00000000000E+00  0.64696858417E+03  0.64696858417E+03  0.00000000000E+00 0. -1.
          1   -1    0    0  501    0 -0.00000000000E+00 -0.00000000000E+00 -0.76722323186E+02  0.76722323186E+02  0.00000000000E+00 0. -1.
         25    2    1    2    0    0  0.91209643658E+02 -0.20770351026E+02  0.35957066950E+03  0.39200269232E+03  0.12499775135E+03 0.  0.
          2    1    1    2  501    0 -0.26437571220E+02  0.64041816114E+02 -0.32364042240E+02  0.76470455820E+02  0.00000000000E+00 0. -1.
          1    1    1    2  502    0 -0.64772072438E+02 -0.43271465088E+02  0.24303963373E+03  0.25521775922E+03  0.00000000000E+00 0. -1.
         22    1    3    3    0    0  0.14517328500E+02 -0.25330460094E+02  0.27955252570E+03  0.28107294367E+03  0.00000000000E+00 0.  1.
         22    1    3    3    0    0  0.76692315158E+02  0.45601090680E+01  0.80018143793E+02  0.11092974865E+03  0.00000000000E+00 0.  1.
</event>
<event>
 7    1  0.6140348E-006  0.6073275E+02  0.7818608E-02  0.1450923E+00
          2   -1    0    0  502    0  0.00000000000E+00  0.00000000000E+00  0.29597129773E+04  0.29597129773E+04  0.00000000000E+00 0. -1.
          1   -1    0    0  501    0 -0.00000000000E+00 -0.00000000000E+00 -0.75668837174E+02  0.75668837174E+02  0.00000000000E+00 0. -1.
         25    2    1    2    0    0 -0.61719850672E+02 -0.36689448807E+02  0.29224981216E+03  0.32586494017E+03  0.12499020323E+03 0.  0.
          2    1    1    2  501    0  0.10410517016E+01  0.39487677385E+02 -0.51845597668E+02  0.65179187257E+02  0.00000000000E+00 0. -1.
          1    1    1    2  502    0  0.60678798970E+02 -0.27982285787E+01  0.26436399257E+04  0.26443376871E+04  0.00000000000E+00 0. -1.
         22    1    3    3    0    0  0.12829208995E+02  0.90505051351E+01 -0.46307037117E+01  0.16368984803E+02  0.00000000000E+00 0. -1.
         22    1    3    3    0    0 -0.74549059666E+02 -0.45739953942E+02  0.29688051587E+03  0.30949595536E+03  0.00000000000E+00 0. -1.
</event>
<event>
 7    1  0.6140348E-006  0.3465824E+02  0.7818608E-02  0.1567693E+00
          2   -1    0    0  502    0  0.00000000000E+00  0.00000000000E+00  0.17513953775E+02  0.17513953775E+02  0.00000000000E+00 0. -1.
          1   -1    0    0  501    0 -0.00000000000E+00 -0.00000000000E+00 -0.11083971195E+04  0.11083971195E+04  0.00000000000E+00 0. -1.
         25    2    1    2    0    0  0.21756417070E+02  0.28240853298E+02 -0.84467237398E+03  0.85461534179E+03  0.12500030228E+03 0.  0.
          2    1    1    2  501    0 -0.30796893442E+02  0.56292385302E+01 -0.23094976935E+03  0.23306207957E+03  0.00000000000E+00 0. -1.
          1    1    1    2  502    0  0.90404763723E+01 -0.33870091828E+02 -0.15261022375E+02  0.38233651897E+02  0.00000000000E+00 0. -1.
         22    1    3    3    0    0  0.60692452989E+02  0.55157143776E+02 -0.49366824963E+03  0.50043403666E+03  0.00000000000E+00 0. -1.
         22    1    3    3    0    0 -0.38936035919E+02 -0.26916290478E+02 -0.35100412435E+03  0.35418130512E+03  0.00000000000E+00 0. -1.
</event>
<event>
 7    1  0.6140348E-006  0.2024034E+03  0.7818608E-02  0.1353844E+00
          2   -1    0    0  502    0  0.00000000000E+00  0.00000000000E+00  0.28901848678E+04  0.28901848678E+04  0.00000000000E+00 0. -1.
          1   -1    0    0  501    0 -0.00000000000E+00 -0.00000000000E+00 -0.68292350159E+03  0.68292350159E+03  0.00000000000E+00 0. -1.
         25    2    1    2    0    0  0.15780512358E+03 -0.13556191711E+03 -0.10175638653E+03  0.26317415811E+03  0.12500713940E+03 0.  0.
          2    1    1    2  501    0 -0.21417581322E+02 -0.13877553018E+02 -0.49648759819E+03  0.49714307239E+03  0.00000000000E+00 0. -1.
          1    1    1    2  502    0 -0.13638754226E+03  0.14943947013E+03  0.28055053509E+04  0.28127911389E+04  0.00000000000E+00 0. -1.
         22    1    3    3    0    0  0.14293741893E+03 -0.11984327239E+03 -0.30880114321E+02  0.18906902742E+03  0.00000000000E+00 0. -1.
         22    1    3    3    0    0  0.14867704651E+02 -0.15718644716E+02 -0.70876272209E+02  0.74105130697E+02  0.00000000000E+00 0. -1.
</event>
<event>
 7    1  0.6140348E-006  0.1789186E+03  0.7818608E-02  0.1285388E+00
          2   -1    0    0  502    0  0.00000000000E+00  0.00000000000E+00  0.15167231380E+03  0.15167231380E+03  0.00000000000E+00 0. -1.
          1   -1    0    0  501    0 -0.00000000000E+00 -0.00000000000E+00 -0.56339861312E+03  0.56339861312E+03  0.00000000000E+00 0. -1.
         25    2    1    2    0    0 -0.70522870984E+02  0.12633765852E+03 -0.13042411169E+03  0.23145163865E+03  0.12499893132E+03 0.  0.
          2    1    1    2  501    0 -0.20341009616E+02  0.49222198923E+02 -0.28093472115E+03  0.28593862818E+03  0.00000000000E+00 0. -1.
          1    1    1    2  502    0  0.90863880601E+02 -0.17555985744E+03 -0.36746648031E+00  0.19768066009E+03  0.00000000000E+00 0. -1.
         22    1    3    3    0    0 -0.94105385503E+02  0.12200792722E+03 -0.75635623164E+02  0.17164645460E+03  0.00000000000E+00 0.  1.
         22    1    3    3    0    0  0.23582514519E+02  0.43297312951E+01 -0.54788488526E+02  0.59805184049E+02  0.00000000000E+00 0.  1.
</event>
<event>
 7    1  0.6140348E-006  0.7211406E+02  0.7818608E-02  0.1416312E+00
          2   -1    0    0  502    0  0.00000000000E+00  0.00000000000E+00  0.74894267054E+03  0.74894267054E+03  0.00000000000E+00 0. -1.
          1   -1    0    0  501    0 -0.00000000000E+00 -0.00000000000E+00 -0.43095865830E+03  0.43095865830E+03  0.00000000000E+00 0. -1.
         25    2    1    2    0    0  0.12835437840E+02  0.11349681559E+03  0.20248540478E+02  0.17053247178E+03  0.12500017971E+03 0.  0.
          2    1    1    2  501    0 -0.49899869418E+01 -0.42900999401E+02 -0.35256502638E+03  0.35520063843E+03  0.00000000000E+00 0. -1.
          1    1    1    2  502    0 -0.78454508981E+01 -0.70595816189E+02  0.65030049814E+03  0.65416821862E+03  0.00000000000E+00 0. -1.
         22    1    3    3    0    0 -0.53678184759E+02  0.34096285797E+02  0.20943206388E+02  0.66951640144E+02  0.00000000000E+00 0.  1.
         22    1    3    3    0    0  0.66513622598E+02  0.79400529792E+02 -0.69466591021E+00  0.10358083164E+03  0.00000000000E+00 0.  1.
</event>
<event>
 7    1  0.6140348E-006  0.9069564E+02  0.7818608E-02  0.1374117E+00
          2   -1    0    0  502    0  0.00000000000E+00  0.00000000000E+00  0.15181277440E+04  0.15181277440E+04  0.00000000000E+00 0. -1.
          1   -1    0    0  501    0 -0.00000000000E+00 -0.00000000000E+00 -0.24249650161E+03  0.24249650161E+03  0.00000000000E+00 0. -1.
         25    2    1    2    0    0 -0.45031614605E+02  0.29739668534E+02  0.16943164364E+03  0.21735326085E+03  0.12499225551E+03 0.  0.
          2    1    1    2  501    0  0.51118677422E+02 -0.77433522771E+02 -0.20822771745E+03  0.22796458485E+03  0.00000000000E+00 0. -1.
          1    1    1    2  502    0 -0.60870628166E+01  0.47693854237E+02  0.13144273162E+04  0.13153063999E+04  0.00000000000E+00 0. -1.
         22    1    3    3    0    0  0.42952240298E+02  0.20642972053E+02  0.56936838581E+02  0.74248439913E+02  0.00000000000E+00 0.  1.
         22    1    3    3    0    0 -0.87983854903E+02  0.90966964808E+01  0.11249480506E+03  0.14310482094E+03  0.00000000000E+00 0.  1.
</event>
<event>
 7    1  0.6140348E-006  0.3173508E+02  0.7818608E-02  0.1626409E+00
          2   -1    0    0  502    0  0.00000000000E+00  0.00000000000E+00  0.13569260660E+04  0.13569260660E+04  0.00000000000E+00 0. -1.
          1   -1    0    0  501    0 -0.00000000000E+00 -0.00000000000E+00 -0.42503202014E+03  0.42503202014E+03  0.00000000000E+00 0. -1.
         25    2    1    2    0    0 -0.17478858453E+02 -0.31058056340E+02 -0.28979899945E+03  0.31761210617E+03  0.12499550612E+03 0.  0.
          2    1    1    2  501    0 -0.12449941489E+02  0.20495164778E+02 -0.11995202909E+03  0.12232555785E+03  0.00000000000E+00 0. -1.
          1    1    1    2  502    0  0.29928799942E+02  0.10562891561E+02  0.13416450744E+04  0.13420204221E+04  0.00000000000E+00 0. -1.
         22    1    3    3    0    0  0.28148557982E+02  0.24622585664E+02 -0.19513180008E+03  0.19868324651E+03  0.00000000000E+00 0. -1.
         22    1    3    3    0    0 -0.45627416435E+02 -0.55680642004E+02 -0.94667199365E+02  0.11892885966E+03  0.00000000000E+00 0. -1.
</event>
<event>
 7    1  0.6140348E-006  0.8645954E+02  0.7818608E-02  0.1451807E+00
          2   -1    0    0  502    0  0.00000000000E+00  0.00000000000E+00  0.66715494550E+03  0.66715494550E+03  0.00000000000E+00 0. -1.
          1   -1    0    0  501    0 -0.00000000000E+00 -0.00000000000E+00 -0.14422295664E+03  0.14422295664E+03  0.00000000000E+00 0. -1.
         25    2    1    2    0    0  0.84280918567E+02  0.14403769357E+02 -0.71645811905E+01  0.15164756218E+03  0.12503963406E+03 0.  0.
          2    1    1    2  501    0 -0.77898325897E+02 -0.41222355858E+02 -0.34365060235E+02  0.94595925732E+02  0.00000000000E+00 0. -1.
          1    1    1    2  502    0 -0.63825926691E+01  0.26818586501E+02  0.56446163029E+03  0.56513441423E+03  0.00000000000E+00 0. -1.
         22    1    3    3    0    0  0.99248195230E+02 -0.16386601999E+02 -0.36047713743E+02  0.10685580306E+03  0.00000000000E+00 0.  1.
         22    1    3    3    0    0 -0.14967276664E+02  0.30790371356E+02  0.28883132552E+02  0.44791759119E+02  0.00000000000E+00 0.  1.
</event>
<event>
 7    1  0.6140348E-006  0.1365182E+03  0.7818608E-02  0.1335203E+00
          2   -1    0    0  502    0  0.00000000000E+00  0.00000000000E+00  0.10318036210E+04  0.10318036210E+04  0.00000000000E+00 0. -1.
          1   -1    0    0  501    0 -0.00000000000E+00 -0.00000000000E+00 -0.13602739374E+04  0.13602739374E+04  0.00000000000E+00 0. -1.
         25    2    1    2    0    0 -0.92084319087E+02 -0.49418267391E+02 -0.41452652135E+03  0.44539722528E+03  0.12499905764E+03 0.  0.
          2    1    1    2  501    0  0.13005532971E+03  0.72466739529E+02 -0.92386420636E+03  0.93578356948E+03  0.00000000000E+00 0. -1.
          1    1    1    2  502    0 -0.37971010625E+02 -0.23048472138E+02  0.10099204113E+04  0.10108967637E+04  0.00000000000E+00 0. -1.
         22    1    3    3    0    0 -0.31834017604E+02  0.32011933612E+01 -0.10718491235E+02  0.33742234219E+02  0.00000000000E+00 0.  1.
         22    1    3    3    0    0 -0.60250301483E+02 -0.52619460752E+02 -0.40380803011E+03  0.41165499106E+03  0.00000000000E+00 0.  1.
</event>
<event>
 7    1  0.6140348E-006  0.1711037E+03  0.7818608E-02  0.1210568E+00
          2   -1    0    0  502    0  0.00000000000E+00  0.00000000000E+00  0.36140092832E+03  0.36140092832E+03  0.00000000000E+00 0. -1.
          1   -1    0    0  501    0 -0.00000000000E+00 -0.00000000000E+00 -0.16786786512E+04  0.16786786512E+04  0.00000000000E+00 0. -1.
         25    2    1    2    0    0 -0.47123719688E+02  0.78090999395E+02 -0.96019633083E+03  0.97258443079E+03  0.12499852849E+03 0.  0.
          2    1    1    2  501    0 -0.32870542346E+02 -0.22934379619E+03 -0.67105524129E+03  0.70992547937E+03  0.00000000000E+00 0. -1.
          1    1    1    2  502    0  0.79994262034E+02  0.15125279680E+03  0.31397384920E+03  0.35756966940E+03  0.00000000000E+00 0. -1.
         22    1    3    3    0    0 -0.23031611083E+02  0.81519076177E+02 -0.29443473217E+03  0.30637824074E+03  0.00000000000E+00 0. -1.
         22    1    3    3    0    0 -0.24092108605E+02 -0.34280767814E+01 -0.66576159867E+03  0.66620619005E+03  0.00000000000E+00 0. -1.
</event>
<event>
 7    1  0.6140348E-006  0.5943226E+02  0.7818608E-02  0.1511959E+00
          2   -1    0    0  502    0  0.00000000000E+00  0.00000000000E+00  0.11163474302E+04  0.11163474302E+04  0.00000000000E+00 0. -1.
          1   -1    0    0  501    0 -0.00000000000E+00 -0.00000000000E+00 -0.61412537309E+02  0.61412537309E+02  0.00000000000E+00 0. -1.
         25    2    1    2    0    0  0.34060706143E+02  0.21934347055E+02  0.54369844076E+03  0.55935136899E+03  0.12499884891E+03 0.  0.
          2    1    1    2  501    0 -0.36005684883E+02 -0.48108390265E+02 -0.36326421075E+02  0.70217059366E+02  0.00000000000E+00 0. -1.
          1    1    1    2  502    0  0.19449787404E+01  0.26174043210E+02  0.54756287320E+03  0.54819153914E+03  0.00000000000E+00 0. -1.
         22    1    3    3    0    0  0.53505099344E+02  0.63068035511E+02  0.28816264495E+03  0.29979673565E+03  0.00000000000E+00 0. -1.
         22    1    3    3    0    0 -0.19444393202E+02 -0.41133688456E+02  0.25553579580E+03  0.25955463334E+03  0.00000000000E+00 0. -1.
</event>
<event>
 7    1  0.6140348E-006  0.9569745E+02  0.7818608E-02  0.1342412E+00
          2   -1    0    0  502    0  0.00000000000E+00  0.00000000000E+00  0.12319289059E+04  0.12319289059E+04  0.00000000000E+00 0. -1.
          1   -1    0    0  501    0 -0.00000000000E+00 -0.00000000000E+00 -0.38286633602E+02  0.38286633602E+02  0.00000000000E+00 0. -1.
         25    2    1    2    0    0  0.81239970966E+02  0.13253851690E+02  0.68813939790E+03  0.70422795343E+03  0.12500232791E+03 0.  0.
          2    1    1    2  501    0 -0.88004725632E+02  0.45883724733E+02  0.58845906794E+02  0.11538192525E+03  0.00000000000E+00 0. -1.
          1    1    1    2  502    0  0.67647546661E+01 -0.59137576423E+02  0.44665696761E+03  0.45060566082E+03  0.00000000000E+00 0. -1.
         22    1    3    3    0    0 -0.27691713995E+02  0.22613141561E+02  0.10478232861E+03  0.11071369194E+03  0.00000000000E+00 0.  1.
         22    1    3    3    0    0  0.10893168496E+03 -0.93592898705E+01  0.58335706929E+03  0.59351426148E+03  0.00000000000E+00 0.  1.
</event>
<event>
 7    1  0.6140348E-006  0.2999693E+02  0.7818608E-02  0.1617879E+00
          2   -1    0    0  502    0  0.00000000000E+00  0.00000000000E+00  0.17985940095E+03  0.17985940095E+03  0.00000000000E+00 0. -1.
          1   -1    0    0  501    0 -0.00000000000E+00 -0.00000000000E+00 -0.17100350598E+03  0.17100350598E+03  0.00000000000E+00 0. -1.
         25    2    1    2    0    0  0.25588531889E+01  0.27903526416E+02  0.31940132032E+02  0.13202781155E+03  0.12500406583E+03 0.  0.
          2    1    1    2  501    0  0.23726913143E+02 -0.12173353860E+02 -0.11702547941E+03  0.12002549639E+03  0.00000000000E+00 0. -1.
          1    1    1    2  502    0 -0.26285766332E+02 -0.15730172556E+02  0.93941242343E+02  0.98809598994E+02  0.00000000000E+00 0. -1.
         22    1    3    3    0    0 -0.43739209146E+02 -0.11730452047E+01 -0.27175188824E+02  0.51507138723E+02  0.00000000000E+00 0. -1.
         22    1    3    3    0    0  0.46298062335E+02  0.29076571621E+02  0.59115320857E+02  0.80520672831E+02  0.00000000000E+00 0. -1.
</event>
<event>
 7    1  0.6140348E-006  0.3382076E+02  0.7818608E-02  0.1610042E+00
          2   -1    0    0  502    0  0.00000000000E+00  0.00000000000E+00  0.30074527608E+03  0.30074527608E+03  0.00000000000E+00 0. -1.
          1   -1    0    0  501    0 -0.00000000000E+00 -0.00000000000E+00 -0.21922511689E+04  0.21922511689E+04  0.00000000000E+00 0. -1.
         25    2    1    2    0    0  0.62017255614E+01  0.17093867150E+02  0.50382992946E+02  0.13598748978E+03  0.12499395867E+03 0.  0.
          2    1    1    2  501    0 -0.30789732878E+02 -0.14066864675E+02 -0.21485758996E+04  0.21488425444E+04  0.00000000000E+00 0. -1.
          1    1    1    2  502    0  0.24588007317E+02 -0.30270024748E+01  0.20668701389E+03  0.20816641073E+03  0.00000000000E+00 0. -1.
         22    1    3    3    0    0  0.53748126945E+02  0.64115497681E+01  0.65493544375E+02  0.84966896350E+02  0.00000000000E+00 0. -1.
         22    1    3    3    0    0 -0.47546401384E+02  0.10682317381E+02 -0.15110551429E+02  0.51020593427E+02  0.00000000000E+00 0. -1.
</event>
<event>
 7    1  0.6140348E-006  0.1628688E+03  0.7818608E-02  0.1224444E+00
          2   -1    0    0  502    0  0.00000000000E+00  0.00000000000E+00  0.80818024522E+03  0.80818024522E+03  0.00000000000E+00 0. -1.
          1   -1    0    0  501    0 -0.00000000000E+00 -0.00000000000E+00 -0.17939974544E+04  0.17939974544E+04  0.00000000000E+00 0. -1.
         25    2    1    2    0    0  0.83101878832E+02 -0.11951290088E+03  0.11854512411E+03  0.22553810069E+03  0.12500093066E+03 0.  0.
          2    1    1    2  501    0  0.81844940555E+02  0.69023770574E+02 -0.17271185262E+04  0.17304338412E+04  0.00000000000E+00 0. -1.
          1    1    1    2  502    0 -0.16494681939E+03  0.50489130311E+02  0.62275619292E+03  0.64620575773E+03  0.00000000000E+00 0. -1.
         22    1    3    3    0    0  0.37899523971E+02 -0.77913617628E+02 -0.58101854394E+01  0.86836996631E+02  0.00000000000E+00 0. -1.
         22    1    3    3    0    0  0.45202354861E+02 -0.41599283257E+02  0.12435530955E+03  0.13870110405E+03  0.00000000000E+00 0. -1.
</event>
<event>
 7    1  0.6140348E-006  0.6664528E+02  0.7818608E-02  0.1419883E+00
          2   -1    0    0  502    0  0.00000000000E+00  0.00000000000E+00  0.46527356432E+03  0.46527356432E+03  0.00000000000E+00 0. -1.
          1   -1    0    0  501    0 -0.00000000000E+00 -0.00000000000E+00 -0.37173769976E+03  0.37173769976E+03  0.00000000000E+00 0. -1.
         25    2    1    2    0    0  0.87363318589E+01 -0.23992625657E+02  0.24807004872E+01  0.12760574551E+03  0.12500041132E+03 0.  0.
          2    1    1    2  501    0 -0.42087249925E+02  0.54891929206E+02 -0.30398624430E+03  0.31175647102E+03  0.00000000000E+00 0. -1.
          1    1    1    2  502    0  0.33350918066E+02 -0.30899303550E+02  0.39504140837E+03  0.39764904755E+03  0.00000000000E+00 0. -1.
         22    1    3    3    0    0 -0.10673239740E+02 -0.17477030531E+02  0.61666960029E+02  0.64978293314E+02  0.00000000000E+00 0.  1.
         22    1    3    3    0    0  0.19409571598E+02 -0.65155951256E+01 -0.59186259542E+02  0.62627452192E+02  0.00000000000E+00 0.  1.
</event>
<event>
 7    1  0.6140348E-006  0.2616915E+03  0.7818608E-02  0.1235288E+00
          2   -1    0    0  502    0  0.00000000000E+00  0.00000000000E+00  0.28267141301E+04  0.28267141301E+04  0.00000000000E+00 0. -1.
          1   -1    0    0  501    0 -0.00000000000E+00 -0.00000000000E+00 -0.15993102117E+03  0.15993102117E+03  0.00000000000E+00 0. -1.
         25    2    1    2    0    0  0.20929060755E+03  0.21501115513E+03  0.72119652343E+03  0.79106365698E+03  0.12499971499E+03 0.  0.
          2    1    1    2  501    0 -0.15031546645E+03 -0.20658548366E+03  0.64867877198E+01  0.25556678173E+03  0.00000000000E+00 0. -1.
          1    1    1    2  502    0 -0.58975141102E+02 -0.84256714796E+01  0.19390997978E+04  0.19400147126E+04  0.00000000000E+00 0. -1.
         22    1    3    3    0    0  0.12920849972E+03  0.16553156616E+03  0.61130160156E+03  0.64636304339E+03  0.00000000000E+00 0. -1.
         22    1    3    3    0    0  0.80082107830E+02  0.49479588979E+02  0.10989492187E+03  0.14470061359E+03  0.00000000000E+00 0. -1.
</event>
<event>
 7    1  0.6140348E-006  0.4988753E+02  0.7818608E-02  0.1548913E+00
          2   -1    0    0  502    0  0.00000000000E+00  0.00000000000E+00  0.69165234350E+03  0.69165234350E+03  0.00000000000E+00 0. -1.
          1   -1    0    0  501    0 -0.00000000000E+00 -0.00000000000E+00 -0.71661914455E+02  0.71661914455E+02  0.00000000000E+00 0. -1.
         25    2    1    2    0    0  0.71977866164E+01 -0.52436056439E+02  0.26363632699E+03  0.29653104024E+03  0.12500078708E+03 0.  0.
          2    1    1    2  501    0 -0.28800556379E+02  0.40866289689E+02 -0.43444627585E+02  0.66234140341E+02  0.00000000000E+00 0. -1.
          1    1    1    2  502    0  0.21602769763E+02  0.11569766749E+02  0.39979872964E+03  0.40054907737E+03  0.00000000000E+00 0. -1.
         22    1    3    3    0    0  0.61184085675E+02 -0.49091455846E+02  0.18644403532E+03  0.20227417454E+03  0.00000000000E+00 0. -1.
         22    1    3    3    0    0 -0.53986299059E+02 -0.33446005925E+01  0.77192291662E+02  0.94256865699E+02  0.00000000000E+00 0. -1.
</event>
<event>
 7    1  0.6140348E-006  0.3361216E+02  0.7818608E-02  0.1567166E+00
          2   -1    0    0  502    0  0.00000000000E+00  0.00000000000E+00  0.10334933646E+04  0.10334933646E+04  0.00000000000E+00 0. -1.
          1   -1    0    0  501    0 -0.00000000000E+00 -0.00000000000E+00 -0.17020286502E+03  0.17020286502E+03  0.00000000000E+00 0. -1.
         25    2    1    2    0    0  0.65540710004E+02  0.15818640761E+01  0.18085422922E+03  0.22941643380E+03  0.12500224361E+03 0.  0.
          2    1    1    2  501    0 -0.32370233506E+02 -0.10829217697E+01 -0.14378758397E+03  0.14739021013E+03  0.00000000000E+00 0. -1.
          1    1    1    2  502    0 -0.33170476498E+02 -0.49894230640E+00  0.82622385436E+03  0.82688958572E+03  0.00000000000E+00 0. -1.
         22    1    3    3    0    0  0.74956631668E+02 -0.44255540272E+02  0.14980231090E+03  0.17325640487E+03  0.00000000000E+00 0. -1.
         22    1    3    3    0    0 -0.94159216636E+01  0.45837404348E+02  0.31051918318E+02  0.56160028929E+02  0.00000000000E+00 0. -1.
</event>
<event>
 7    1  0.6140348E-006  0.1171508E+03  0.7818608E-02  0.1388250E+00
          2   -1    0    0  502    0  0.00000000000E+00  0.00000000000E+00  0.16281797185E+04  0.16281797185E+04  0.00000000000E+00 0. -1.
          1   -1    0    0  501    0 -0.00000000000E+00 -0.00000000000E+00 -0.65204196166E+02  0.65204196166E+02  0.00000000000E+00 0. -1.
         25    2    1    2    0    0 -0.14478463486E+03 -0.11528148964E+02  0.35787616890E+03  0.40595591919E+03  0.12501746816E+03 0.  0.
          2    1    1    2  501    0  0.32276715818E+02 -0.76783448695E+01 -0.31395071443E+02  0.45677060707E+02  0.00000000000E+00 0. -1.
          1    1    1    2  502    0  0.11250791905E+03  0.19206493833E+02  0.12364944249E+04  0.12417509348E+04  0.00000000000E+00 0. -1.
         22    1    3    3    0    0 -0.12033892941E+03  0.13206143424E+02  0.34993565969E+03  0.37028479051E+03  0.00000000000E+00 0.  1.
         22    1    3    3    0    0 -0.24445705449E+02 -0.24734292388E+02  0.79405092079E+01  0.35671128680E+02  0.00000000000E+00 0.  1.
</event>
<event>
 7    1  0.6140348E-006  0.1952281E+03  0.7818608E-02  0.1166742E+00
          2   -1    0    0  502    0  0.00000000000E+00  0.00000000000E+00  0.84827652260E+03  0.84827652260E+03  0.00000000000E+00 0. -1.
          1   -1    0    0  501    0 -0.00000000000E+00 -0.00000000000E+00 -0.15800911576E+03  0.15800911576E+03  0.00000000000E+00 0. -1.
         25    2    1    2    0    0 -0.32874574368E+02 -0.19965215633E+03  0.21588213047E+03  0.32120457534E+03  0.12500225516E+03 0.  0.
          2    1    1    2  501    0 -0.14584353077E+03  0.83381509636E+02  0.33405699001E+01  0.16802967305E+03  0.00000000000E+00 0. -1.
          1    1    1    2  502    0  0.17871810514E+03  0.11627064670E+03  0.47104470647E+03  0.51705138998E+03  0.00000000000E+00 0. -1.
         22    1    3    3    0    0 -0.11621843367E+02  0.13808388320E+02  0.39710082725E+02  0.43619141455E+02  0.00000000000E+00 0. -1.
         22    1    3    3    0    0 -0.21252731000E+02 -0.21346054465E+03  0.17617204774E+03  0.27758543388E+03  0.00000000000E+00 0. -1.
</event>
<event>
 7    1  0.6140348E-006  0.3037374E+02  0.7818608E-02  0.1602570E+00
          2   -1    0    0  502    0  0.00000000000E+00  0.00000000000E+00  0.64578717609E+03  0.64578717609E+03  0.00000000000E+00 0. -1.
          1   -1    0    0  501    0 -0.00000000000E+00 -0.00000000000E+00 -0.97395816599E+03  0.97395816599E+03  0.00000000000E+00 0. -1.
         25    2    1    2    0    0 -0.12844717614E+01 -0.40520806804E+02  0.30145367030E+03  0.32885064343E+03  0.12499937879E+03 0.  0.
          2    1    1    2  501    0  0.22199939225E+02  0.18414046506E+02 -0.95934218304E+03  0.95977567096E+03  0.00000000000E+00 0. -1.
          1    1    1    2  502    0 -0.20915467464E+02  0.22106760297E+02  0.32971752284E+03  0.33111902769E+03  0.00000000000E+00 0. -1.
         22    1    3    3    0    0  0.25183624922E+02  0.23651462061E+02  0.21604654291E+03  0.21879148824E+03  0.00000000000E+00 0. -1.
         22    1    3    3    0    0 -0.26468096683E+02 -0.64172268865E+02  0.85407127393E+02  0.11005915520E+03  0.00000000000E+00 0. -1.
</event>
<event>
 7    1  0.6140348E-006  0.8453757E+02  0.7818608E-02  0.1364714E+00
          2   -1    0    0  502    0  0.00000000000E+00  0.00000000000E+00  0.71911786276E+03  0.71911786276E+03  0.00000000000E+00 0. -1.
          1   -1    0    0  501    0 -0.00000000000E+00 -0.00000000000E+00 -0.91702939105E+02  0.91702939105E+02  0.00000000000E+00 0. -1.
         25    2    1    2    0    0  0.16620322179E+02 -0.97800367723E+02  0.33410634982E+03  0.37025983345E+03  0.12499657691E+03 0.  0.
          2    1    1    2  501    0 -0.58579430063E+02  0.61072745962E+02 -0.46260282579E+02  0.96443992401E+02  0.00000000000E+00 0. -1.
          1    1    1    2  502    0  0.41959107884E+02  0.36727621761E+02  0.33956885641E+03  0.34411697601E+03  0.00000000000E+00 0. -1.
         22    1    3    3    0    0 -0.40746479359E+02 -0.11703310903E+02  0.39227992688E+02  0.57758795664E+02  0.00000000000E+00 0.  1.
         22    1    3    3    0    0  0.57366801539E+02 -0.86097056821E+02  0.29487835714E+03  0.31250103779E+03  0.00000000000E+00 0.  1.
</event>
<event>
 7    1  0.6140348E-006  0.1149324E+03  0.7818608E-02  0.1418201E+00
          2   -1    0    0  502    0  0.00000000000E+00  0.00000000000E+00  0.21653884127E+04  0.21653884127E+04  0.00000000000E+00 0. -1.
          1   -1    0    0  501    0 -0.00000000000E+00 -0.00000000000E+00 -0.61421178085E+03  0.61421178085E+03  0.00000000000E+00 0. -1.
         25    2    1    2    0    0  0.14935174789E+02  0.12889133216E+03 -0.13019124585E+03  0.22228299337E+03  0.12499573471E+03 0.  0.
          2    1    1    2  501    0 -0.22541563750E+02 -0.14323303064E+02 -0.43601060113E+03  0.43682779605E+03  0.00000000000E+00 0. -1.
          1    1    1    2  502    0  0.76063889619E+01 -0.11456802910E+03  0.21173784788E+04  0.21204894041E+04  0.00000000000E+00 0. -1.
         22    1    3    3    0    0  0.33022010230E+02  0.42792829817E+02  0.11724429895E+02  0.55309508222E+02  0.00000000000E+00 0. -1.
         22    1    3    3    0    0 -0.18086835441E+02  0.86098502345E+02 -0.14191567574E+03  0.16697348515E+03  0.00000000000E+00 0. -1.
</event>
<event>
 7    1  0.6140348E-006  0.1005372E+03  0.7818608E-02  0.1290261E+00
          2   -1    0    0  502    0  0.00000000000E+00  0.00000000000E+00  0.15753977848E+04  0.15753977848E+04  0.00000000000E+00 0. -1.
          1   -1    0    0  501    0 -0.00000000000E+00 -0.00000000000E+00 -0.10323274692E+04  0.10323274692E+04  0.00000000000E+00 0. -1.
         25    2    1    2    0    0 -0.41497592517E+02 -0.14829843799E+03  0.11581816343E+03  0.22967921456E+03  0.12499687087E+03 0.  0.
          2    1    1    2  501    0 -0.31679269798E+02  0.94983058164E+02 -0.97135978419E+03  0.97650662456E+03  0.00000000000E+00 0. -1.
          1    1    1    2  502    0  0.73176862315E+02  0.53315379826E+02  0.13986119363E+04  0.14015394149E+04  0.00000000000E+00 0. -1.
         22    1    3    3    0    0 -0.70218178550E+02 -0.29769452478E+02  0.48345277753E+02  0.90299937878E+02  0.00000000000E+00 0. -1.
         22    1    3    3    0    0  0.28720586033E+02 -0.11852898551E+03  0.67472885672E+02  0.13937927669E+03  0.00000000000E+00 0. -1.
</event>
<event>
 7    1  0.6140348E-006  0.4588107E+02  0.7818608E-02  0.1494936E+00
          2   -1    0    0  502    0  0.00000000000E+00  0.00000000000E+00  0.10235286760E+03  0.10235286760E+03  0.00000000000E+00 0. -1.
          1   -1    0    0  501    0 -0.00000000000E+00 -0.00000000000E+00 -0.70357003148E+03  0.70357003148E+03  0.00000000000E+00 0. -1.
         25    2    1    2    0    0  0.14221467911E+02 -0.40685983427E+00 -0.65994317232E+02  0.14206599778E+03  0.12500032853E+03 0.  0.
          2    1    1    2  501    0  0.25084668786E+02 -0.28804460482E+02 -0.58950928400E+03  0.59074540496E+03  0.00000000000E+00 0. -1.
          1    1    1    2  502    0 -0.39306136697E+02  0.29211320316E+02  0.54286437362E+02  0.73111496347E+02  0.00000000000E+00 0. -1.
         22    1    3    3    0    0  0.65716556584E+02 -0.28084941289E+01 -0.61949521957E+02  0.90356497936E+02  0.00000000000E+00 0.  1.
         22    1    3    3    0    0 -0.51495088674E+02  0.24016342946E+01 -0.40447952758E+01  0.51709499839E+02  0.00000000000E+00 0.  1.
</event>
<event>
 7    1  0.6140348E-006  0.1402001E+03  0.7818608E-02  0.1271385E+00
          2   -1    0    0  502    0  0.00000000000E+00  0.00000000000E+00  0.40120336513E+03  0.40120336513E+03  0.00000000000E+00 0. -1.
          1   -1    0    0  501    0 -0.00000000000E+00 -0.00000000000E+00 -0.17769695391E+04  0.17769695391E+04  0.00000000000E+00 0. -1.
         25    2    1    2    0    0  0.18481386499E+03  0.25293623873E+02 -0.77520183767E+03  0.80706815528E+03  0.12500074411E+03 0.  0.
          2    1    1    2  501    0 -0.11523140912E+03 -0.59831859233E+02 -0.97758226369E+03  0.98616692872E+03  0.00000000000E+00 0. -1.
          1    1    1    2  502    0 -0.69582455877E+02  0.34538235359E+02  0.37701792739E+03  0.38493782023E+03  0.00000000000E+00 0. -1.
         22    1    3    3    0    0  0.41322538406E+02 -0.46470070313E+02 -0.26686810343E+03  0.27401752543E+03  0.00000000000E+00 0. -1.
         22    1    3    3    0    0  0.14349132659E+03  0.71763694186E+02 -0.50833373425E+03  0.53305062985E+03  0.00000000000E+00 0. -1.
</event>
<event>
 7    1  0.6140348E-006  0.3921823E+02  0.7818608E-02  0.1524078E+00
          2   -1    0    0  502    0  0.00000000000E+00  0.00000000000E+00  0.27747572293E+03  0.27747572293E+03  0.00000000000E+00 0. -1.
          1   -1    0    0  501    0 -0.00000000000E+00 -0.00000000000E+00 -0.50104791024E+03  0.50104791024E+03  0.00000000000E+00 0. -1.
         25    2    1    2    0    0  0.67205805115E+01  0.48545240893E+02 -0.56957321224E+02  0.14583830495E+03  0.12499147224E+03 0.  0.
          2    1    1    2  501    0 -0.32380639413E+02 -0.22348432292E+02 -0.39722960683E+03  0.39917329417E+03  0.00000000000E+00 0. -1.
          1    1    1    2  502    0  0.25660058901E+02 -0.26196808600E+02  0.23061474074E+03  0.23351203406E+03  0.00000000000E+00 0. -1.
         22    1    3    3    0    0  0.43447435141E+02 -0.17236985506E+02  0.66822642578E+01  0.47217009067E+02  0.00000000000E+00 0. -1.
         22    1    3    3    0    0 -0.36726854629E+02  0.65782226399E+02 -0.63639585482E+02  0.98621295881E+02  0.00000000000E+00 0. -1.
</event>
<event>
 7    1  0.6140348E-006  0.3602351E+02  0.7818608E-02  0.1544787E+00
          2   -1    0    0  502    0  0.00000000000E+00  0.00000000000E+00  0.84603895168E+03  0.84603895168E+03  0.00000000000E+00 0. -1.
          1   -1    0    0  501    0 -0.00000000000E+00 -0.00000000000E+00 -0.12657445217E+02  0.12657445217E+02  0.00000000000E+00 0. -1.
         25    2    1    2    0    0 -0.34520471064E+02  0.10467007062E+02  0.55999511622E+03  0.57490994692E+03  0.12500278284E+03 0.  0.
          2    1    1    2  501    0  0.24277882304E+02  0.26613481882E+02  0.10320577201E+03  0.10931205040E+03  0.00000000000E+00 0. -1.
          1    1    1    2  502    0  0.10242588760E+02 -0.37080488944E+02  0.17018061824E+03  0.17447439958E+03  0.00000000000E+00 0. -1.
         22    1    3    3    0    0  0.46104778517E+02  0.13562553278E+02  0.25065479165E+03  0.25522033233E+03  0.00000000000E+00 0.  1.
         22    1    3    3    0    0 -0.80625249580E+02 -0.30955462168E+01  0.30934032456E+03  0.31968961459E+03  0.00000000000E+00 0.  1.
</event>
<event>
 7    1  0.6140348E-006  0.5948343E+02  0.7818608E-02  0.1473089E+00
          2   -1    0    0  502    0  0.00000000000E+00  0.00000000000E+00  0.61403448955E+03  0.61403448955E+03  0.00000000000E+00 0. -1.
          1   -1    0    0  501    0 -0.00000000000E+00 -0.00000000000E+00 -0.93568012557E+03  0.93568012557E+03  0.00000000000E+00 0. -1.
         25    2    1    2    0    0 -0.67671378063E+02 -0.40752384915E+02 -0.40903154323E+03  0.43493893512E+03  0.12499960656E+03 0.  0.
          2    1    1    2  501    0  0.87112070904E+01  0.33225283803E+02 -0.51164823353E+03  0.51279988249E+03  0.00000000000E+00 0. -1.
          1    1    1    2  502    0  0.58960170972E+02  0.75271011118E+01  0.59903414073E+03  0.60197579750E+03  0.00000000000E+00 0. -1.
         22    1    3    3    0    0 -0.45385480634E+01  0.42636850902E+02 -0.13388897475E+03  0.14058718658E+03  0.00000000000E+00 0. -1.
         22    1    3    3    0    0 -0.63132829999E+02 -0.83389235816E+02 -0.27514256849E+03  0.29435174854E+03  0.00000000000E+00 0. -1.
</event>
<event>
 7    1  0.6140348E-006  0.1249783E+03  0.7818608E-02  0.1327074E+00
          2   -1    0    0  502    0  0.00000000000E+00  0.00000000000E+00  0.11473932688E+03  0.11473932688E+03  0.00000000000E+00 0. -1.
          1   -1    0    0  501    0 -0.00000000000E+00 -0.00000000000E+00 -0.58445427878E+03  0.58445427878E+03  0.00000000000E+00 0. -1.
         25    2    1    2    0    0 -0.90448953231E+02 -0.49961221493E+02 -0.15274689482E+03  0.22278722010E+03  0.12500157906E+03 0.  0.
          2    1    1    2  501    0  0.45513782960E+01 -0.51911026158E+02 -0.33757160213E+03  0.34156998733E+03  0.00000000000E+00 0. -1.
          1    1    1    2  502    0  0.85897574935E+02  0.10187224765E+03  0.20603545048E+02  0.13483639824E+03  0.00000000000E+00 0. -1.
         22    1    3    3    0    0 -0.41278980098E+02  0.39994877970E+02 -0.37935003213E+02  0.68866602432E+02  0.00000000000E+00 0.  1.
         22    1    3    3    0    0 -0.49169973133E+02 -0.89956099463E+02 -0.11481189161E+03  0.15392061767E+03  0.00000000000E+00 0.  1.
</event>
<event>
 7    1  0.6140348E-006  0.5437722E+02  0.7818608E-02  0.1511442E+00
          2   -1    0    0  502    0  0.00000000000E+00  0.00000000000E+00  0.18511413886E+03  0.18511413886E+03  0.00000000000E+00 0. -1.
          1   -1    0    0  501    0 -0.00000000000E+00 -0.00000000000E+00 -0.10425407885E+04  0.10425407885E+04  0.00000000000E+00 0. -1.
         25    2    1    2    0    0 -0.25633898291E+02 -0.36895385790E+02 -0.39100183847E+03  0.41294895469E+03  0.12500414097E+03 0.  0.
          2    1    1    2  501    0  0.40468399155E+01  0.55939418430E+02 -0.63813729963E+03  0.64059722808E+03  0.00000000000E+00 0. -1.
          1    1    1    2  502    0  0.21587058376E+02 -0.19044032640E+02  0.17171248843E+03  0.17410874462E+03  0.00000000000E+00 0. -1.
         22    1    3    3    0    0 -0.25535909083E+02  0.39569304346E+02 -0.22921028553E+03  0.23399822113E+03  0.00000000000E+00 0. -1.
         22    1    3    3    0    0 -0.97989208400E-01 -0.76464690136E+02 -0.16179155294E+03  0.17895073357E+03  0.00000000000E+00 0. -1.
</event>
<event>
 7    1  0.6140348E-006  0.6924427E+02  0.7818608E-02  0.1402212E+00
          2   -1    0    0  502    0  0.00000000000E+00  0.00000000000E+00  0.17407023699E+04  0.17407023699E+04  0.00000000000E+00 0. -1.
          1   -1    0    0  501    0 -0.00000000000E+00 -0.00000000000E+00 -0.53347034932E+02  0.53347034932E+02  0.00000000000E+00 0. -1.
         25    2    1    2    0    0 -0.61520693658E+02 -0.63668090383E+02  0.40851975816E+03  0.43629347313E+03  0.12500072165E+03 0.  0.
          2    1    1    2  501    0 -0.60037997953E+01  0.49857712717E+02 -0.22192857804E+02  0.54903188130E+02  0.00000000000E+00 0. -1.
          1    1    1    2  502    0  0.67524493454E+02  0.13810377665E+02  0.13010284346E+04  0.13028527435E+04  0.00000000000E+00 0. -1.
         22    1    3    3    0    0  0.26820503039E+02  0.18457779171E+02  0.87684143879E+02  0.93533620068E+02  0.00000000000E+00 0.  1.
         22    1    3    3    0    0 -0.88341196697E+02 -0.82125869554E+02  0.32083561428E+03  0.34275985307E+03  0.00000000000E+00 0.  1.
</event>
<event>
 7    1  0.6140348E-006  0.5369003E+02  0.7818608E-02  0.1426929E+00
          2   -1    0    0  502    0  0.00000000000E+00  0.00000000000E+00  0.16364969253E+03  0.16364969253E+03  0.00000000000E+00 0. -1.
          1   -1    0    0  501    0 -0.00000000000E+00 -0.00000000000E+00 -0.93434107528E+03  0.93434107528E+03  0.00000000000E+00 0. -1.
         25    2    1    2    0    0 -0.20584291989E+02 -0.65616042397E+01 -0.55789449711E+03  0.57213462992E+03  0.12499998850E+03 0.  0.
          2    1    1    2  501    0  0.67207607777E+02 -0.20063313212E+02 -0.36124821481E+03  0.36799411922E+03  0.00000000000E+00 0. -1.
          1    1    1    2  502    0 -0.46623315788E+02  0.26624917451E+02  0.14845132917E+03  0.15786201866E+03  0.00000000000E+00 0. -1.
         22    1    3    3    0    0  0.34664404817E+02  0.41166176142E+02 -0.24258229835E+03  0.24848027385E+03  0.00000000000E+00 0.  1.
         22    1    3    3    0    0 -0.55248696806E+02 -0.47727780382E+02 -0.31531219876E+03  0.32365435607E+03  0.00000000000E+00 0.  1.
</event>
<event>
 7    1  0.6140348E-006  0.7682955E+02  0.7818608E-02  0.1343686E+00
          2   -1    0    0  502    0  0.00000000000E+00  0.00000000000E+00  0.64100054892E+03  0.64100054892E+03  0.00000000000E+00 0. -1.
          1   -1    0    0  501    0 -0.00000000000E+00 -0.00000000000E+00 -0.53505630399E+03  0.53505630399E+03  0.00000000000E+00 0. -1.
         25    2    1    2    0    0 -0.54556825892E+02  0.70375504623E+02 -0.28112316645E+03  0.32028930202E+03  0.12500337345E+03 0.  0.
          2    1    1    2  501    0  0.77402818192E+02  0.29787034021E+01 -0.22548339802E+03  0.23841734777E+03  0.00000000000E+00 0. -1.
          1    1    1    2  502    0 -0.22845992301E+02 -0.73354208026E+02  0.61255080939E+03  0.61735020311E+03  0.00000000000E+00 0. -1.
         22    1    3    3    0    0  0.24365470215E+02  0.52123252575E+02 -0.18925619933E+03  0.19780904576E+03  0.00000000000E+00 0.  1.
         22    1    3    3    0    0 -0.78922296106E+02  0.18252252048E+02 -0.91866967117E+02  0.12248025627E+03  0.00000000000E+00 0.  1.
</event>
<event>
 7    1  0.6140348E-006  0.1266112E+03  0.7818608E-02  0.1243811E+00
          2   -1    0    0  502    0  0.00000000000E+00  0.00000000000E+00  0.41871924763E+03  0.41871924763E+03  0.00000000000E+00 0. -1.
          1   -1    0    0  501    0 -0.00000000000E+00 -0.00000000000E+00 -0.20045961304E+03  0.20045961304E+03  0.00000000000E+00 0. -1.
         25    2    1    2    0    0 -0.67950663143E+01 -0.12219451550E+03  0.14837268495E+02  0.17554137669E+03  0.12496782727E+03 0.  0.
          2    1    1    2  501    0 -0.10385972221E+03  0.44310104389E+02 -0.73978343646E+02  0.13499267601E+03  0.00000000000E+00 0. -1.
          1    1    1    2  502    0  0.11065478853E+03  0.77884411108E+02  0.27740070974E+03  0.30864480796E+03  0.00000000000E+00 0. -1.
         22    1    3    3    0    0 -0.49970665266E+02 -0.12099853227E+03  0.38226084455E+01  0.13096688335E+03  0.00000000000E+00 0.  1.
         22    1    3    3    0    0  0.43175598952E+02 -0.11959832225E+01  0.11014660049E+02  0.44574493342E+02  0.00000000000E+00 0.  1.
</event>
<event>
 7    1  0.6140348E-006  0.7442019E+02  0.7818608E-02  0.1441841E+00
          2   -1    0    0  502    0  0.00000000000E+00  0.00000000000E+00  0.89130162428E+02  0.89130162428E+02  0.00000000000E+00 0. -1.
          1   -1    0    0  501    0 -0.00000000000E+00 -0.00000000000E+00 -0.76349518998E+03  0.76349518998E+03  0.00000000000E+00 0. -1.
         25    2    1    2    0    0 -0.10049350062E+03  0.19527082089E+02 -0.36123259582E+03  0.39571974443E+03  0.12499950897E+03 0.  0.
          2    1    1    2  501    0  0.66058923484E+02 -0.21269810111E+02 -0.37753178445E+03  0.38385731003E+03  0.00000000000E+00 0. -1.
          1    1    1    2  502    0  0.34434577140E+02  0.17427280218E+01  0.64399352717E+02  0.73048297955E+02  0.00000000000E+00 0. -1.
         22    1    3    3    0    0 -0.81163265127E+02 -0.14222075478E+02 -0.91242978622E+02  0.12294317462E+03  0.00000000000E+00 0.  1.
         22    1    3    3    0    0 -0.19330235497E+02  0.33749157567E+02 -0.26998961720E+03  0.27277656981E+03  0.00000000000E+00 0.  1.
</event>
<event>
 7    1  0.6140348E-006  0.7417650E+02  0.7818608E-02  0.1405605E+00
          2   -1    0    0  502    0  0.00000000000E+00  0.00000000000E+00  0.22889652407E+03  0.22889652407E+03  0.00000000000E+00 0. -1.
          1   -1    0    0  501    0 -0.00000000000E+00 -0.00000000000E+00 -0.83029570179E+03  0.83029570179E+03  0.00000000000E+00 0. -1.
         25    2    1    2    0    0  0.54097496315E+02 -0.61171691362E+02 -0.61611460436E+03  0.63395114417E+03  0.12501332951E+03 0.  0.
          2    1    1    2  501    0  0.17646887945E+02  0.42093352632E+02 -0.19630582714E+03  0.20154215628E+03  0.00000000000E+00 0. -1.
          1    1    1    2  502    0 -0.71744384261E+02  0.19078338730E+02  0.21102125378E+03  0.22369892541E+03  0.00000000000E+00 0. -1.
         22    1    3    3    0    0  0.35406939728E+01  0.27316392205E+02 -0.31202557732E+03  0.31323901848E+03  0.00000000000E+00 0.  1.
         22    1    3    3    0    0  0.50556802343E+02 -0.88488083567E+02 -0.30408902704E+03  0.32071212569E+03  0.00000000000E+00 0.  1.
</event>
<event>
 7    1  0.6140348E-006  0.7283968E+02  0.7818608E-02  0.1389804E+00
          2   -1    0    0  502    0  0.00000000000E+00  0.00000000000E+00  0.26096781542E+04  0.26096781542E+04  0.00000000000E+00 0. -1.
          1   -1    0    0  501    0 -0.00000000000E+00 -0.00000000000E+00 -0.35365466005E+02  0.35365466005E+02  0.00000000000E+00 0. -1.
         25    2    1    2    0    0 -0.19929034782E+02  0.71402094037E+02  0.10597752921E+04  0.10696934289E+04  0.12499974651E+03 0.  0.
          2    1    1    2  501    0 -0.43310462184E+02 -0.30020860338E+02 -0.59078444454E+01  0.53027830580E+02  0.00000000000E+00 0. -1.
          1    1    1    2  502    0  0.63239496966E+02 -0.41381233698E+02  0.15204452406E+04  0.15223223608E+04  0.00000000000E+00 0. -1.
         22    1    3    3    0    0 -0.53133080167E+02 -0.98163226562E+01  0.52430650777E+03  0.52708329369E+03  0.00000000000E+00 0. -1.
         22    1    3    3    0    0  0.33204045385E+02  0.81218416693E+02  0.53546878429E+03  0.54261013517E+03  0.00000000000E+00 0. -1.
</event>
<event>
 7    1  0.6140348E-006  0.1139669E+03  0.7818608E-02  0.1272844E+00
          2   -1    0    0  502    0  0.00000000000E+00  0.00000000000E+00  0.78805304230E+03  0.78805304230E+03  0.00000000000E+00 0. -1.
          1   -1    0    0  501    0 -0.00000000000E+00 -0.00000000000E+00 -0.56736529357E+03  0.56736529357E+03  0.00000000000E+00 0. -1.
         25    2    1    2    0    0  0.11710335965E+03  0.83901836132E+02 -0.35038272433E+03  0.39893029784E+03  0.12499845628E+03 0.  0.
          2    1    1    2  501    0 -0.35477833064E+01 -0.94162965310E+02 -0.17660363305E+03  0.20017016264E+03  0.00000000000E+00 0. -1.
          1    1    1    2  502    0 -0.11355557635E+03  0.10261129179E+02  0.74767410611E+03  0.75631787540E+03  0.00000000000E+00 0. -1.
         22    1    3    3    0    0  0.61462575650E+02  0.10432478311E+03 -0.16749590602E+03  0.20667894694E+03  0.00000000000E+00 0.  1.
         22    1    3    3    0    0  0.55640784003E+02 -0.20422946974E+02 -0.18288681832E+03  0.19225135090E+03  0.00000000000E+00 0.  1.
</event>
<event>
 7    1  0.6140348E-006  0.8290891E+02  0.7818608E-02  0.1324560E+00
          2   -1    0    0  502    0  0.00000000000E+00  0.00000000000E+00  0.73092716114E+03  0.73092716114E+03  0.00000000000E+00 0. -1.
          1   -1    0    0  501    0 -0.00000000000E+00 -0.00000000000E+00 -0.28366501990E+03  0.28366501990E+03  0.00000000000E+00 0. -1.
         25    2    1    2    0    0  0.12655984952E+03 -0.82548624695E+02  0.27476281492E+03  0.33756811775E+03  0.12500383477E+03 0.  0.
          2    1    1    2  501    0 -0.47951622817E+02  0.66055246468E+02 -0.24169901479E+03  0.25510991253E+03  0.00000000000E+00 0. -1.
          1    1    1    2  502    0 -0.78608226707E+02  0.16493378227E+02  0.41419834112E+03  0.42191415077E+03  0.00000000000E+00 0. -1.
         22    1    3    3    0    0  0.15055787945E+03 -0.83032136128E+02  0.24550156360E+03  0.29972158485E+03  0.00000000000E+00 0. -1.
         22    1    3    3    0    0 -0.23998029929E+02  0.48351143246E+00  0.29261251319E+02  0.37846532899E+02  0.00000000000E+00 0. -1.
</event>
<event>
 7    1  0.6140348E-006  0.8240552E+02  0.7818608E-02  0.1351885E+00
          2   -1    0    0  502    0  0.00000000000E+00  0.00000000000E+00  0.25347426790E+02  0.25347426790E+02  0.00000000000E+00 0. -1.
          1   -1    0    0  501    0 -0.00000000000E+00 -0.00000000000E+00 -0.27275567389E+04  0.27275567389E+04  0.00000000000E+00 0. -1.
         25    2    1    2    0    0  0.37639501228E+02 -0.11620574280E+02 -0.86166259133E+03  0.87157234966E+03  0.12499667835E+03 0.  0.
          2    1    1    2  501    0  0.95832200590E+01 -0.63010084597E+02 -0.17619631521E+04  0.17631154977E+04  0.00000000000E+00 0. -1.
          1    1    1    2  502    0 -0.47222721287E+02  0.74630658877E+02 -0.78583568647E+02  0.11821631830E+03  0.00000000000E+00 0. -1.
         22    1    3    3    0    0 -0.17898810923E+02 -0.55631762107E+02 -0.31979684906E+03  0.32509273301E+03  0.00000000000E+00 0.  1.
         22    1    3    3    0    0  0.55538312150E+02  0.44011187827E+02 -0.54186574227E+03  0.54647961665E+03  0.00000000000E+00 0.  1.
</event>
<event>
 7    1  0.6140348E-006  0.1987996E+03  0.7818608E-02  0.1169078E+00
          2   -1    0    0  502    0  0.00000000000E+00  0.00000000000E+00  0.10456082346E+04  0.10456082346E+04  0.00000000000E+00 0. -1.
          1   -1    0    0  501    0 -0.00000000000E+00 -0.00000000000E+00 -0.10590584315E+04  0.10590584315E+04  0.00000000000E+00 0. -1.
         25    2    1    2    0    0 -0.14609214010E+03 -0.13331809214E+03 -0.13863056390E+03  0.27194553531E+03  0.12497725327E+03 0.  0.
          2    1    1    2  501    0  0.14519522449E+03 -0.68663250328E+02 -0.83562202849E+03  0.85091742823E+03  0.00000000000E+00 0. -1.
          1    1    1    2  502    0  0.89691560612E+00  0.20198134246E+03  0.96080239551E+03  0.98180370257E+03  0.00000000000E+00 0. -1.
         22    1    3    3    0    0 -0.16311125830E+03 -0.13937685924E+03 -0.13509132591E+03  0.25353669914E+03  0.00000000000E+00 0. -1.
         22    1    3    3    0    0  0.17019118202E+02  0.60587671081E+01 -0.35392379962E+01  0.18408836162E+02  0.00000000000E+00 0. -1.
</event>
<event>
 7    1  0.6140348E-006  0.1525279E+03  0.7818608E-02  0.1398172E+00
          2   -1    0    0  502    0  0.00000000000E+00  0.00000000000E+00  0.29586635387E+04  0.29586635387E+04  0.00000000000E+00 0. -1.
          1   -1    0    0  501    0 -0.00000000000E+00 -0.00000000000E+00 -0.16238939102E+03  0.16238939102E+03  0.00000000000E+00 0. -1.
         25    2    1    2    0    0  0.51607273250E+02  0.13607716024E+03  0.11783777250E+04  0.11938924989E+04  0.12499972823E+03 0.  0.
          2    1    1    2  501    0 -0.17133525414E+02  0.16140083453E+02 -0.15027852818E+03  0.15211080178E+03  0.00000000000E+00 0. -1.
          1    1    1    2  502    0 -0.34473747837E+02 -0.15221724369E+03  0.17681749509E+04  0.17750496290E+04  0.00000000000E+00 0. -1.
         22    1    3    3    0    0 -0.44337364803E+01  0.11699406886E+03  0.97709399631E+03  0.98408330328E+03  0.00000000000E+00 0.  1.
         22    1    3    3    0    0  0.56041009731E+02  0.19083091376E+02  0.20128372866E+03  0.20980919563E+03  0.00000000000E+00 0.  1.
</event>
<event>
 7    1  0.6140348E-006  0.8045519E+02  0.7818608E-02  0.1354142E+00
          2   -1    0    0  502    0  0.00000000000E+00  0.00000000000E+00  0.20091204534E+04  0.20091204534E+04  0.00000000000E+00 0. -1.
          1   -1    0    0  501    0 -0.00000000000E+00 -0.00000000000E+00 -0.25701673390E+02  0.25701673390E+02  0.00000000000E+00 0. -1.
         25    2    1    2    0    0 -0.53545567248E+02 -0.30836498796E+02  0.55731486927E+03  0.57449374524E+03  0.12500072951E+03 0.  0.
          2    1    1    2  501    0  0.35206779559E+02 -0.53494868969E+02  0.49291523319E+02  0.80813814438E+02  0.00000000000E+00 0. -1.
          1    1    1    2  502    0  0.18338787689E+02  0.84331367764E+02  0.13768123874E+04  0.13795145671E+04  0.00000000000E+00 0. -1.
         22    1    3    3    0    0 -0.33488236880E+02  0.41530414274E+02  0.34905386786E+03  0.35310740574E+03  0.00000000000E+00 0. -1.
         22    1    3    3    0    0 -0.20057330368E+02 -0.72366913069E+02  0.20826100141E+03  0.22138633950E+03  0.00000000000E+00 0. -1.
</event>
<event>
 7    1  0.6140348E-006  0.8145112E+02  0.7818608E-02  0.1421815E+00
          2   -1    0    0  502    0  0.00000000000E+00  0.00000000000E+00  0.86965625480E+03  0.86965625480E+03  0.00000000000E+00 0. -1.
          1   -1    0    0  501    0 -0.00000000000E+00 -0.00000000000E+00 -0.45876154733E+03  0.45876154733E+03  0.00000000000E+00 0. -1.
         25    2    1    2    0    0  0.79423352054E+02  0.68896925839E+02 -0.97490155975E+02  0.19022561482E+03  0.12500639496E+03 0.  0.
          2    1    1    2  501    0 -0.72116251235E+02 -0.32980158344E+02 -0.30949435913E+03  0.31949210142E+03  0.00000000000E+00 0. -1.
          1    1    1    2  502    0 -0.73071008188E+01 -0.35916767495E+02  0.81787922257E+03  0.81870008589E+03  0.00000000000E+00 0. -1.
         22    1    3    3    0    0 -0.16173599605E+02 -0.18855211130E+02 -0.42629597163E+02  0.49339506131E+02  0.00000000000E+00 0. -1.
         22    1    3    3    0    0  0.95596951659E+02  0.87752136969E+02 -0.54860558812E+02  0.14088610869E+03  0.00000000000E+00 0. -1.
</event>
<event>
 7    1  0.6140348E-006  0.7608878E+02  0.7818608E-02  0.1438045E+00
          2   -1    0    0  502    0  0.00000000000E+00  0.00000000000E+00  0.96805984768E+03  0.96805984768E+03  0.00000000000E+00 0. -1.
          1   -1    0    0  501    0 -0.00000000000E+00 -0.00000000000E+00 -0.10942659989E+03  0.10942659989E+03  0.00000000000E+00 0. -1.
         25    2    1    2    0    0  0.54091353222E+02  0.49135073491E+02  0.25726625955E+03  0.29521352221E+03  0.12499986180E+03 0.  0.
          2    1    1    2  501    0 -0.26109506188E+02  0.22845013971E+02 -0.84878868408E+02  0.91695274028E+02  0.00000000000E+00 0. -1.
          1    1    1    2  502    0 -0.27981847034E+02 -0.71980087462E+02  0.68624585664E+03  0.69057765133E+03  0.00000000000E+00 0. -1.
         22    1    3    3    0    0  0.42208907782E+02 -0.31639060729E+02  0.50983500607E+02  0.73361702503E+02  0.00000000000E+00 0.  1.
         22    1    3    3    0    0  0.11882445440E+02  0.80774134220E+02  0.20628275895E+03  0.22185181971E+03  0.00000000000E+00 0.  1.
</event>
<event>
 7    1  0.6598875E-006  0.7536618E+02  0.7818608E-02  0.1374768E+00
          2   -1    0    0  502    0  0.00000000000E+00  0.00000000000E+00  0.15477319734E+04  0.15477319734E+04  0.00000000000E+00 0. -1.
          1   -1    0    0  501    0 -0.00000000000E+00 -0.00000000000E+00 -0.56618643913E+03  0.56618643913E+03  0.00000000000E+00 0. -1.
         25    2    1    2    0    0 -0.46234097884E+02 -0.10906679668E+03 -0.20875166626E+03  0.27062055435E+03  0.12500027330E+03 0.  0.
          2    1    1    2  501    0 -0.80595135001E+01  0.56984548557E+02 -0.32302240252E+03  0.32810923038E+03  0.00000000000E+00 0. -1.
          1    1    1    2  502    0  0.54293611384E+02  0.52082248123E+02  0.15133196031E+04  0.15151886278E+04  0.00000000000E+00 0. -1.
         22    1    3    3    0    0 -0.20204634600E+02 -0.72573180519E+02 -0.21877778267E+02  0.78445719908E+02  0.00000000000E+00 0. -1.
         22    1    3    3    0    0 -0.26029463284E+02 -0.36493616161E+02 -0.18687388799E+03  0.19217483444E+03  0.00000000000E+00 0. -1.
</event>
<event>
 7    1  0.6140348E-006  0.8877184E+02  0.7818608E-02  0.1414514E+00
          2   -1    0    0  502    0  0.00000000000E+00  0.00000000000E+00  0.19039999756E+04  0.19039999756E+04  0.00000000000E+00 0. -1.
          1   -1    0    0  501    0 -0.00000000000E+00 -0.00000000000E+00 -0.37551992829E+03  0.37551992829E+03  0.00000000000E+00 0. -1.
         25    2    1    2    0    0  0.68554705970E+02  0.63104942864E+01  0.20128231179E+03  0.24673540442E+03  0.12499688278E+03 0.  0.
          2    1    1    2  501    0  0.12285592491E+02  0.33389100615E+02 -0.35068566088E+03  0.35248574520E+03  0.00000000000E+00 0. -1.
          1    1    1    2  502    0 -0.80840298462E+02 -0.39699594902E+02  0.16778833964E+04  0.16802987543E+04  0.00000000000E+00 0. -1.
         22    1    3    3    0    0  0.28387779289E+02 -0.58937719137E+02  0.80934355078E+02  0.10406676022E+03  0.00000000000E+00 0. -1.
         22    1    3    3    0    0  0.40166926681E+02  0.65248213423E+02  0.12034795671E+03  0.14266864420E+03  0.00000000000E+00 0. -1.
</event>
<event>
 7    1  0.6140348E-006  0.2009086E+03  0.7818608E-02  0.1229680E+00
          2   -1    0    0  502    0  0.00000000000E+00  0.00000000000E+00  0.16298988523E+04  0.16298988523E+04  0.00000000000E+00 0. -1.
          1   -1    0    0  501    0 -0.00000000000E+00 -0.00000000000E+00 -0.39459021962E+03  0.39459021962E+03  0.00000000000E+00 0. -1.
         25    2    1    2    0    0 -0.16447128563E+03  0.12459286995E+03 -0.11011556086E+03  0.26518923611E+03  0.12500282863E+03 0.  0.
          2    1    1    2  501    0  0.19784599357E+03 -0.49469354564E+02 -0.15529348982E+03  0.25633244468E+03  0.00000000000E+00 0. -1.
          1    1    1    2  502    0 -0.33374707940E+02 -0.75123515388E+02  0.15007176834E+04  0.15029673912E+04  0.00000000000E+00 0. -1.
         22    1    3    3    0    0 -0.64381910937E+02  0.10791239578E+03 -0.15786472375E+02  0.12664646986E+03  0.00000000000E+00 0.  1.
         22    1    3    3    0    0 -0.10008937469E+03  0.16680474173E+02 -0.94329088483E+02  0.13854276624E+03  0.00000000000E+00 0.  1.
</event>
<event>
 7    1  0.6140348E-006  0.6496120E+02  0.7818608E-02  0.1416967E+00
          2   -1    0    0  502    0  0.00000000000E+00  0.00000000000E+00  0.22783093341E+03  0.22783093341E+03  0.00000000000E+00 0. -1.
          1   -1    0    0  501    0 -0.00000000000E+00 -0.00000000000E+00 -0.31506967754E+03  0.31506967754E+03  0.00000000000E+00 0. -1.
         25    2    1    2    0    0 -0.10221616070E+03 -0.41890480681E+02 -0.69836408002E+02  0.18084674032E+03  0.12500185487E+03 0.  0.
          2    1    1    2  501    0  0.44898737117E+02  0.16116726349E+02 -0.18079985161E+03  0.18698725038E+03  0.00000000000E+00 0. -1.
          1    1    1    2  502    0  0.57317423582E+02  0.25773754332E+02  0.16339751548E+03  0.17506662025E+03  0.00000000000E+00 0. -1.
         22    1    3    3    0    0 -0.23755165206E+02  0.24276161905E+02  0.24152824087E+02  0.41677317838E+02  0.00000000000E+00 0.  1.
         22    1    3    3    0    0 -0.78460995492E+02 -0.66166642586E+02 -0.93989232089E+02  0.13916942248E+03  0.00000000000E+00 0.  1.
</event>
<event>
 7    1  0.6140348E-006  0.1177020E+03  0.7818608E-02  0.1263065E+00
          2   -1    0    0  502    0  0.00000000000E+00  0.00000000000E+00  0.27178313800E+03  0.27178313800E+03  0.00000000000E+00 0. -1.
          1   -1    0    0  501    0 -0.00000000000E+00 -0.00000000000E+00 -0.21410335847E+03  0.21410335847E+03  0.00000000000E+00 0. -1.
         25    2    1    2    0    0 -0.90891439842E+02 -0.76879401885E+02  0.56836354135E+02  0.18173403436E+03  0.12500076729E+03 0.  0.
          2    1    1    2  501    0  0.84613226099E+02 -0.53893326899E+02 -0.97895962060E+02  0.14016956910E+03  0.00000000000E+00 0. -1.
          1    1    1    2  502    0  0.62782137429E+01  0.13077272878E+03  0.98739387454E+02  0.16398289300E+03  0.00000000000E+00 0. -1.
         22    1    3    3    0    0  0.14776797401E+02 -0.28451192147E+02  0.57113732828E+02  0.65496584289E+02  0.00000000000E+00 0. -1.
         22    1    3    3    0    0 -0.10566823724E+03 -0.48428209738E+02 -0.27737869249E+00  0.11623745007E+03  0.00000000000E+00 0. -1.
</event>
<event>
 7    1  0.6140348E-006  0.9102004E+02  0.7818608E-02  0.1368345E+00
          2   -1    0    0  502    0  0.00000000000E+00  0.00000000000E+00  0.10958562727E+04  0.10958562727E+04  0.00000000000E+00 0. -1.
          1   -1    0    0  501    0 -0.00000000000E+00 -0.00000000000E+00 -0.98830016770E+02  0.98830016770E+02  0.00000000000E+00 0. -1.
         25    2    1    2    0    0  0.10885202702E+03  0.62040492231E+02  0.29099725121E+03  0.34058840612E+03  0.12499310265E+03 0.  0.
          2    1    1    2  501    0 -0.22400957804E+02 -0.44980389382E+02 -0.62690778627E+02  0.80344085434E+02  0.00000000000E+00 0. -1.
          1    1    1    2  502    0 -0.86451069217E+02 -0.17060102849E+02  0.76871978338E+03  0.77375379795E+03  0.00000000000E+00 0. -1.
         22    1    3    3    0    0  0.13563082394E+03  0.37745784802E+02  0.23424211783E+03  0.27329440982E+03  0.00000000000E+00 0. -1.
         22    1    3    3    0    0 -0.26778796918E+02  0.24294707429E+02  0.56755133380E+02  0.67293996303E+02  0.00000000000E+00 0. -1.
</event>
<event>
 7    1  0.6140348E-006  0.9124412E+02  0.7818608E-02  0.1326116E+00
          2   -1    0    0  502    0  0.00000000000E+00  0.00000000000E+00  0.90093379230E+03  0.90093379230E+03  0.00000000000E+00 0. -1.
          1   -1    0    0  501    0 -0.00000000000E+00 -0.00000000000E+00 -0.10601687565E+04  0.10601687565E+04  0.00000000000E+00 0. -1.
         25    2    1    2    0    0  0.15285644604E+03 -0.38313619478E+02  0.15213881899E+03  0.25219965260E+03  0.12500167196E+03 0.  0.
          2    1    1    2  501    0 -0.80915503780E+02  0.40787221036E+02 -0.10062431991E+04  0.10103149469E+04  0.00000000000E+00 0. -1.
          1    1    1    2  502    0 -0.71940942258E+02 -0.24736015585E+01  0.69486941587E+03  0.69858794936E+03  0.00000000000E+00 0. -1.
         22    1    3    3    0    0  0.15951135492E+03 -0.60812710556E+02  0.15224467014E+03  0.22873674323E+03  0.00000000000E+00 0. -1.
         22    1    3    3    0    0 -0.66549088867E+01  0.22499091078E+02 -0.10585115487E+00  0.23462909370E+02  0.00000000000E+00 0. -1.
</event>
<event>
 7    1  0.6140348E-006  0.4740924E+02  0.7818608E-02  0.1497882E+00
          2   -1    0    0  502    0  0.00000000000E+00  0.00000000000E+00  0.10159052197E+04  0.10159052197E+04  0.00000000000E+00 0. -1.
          1   -1    0    0  501    0 -0.00000000000E+00 -0.00000000000E+00 -0.33840905317E+03  0.33840905317E+03  0.00000000000E+00 0. -1.
         25    2    1    2    0    0  0.17508126399E+02 -0.78213743199E+02 -0.25141176063E+03  0.29198540135E+03  0.12499470830E+03 0.  0.
          2    1    1    2  501    0 -0.18916098674E+02  0.30888439396E+02 -0.61186275292E+02  0.71103268290E+02  0.00000000000E+00 0. -1.
          1    1    1    2  502    0  0.14079722751E+01  0.47325303803E+02  0.99009420245E+03  0.99122560322E+03  0.00000000000E+00 0. -1.
         22    1    3    3    0    0 -0.38448431552E+02 -0.34727644075E+02 -0.30807146390E+02  0.60277453667E+02  0.00000000000E+00 0. -1.
         22    1    3    3    0    0  0.55956557952E+02 -0.43486099124E+02 -0.22060461424E+03  0.23170794768E+03  0.00000000000E+00 0. -1.
</event>
<event>
 7    1  0.6140348E-006  0.2149879E+03  0.7818608E-02  0.1180273E+00
          2   -1    0    0  502    0  0.00000000000E+00  0.00000000000E+00  0.31404795598E+04  0.31404795598E+04  0.00000000000E+00 0. -1.
          1   -1    0    0  501    0 -0.00000000000E+00 -0.00000000000E+00 -0.10916882662E+03  0.10916882662E+03  0.00000000000E+00 0. -1.
         25    2    1    2    0    0  0.13436934087E+03  0.58108021532E+00  0.68067185430E+03  0.70497631311E+03  0.12498788494E+03 0.  0.
          2    1    1    2  501    0 -0.20791038550E+03 -0.10875613711E+03  0.49478916889E+02  0.23979739151E+03  0.00000000000E+00 0. -1.
          1    1    1    2  502    0  0.73541044626E+02  0.10817505690E+03  0.23011599619E+04  0.23048746818E+04  0.00000000000E+00 0. -1.
         22    1    3    3    0    0  0.59203002601E+02 -0.21857649266E+02  0.94855231613E+02  0.11393097609E+03  0.00000000000E+00 0.  1.
         22    1    3    3    0    0  0.75166338270E+02  0.22438729481E+02  0.58581662269E+03  0.59104533702E+03  0.00000000000E+00 0.  1.
</event>
<event>
 7    1  0.6140348E-006  0.7379872E+02  0.7818608E-02  0.1375512E+00
          2   -1    0    0  502    0  0.00000000000E+00  0.00000000000E+00  0.29085440844E+04  0.29085440844E+04  0.00000000000E+00 0. -1.
          1   -1    0    0  501    0 -0.00000000000E+00 -0.00000000000E+00 -0.22160374679E+03  0.22160374679E+03  0.00000000000E+00 0. -1.
         25    2    1    2    0    0  0.62896185611E+02 -0.81506997709E+02  0.23230239777E+04  0.23286618049E+04  0.12500431965E+03 0.  0.
          2    1    1    2  501    0 -0.69918579767E+02  0.23514528311E+02 -0.21104461115E+03  0.22356513309E+03  0.00000000000E+00 0. -1.
          1    1    1    2  502    0  0.70223941554E+01  0.57992469398E+02  0.57496097102E+03  0.57792089313E+03  0.00000000000E+00 0. -1.
         22    1    3    3    0    0  0.51447439216E+02 -0.34006531496E+02  0.20725105367E+04  0.20734278883E+04  0.00000000000E+00 0. -1.
         22    1    3    3    0    0  0.11448746395E+02 -0.47500466213E+02  0.25051344101E+03  0.25523391666E+03  0.00000000000E+00 0. -1.
</event>
<event>
 7    1  0.6140348E-006  0.2967724E+02  0.7818608E-02  0.1615739E+00
          2   -1    0    0  502    0  0.00000000000E+00  0.00000000000E+00  0.22606551239E+03  0.22606551239E+03  0.00000000000E+00 0. -1.
          1   -1    0    0  501    0 -0.00000000000E+00 -0.00000000000E+00 -0.71934335806E+03  0.71934335806E+03  0.00000000000E+00 0. -1.
         25    2    1    2    0    0  0.10576684254E+02 -0.53434676963E+02 -0.26515444291E+03  0.29815951154E+03  0.12500033910E+03 0.  0.
          2    1    1    2  501    0 -0.12429891350E+02  0.26201097382E+02 -0.43631411179E+03  0.43727680461E+03  0.00000000000E+00 0. -1.
          1    1    1    2  502    0  0.18532070964E+01  0.27233579582E+02  0.20819070903E+03  0.20997255430E+03  0.00000000000E+00 0. -1.
         22    1    3    3    0    0  0.52889419815E+02 -0.77603804712E+01 -0.46621129421E+02  0.70929852262E+02  0.00000000000E+00 0.  1.
         22    1    3    3    0    0 -0.42312735561E+02 -0.45674296492E+02 -0.21853331349E+03  0.22722965928E+03  0.00000000000E+00 0.  1.
</event>
<event>
 7    1  0.6140348E-006  0.9543971E+02  0.7818608E-02  0.1402853E+00
          2   -1    0    0  502    0  0.00000000000E+00  0.00000000000E+00  0.13161514315E+04  0.13161514315E+04  0.00000000000E+00 0. -1.
          1   -1    0    0  501    0 -0.00000000000E+00 -0.00000000000E+00 -0.33625925287E+03  0.33625925287E+03  0.00000000000E+00 0. -1.
         25    2    1    2    0    0 -0.91843977921E+02  0.18608960419E+02  0.34440781840E+03  0.37818293024E+03  0.12499589457E+03 0.  0.
          2    1    1    2  501    0  0.93977403400E+02  0.17578913715E+02 -0.31186198459E+03  0.32618808683E+03  0.00000000000E+00 0. -1.
          1    1    1    2  502    0 -0.21334254792E+01 -0.36187874134E+02  0.94734634484E+03  0.94803966732E+03  0.00000000000E+00 0. -1.
         22    1    3    3    0    0  0.63853155577E+00  0.39932329137E+02  0.30530605540E+02  0.50270433731E+02  0.00000000000E+00 0. -1.
         22    1    3    3    0    0 -0.92482509476E+02 -0.21323368718E+02  0.31387721286E+03  0.32791249651E+03  0.00000000000E+00 0. -1.
</event>
<event>
 7    1  0.6140348E-006  0.6196690E+02  0.7818608E-02  0.1413474E+00
          2   -1    0    0  502    0  0.00000000000E+00  0.00000000000E+00  0.34857899343E+04  0.34857899343E+04  0.00000000000E+00 0. -1.
          1   -1    0    0  501    0 -0.00000000000E+00 -0.00000000000E+00 -0.47528886004E+02  0.47528886004E+02  0.00000000000E+00 0. -1.
         25    2    1    2    0    0  0.71684638601E+02 -0.29519546914E+01  0.21074927164E+03  0.25531853669E+03  0.12499959293E+03 0.  0.
          2    1    1    2  501    0 -0.47141507967E+02 -0.42187580548E+02  0.14920244280E+02  0.64997903161E+02  0.00000000000E+00 0. -1.
          1    1    1    2  502    0 -0.24543130633E+02  0.45139535239E+02  0.32125915323E+04  0.32130023804E+04  0.00000000000E+00 0. -1.
         22    1    3    3    0    0 -0.21640976109E+02  0.33366269950E+02  0.34702056978E+02  0.52781365802E+02  0.00000000000E+00 0.  1.
         22    1    3    3    0    0  0.93325614710E+02 -0.36318224642E+02  0.17604721466E+03  0.20253717089E+03  0.00000000000E+00 0.  1.
</event>
<event>
 7    1  0.6140348E-006  0.6779670E+02  0.7818608E-02  0.1428221E+00
          2   -1    0    0  502    0  0.00000000000E+00  0.00000000000E+00  0.33213115095E+04  0.33213115095E+04  0.00000000000E+00 0. -1.
          1   -1    0    0  501    0 -0.00000000000E+00 -0.00000000000E+00 -0.33521542100E+02  0.33521542100E+02  0.00000000000E+00 0. -1.
         25    2    1    2    0    0 -0.24944957546E+01 -0.49179499469E+02  0.23676704801E+04  0.23714790696E+04  0.12499851855E+03 0.  0.
          2    1    1    2  501    0 -0.19369099696E+02 -0.37190957100E+02 -0.14597367438E+02  0.44400590640E+02  0.00000000000E+00 0. -1.
          1    1    1    2  502    0  0.21863595451E+02  0.86370456570E+02  0.93471685471E+03  0.93895339131E+03  0.00000000000E+00 0. -1.
         22    1    3    3    0    0 -0.24248283657E+02 -0.87012064774E+02  0.15105180956E+04  0.15132164405E+04  0.00000000000E+00 0.  1.
         22    1    3    3    0    0  0.21753787902E+02  0.37832565304E+02  0.85715238453E+03  0.85826262915E+03  0.00000000000E+00 0.  1.
</event>
<event>
 7    1  0.6140348E-006  0.3773892E+02  0.7818608E-02  0.1562510E+00
          2   -1    0    0  502    0  0.00000000000E+00  0.00000000000E+00  0.26050146085E+04  0.26050146085E+04  0.00000000000E+00 0. -1.
          1   -1    0    0  501    0 -0.00000000000E+00 -0.00000000000E+00 -0.20164047103E+03  0.20164047103E+03  0.00000000000E+00 0. -1.
         25    2    1    2    0    0 -0.23041972270E+02 -0.51298480187E+01  0.86024580343E+03  0.86960033921E+03  0.12499863924E+03 0.  0.
          2    1    1    2  501    0  0.29253981270E+02 -0.23918507750E+02 -0.19502274578E+03  0.19864984723E+03  0.00000000000E+00 0. -1.
          1    1    1    2  502    0 -0.62120090000E+01  0.29048355769E+02  0.17381510798E+04  0.17384048931E+04  0.00000000000E+00 0. -1.
         22    1    3    3    0    0  0.43443041103E+02 -0.23587770933E+02  0.52532909697E+03  0.52764982790E+03  0.00000000000E+00 0.  1.
         22    1    3    3    0    0 -0.66485013373E+02  0.18457922914E+02  0.33491670646E+03  0.34195051131E+03  0.00000000000E+00 0.  1.
</event>
<event>
 7    1  0.6140348E-006  0.1636224E+03  0.7818608E-02  0.1283400E+00
          2   -1    0    0  502    0  0.00000000000E+00  0.00000000000E+00  0.15236445158E+04  0.15236445158E+04  0.00000000000E+00 0. -1.
          1   -1    0    0  501    0 -0.00000000000E+00 -0.00000000000E+00 -0.58055083459E+03  0.58055083459E+03  0.00000000000E+00 0. -1.
         25    2    1    2    0    0 -0.87231895519E+02 -0.98086445080E+02 -0.74464530901E+02  0.19595937747E+03  0.12499902781E+03 0.  0.
          2    1    1    2  501    0 -0.56711775405E+02  0.17473328364E+02 -0.43868330524E+03  0.44267887342E+03  0.00000000000E+00 0. -1.
          1    1    1    2  502    0  0.14394367092E+03  0.80613116716E+02  0.14562415173E+04  0.14655570995E+04  0.00000000000E+00 0. -1.
         22    1    3    3    0    0 -0.15541192937E+02  0.21709293763E+02  0.14531447766E+02  0.30397123018E+02  0.00000000000E+00 0. -1.
         22    1    3    3    0    0 -0.71690702582E+02 -0.11979573884E+03 -0.88995978668E+02  0.16556225446E+03  0.00000000000E+00 0. -1.
</event>
<event>
 7    1  0.6140348E-006  0.1089299E+03  0.7818608E-02  0.1349379E+00
          2   -1    0    0  502    0  0.00000000000E+00  0.00000000000E+00  0.18072932174E+03  0.18072932174E+03  0.00000000000E+00 0. -1.
          1   -1    0    0  501    0 -0.00000000000E+00 -0.00000000000E+00 -0.16863305614E+04  0.16863305614E+04  0.00000000000E+00 0. -1.
         25    2    1    2    0    0 -0.44713258008E+02 -0.49019378044E+02 -0.11343054214E+03  0.18136685696E+03  0.12500109619E+03 0.  0.
          2    1    1    2  501    0 -0.30272227237E+02 -0.38855859808E+02 -0.15157373567E+04  0.15165374773E+04  0.00000000000E+00 0. -1.
          1    1    1    2  502    0  0.74985485245E+02  0.87875237852E+02  0.12356665923E+03  0.16915554883E+03  0.00000000000E+00 0. -1.
         22    1    3    3    0    0  0.14959906381E+02 -0.74923743392E+02 -0.58575943061E+02  0.96273086729E+02  0.00000000000E+00 0.  1.
         22    1    3    3    0    0 -0.59673164390E+02  0.25904365348E+02 -0.54854599078E+02  0.85093770232E+02  0.00000000000E+00 0.  1.
</event>
<event>
 7    1  0.6140348E-006  0.2352276E+03  0.7818608E-02  0.1244328E+00
          2   -1    0    0  502    0  0.00000000000E+00  0.00000000000E+00  0.11494634161E+04  0.11494634161E+04  0.00000000000E+00 0. -1.
          1   -1    0    0  501    0 -0.00000000000E+00 -0.00000000000E+00 -0.16981208746E+03  0.16981208746E+03  0.00000000000E+00 0. -1.
         25    2    1    2    0    0  0.20820551944E+03  0.17302417121E+02  0.10354765365E+03  0.26456766693E+03  0.12500008738E+03 0.  0.
          2    1    1    2  501    0  0.30335434488E+02 -0.52300827366E+02 -0.61713861396E+02  0.86395693279E+02  0.00000000000E+00 0. -1.
          1    1    1    2  502    0 -0.23854095393E+03  0.34998410245E+02  0.93781753636E+03  0.96831214333E+03  0.00000000000E+00 0. -1.
         22    1    3    3    0    0  0.48045739164E+02  0.47291167434E+02  0.71932660416E+02  0.98585775869E+02  0.00000000000E+00 0. -1.
         22    1    3    3    0    0  0.16015978027E+03 -0.29988750313E+02  0.31614993235E+02  0.16598189106E+03  0.00000000000E+00 0. -1.
</event>
<event>
 7    1  0.6140348E-006  0.6203929E+02  0.7818608E-02  0.1443616E+00
          2   -1    0    0  502    0  0.00000000000E+00  0.00000000000E+00  0.19704431476E+03  0.19704431476E+03  0.00000000000E+00 0. -1.
          1   -1    0    0  501    0 -0.00000000000E+00 -0.00000000000E+00 -0.55125794568E+03  0.55125794568E+03  0.00000000000E+00 0. -1.
         25    2    1    2    0    0  0.86052601233E+02  0.35929982546E+02 -0.35717414264E+02  0.15998602414E+03  0.12499512157E+03 0.  0.
          2    1    1    2  501    0 -0.45531913372E+02 -0.40836041802E+02 -0.44819378252E+03  0.45234765848E+03  0.00000000000E+00 0. -1.
          1    1    1    2  502    0 -0.40520687861E+02  0.49060592555E+01  0.12969756586E+03  0.13596857781E+03  0.00000000000E+00 0. -1.
         22    1    3    3    0    0  0.10900588050E+03  0.60986509924E+01 -0.16049086857E+01  0.10918814615E+03  0.00000000000E+00 0. -1.
         22    1    3    3    0    0 -0.22953279272E+02  0.29831331554E+02 -0.34112505578E+02  0.50797877991E+02  0.00000000000E+00 0. -1.
</event>
<event>
 7    1  0.6140348E-006  0.1284639E+03  0.7818608E-02  0.1357930E+00
          2   -1    0    0  502    0  0.00000000000E+00  0.00000000000E+00  0.60622266652E+03  0.60622266652E+03  0.00000000000E+00 0. -1.
          1   -1    0    0  501    0 -0.00000000000E+00 -0.00000000000E+00 -0.23780482945E+04  0.23780482945E+04  0.00000000000E+00 0. -1.
         25    2    1    2    0    0 -0.61218890585E+02  0.81768248971E+02 -0.68690042376E+03  0.70561377912E+03  0.12499925603E+03 0.  0.
          2    1    1    2  501    0  0.97524261072E+02 -0.95579974462E+02 -0.16783833871E+04  0.16839291277E+04  0.00000000000E+00 0. -1.
          1    1    1    2  502    0 -0.36305370487E+02  0.13811725491E+02  0.59345818286E+03  0.59472805423E+03  0.00000000000E+00 0. -1.
         22    1    3    3    0    0 -0.43410906210E+02  0.17580509800E+02 -0.64781763655E+02  0.79939089343E+02  0.00000000000E+00 0.  1.
         22    1    3    3    0    0 -0.17807984375E+02  0.64187739172E+02 -0.62211866011E+03  0.62567468977E+03  0.00000000000E+00 0.  1.
</event>
<event>
 7    1  0.6140348E-006  0.1229288E+03  0.7818608E-02  0.1240931E+00
          2   -1    0    0  502    0  0.00000000000E+00  0.00000000000E+00  0.26909357613E+03  0.26909357613E+03  0.00000000000E+00 0. -1.
          1   -1    0    0  501    0 -0.00000000000E+00 -0.00000000000E+00 -0.95549864265E+03  0.95549864265E+03  0.00000000000E+00 0. -1.
         25    2    1    2    0    0  0.31887376846E+02  0.21013477135E+02 -0.40196503561E+02  0.13672881622E+03  0.12498255583E+03 0.  0.
          2    1    1    2  501    0  0.25215498284E+02  0.11705208119E+03 -0.83700645397E+03  0.84552753655E+03  0.00000000000E+00 0. -1.
          1    1    1    2  502    0 -0.57102875130E+02 -0.13806555832E+03  0.19079789101E+03  0.24233586602E+03  0.00000000000E+00 0. -1.
         22    1    3    3    0    0 -0.92805619324E+01  0.37028881345E+02  0.33512249911E+02  0.50797025282E+02  0.00000000000E+00 0.  1.
         22    1    3    3    0    0  0.41167938778E+02 -0.16015404210E+02 -0.73708753471E+02  0.85931790936E+02  0.00000000000E+00 0.  1.
</event>
<event>
 7    1  0.6140348E-006  0.7391321E+02  0.7818608E-02  0.1504448E+00
          2   -1    0    0  502    0  0.00000000000E+00  0.00000000000E+00  0.14626174731E+04  0.14626174731E+04  0.00000000000E+00 0. -1.
          1   -1    0    0  501    0 -0.00000000000E+00 -0.00000000000E+00 -0.95556901995E+02  0.95556901995E+02  0.00000000000E+00 0. -1.
         25    2    1    2    0    0 -0.33928109434E+02 -0.80993809853E+02  0.36072080387E+02  0.15696139868E+03  0.12499828738E+03 0.  0.
          2    1    1    2  501    0  0.16476646312E+02  0.67257355552E+02 -0.78865733906E+00  0.69250658697E+02  0.00000000000E+00 0. -1.
          1    1    1    2  502    0  0.17451463122E+02  0.13736454301E+02  0.13317771481E+04  0.13319623177E+04  0.00000000000E+00 0. -1.
         22    1    3    3    0    0  0.25785440948E+02 -0.47513662100E+02 -0.29993862497E+02  0.61822882807E+02  0.00000000000E+00 0. -1.
         22    1    3    3    0    0 -0.59713550382E+02 -0.33480147753E+02  0.66065942884E+02  0.95138515870E+02  0.00000000000E+00 0. -1.
</event>
<event>
 7    1  0.6140348E-006  0.1482720E+03  0.7818608E-02  0.1345861E+00
          2   -1    0    0  502    0  0.00000000000E+00  0.00000000000E+00  0.44512170644E+03  0.44512170644E+03  0.00000000000E+00 0. -1.
          1   -1    0    0  501    0 -0.00000000000E+00 -0.00000000000E+00 -0.10514934471E+04  0.10514934471E+04  0.00000000000E+00 0. -1.
         25    2    1    2    0    0  0.95322746755E+02 -0.69168433001E+02  0.15237992936E+03  0.22959970728E+03  0.12500273814E+03 0.  0.
          2    1    1    2  501    0 -0.13260721293E+03  0.68356108825E+02 -0.10059839810E+04  0.10169862342E+04  0.00000000000E+00 0. -1.
          1    1    1    2  502    0  0.37284466172E+02  0.81232417616E+00  0.24723231098E+03  0.25002921205E+03  0.00000000000E+00 0. -1.
         22    1    3    3    0    0 -0.11979116656E+02 -0.62914754074E+02  0.62514152207E+02  0.89497400757E+02  0.00000000000E+00 0. -1.
         22    1    3    3    0    0  0.10730186341E+03 -0.62536789274E+01  0.89865777148E+02  0.14010230653E+03  0.00000000000E+00 0. -1.
</event>
<event>
 7    1  0.6140348E-006  0.6688674E+02  0.7818608E-02  0.1395863E+00
          2   -1    0    0  502    0  0.00000000000E+00  0.00000000000E+00  0.55272202376E+03  0.55272202376E+03  0.00000000000E+00 0. -1.
          1   -1    0    0  501    0 -0.00000000000E+00 -0.00000000000E+00 -0.25261060085E+03  0.25261060085E+03  0.00000000000E+00 0. -1.
         25    2    1    2    0    0 -0.33118989053E+02  0.61082521604E+02  0.36651039111E+03  0.39342554005E+03  0.12500338752E+03 0.  0.
          2    1    1    2  501    0 -0.37124995712E+02 -0.40134177791E+02 -0.22799755947E+03  0.23446088087E+03  0.00000000000E+00 0. -1.
          1    1    1    2  502    0  0.70243984766E+02 -0.20948343812E+02  0.16159859128E+03  0.17744620370E+03  0.00000000000E+00 0. -1.
         22    1    3    3    0    0  0.19774788846E+02 -0.30945001882E+02  0.10220796138E+03  0.10860526131E+03  0.00000000000E+00 0.  1.
         22    1    3    3    0    0 -0.52893777900E+02  0.92027523485E+02  0.26430242972E+03  0.28482027873E+03  0.00000000000E+00 0.  1.
</event>
<event>
 7    1  0.6140348E-006  0.9042915E+02  0.7818608E-02  0.1335200E+00
          2   -1    0    0  502    0  0.00000000000E+00  0.00000000000E+00  0.12983516838E+04  0.12983516838E+04  0.00000000000E+00 0. -1.
          1   -1    0    0  501    0 -0.00000000000E+00 -0.00000000000E+00 -0.21813257315E+04  0.21813257315E+04  0.00000000000E+00 0. -1.
         25    2    1    2    0    0  0.86354512652E+02 -0.58232013683E+02  0.25146733930E+01  0.16272605831E+03  0.12500150878E+03 0.  0.
          2    1    1    2  501    0 -0.25695088098E+02  0.86822496670E+02 -0.20993186868E+04  0.21012704091E+04  0.00000000000E+00 0. -1.
          1    1    1    2  502    0 -0.60659424554E+02 -0.28590482987E+02  0.12138299657E+04  0.12156809479E+04  0.00000000000E+00 0. -1.
         22    1    3    3    0    0  0.96721399426E+02 -0.49741367831E+02 -0.41732783493E+02  0.11649402559E+03  0.00000000000E+00 0. -1.
         22    1    3    3    0    0 -0.10366886774E+02 -0.84906458525E+01  0.44247456886E+02  0.46232032719E+02  0.00000000000E+00 0. -1.
</event>
<event>
 7    1  0.6140348E-006  0.5296618E+02  0.7818608E-02  0.1433728E+00
          2   -1    0    0  502    0  0.00000000000E+00  0.00000000000E+00  0.28157326736E+03  0.28157326736E+03  0.00000000000E+00 0. -1.
          1   -1    0    0  501    0 -0.00000000000E+00 -0.00000000000E+00 -0.54511863481E+03  0.54511863481E+03  0.00000000000E+00 0. -1.
         25    2    1    2    0    0  0.38373569684E+02  0.32888480350E+02  0.51883498437E+02  0.14447630208E+03  0.12500928550E+03 0.  0.
          2    1    1    2  501    0 -0.50533843937E+02  0.17136859494E+02 -0.49374315415E+03  0.49661820708E+03  0.00000000000E+00 0. -1.
          1    1    1    2  502    0  0.12160274253E+02 -0.50025339843E+02  0.17831428825E+03  0.18559739301E+03  0.00000000000E+00 0. -1.
         22    1    3    3    0    0 -0.67593043785E+01  0.69480764222E+02  0.50847497153E+02  0.86363955208E+02  0.00000000000E+00 0.  1.
         22    1    3    3    0    0  0.45132874063E+02 -0.36592283872E+02  0.10360012840E+01  0.58112346870E+02  0.00000000000E+00 0.  1.
</event>
<event>
 7    1  0.6140348E-006  0.9226336E+02  0.7818608E-02  0.1393812E+00
          2   -1    0    0  502    0  0.00000000000E+00  0.00000000000E+00  0.26593777980E+04  0.26593777980E+04  0.00000000000E+00 0. -1.
          1   -1    0    0  501    0 -0.00000000000E+00 -0.00000000000E+00 -0.31183277661E+04  0.31183277661E+04  0.00000000000E+00 0. -1.
         25    2    1    2    0    0 -0.22861739729E+02  0.59930310484E+02 -0.50997236811E+03  0.52897184740E+03  0.12500039139E+03 0.  0.
          2    1    1    2  501    0  0.31878607448E+01 -0.95088580647E+02 -0.25978316528E+04  0.25995732914E+04  0.00000000000E+00 0. -1.
          1    1    1    2  502    0  0.19673878984E+02  0.35158270163E+02  0.26488540529E+04  0.26491604253E+04  0.00000000000E+00 0. -1.
         22    1    3    3    0    0  0.37244881843E+02 -0.10374622589E+02 -0.76201306364E+02  0.85448540707E+02  0.00000000000E+00 0. -1.
         22    1    3    3    0    0 -0.60106621572E+02  0.70304933073E+02 -0.43377106175E+03  0.44352330669E+03  0.00000000000E+00 0. -1.
</event>
<event>
 7    1  0.6140348E-006  0.2110569E+03  0.7818608E-02  0.1236262E+00
          2   -1    0    0  502    0  0.00000000000E+00  0.00000000000E+00  0.23343589688E+04  0.23343589688E+04  0.00000000000E+00 0. -1.
          1   -1    0    0  501    0 -0.00000000000E+00 -0.00000000000E+00 -0.28896181110E+03  0.28896181110E+03  0.00000000000E+00 0. -1.
         25    2    1    2    0    0 -0.26901338038E+03 -0.14674209568E+02  0.29678495536E+03  0.41987152137E+03  0.12500901360E+03 0.  0.
          2    1    1    2  501    0  0.20315492916E+03 -0.17127228201E+02 -0.18089367227E+03  0.27255786148E+03  0.00000000000E+00 0. -1.
          1    1    1    2  502    0  0.65858451218E+02  0.31801437769E+02  0.19295058746E+04  0.19308913971E+04  0.00000000000E+00 0. -1.
         22    1    3    3    0    0 -0.95670842126E+02  0.32623777544E+02  0.45235147178E+02  0.11074041464E+03  0.00000000000E+00 0. -1.
         22    1    3    3    0    0 -0.17334253825E+03 -0.47297987112E+02  0.25154980818E+03  0.30913110673E+03  0.00000000000E+00 0. -1.
</event>
<event>
 7    1  0.6140348E-006  0.6755113E+02  0.7818608E-02  0.1451459E+00
          2   -1    0    0  502    0  0.00000000000E+00  0.00000000000E+00  0.30446817002E+04  0.30446817002E+04  0.00000000000E+00 0. -1.
          1   -1    0    0  501    0 -0.00000000000E+00 -0.00000000000E+00 -0.24381896542E+02  0.24381896542E+02  0.00000000000E+00 0. -1.
         25    2    1    2    0    0 -0.59108981449E+02 -0.64944204501E+02  0.22711993655E+04  0.22763311419E+04  0.12500115287E+03 0.  0.
          2    1    1    2  501    0  0.23795589931E+02  0.62866387291E+02  0.31453356424E+02  0.74214057843E+02  0.00000000000E+00 0. -1.
          1    1    1    2  502    0  0.35313391518E+02  0.20778172095E+01  0.71764708170E+03  0.71851839700E+03  0.00000000000E+00 0. -1.
         22    1    3    3    0    0  0.37773431089E+02 -0.78918320828E+01  0.74297592870E+03  0.74397738120E+03  0.00000000000E+00 0.  1.
         22    1    3    3    0    0 -0.96882412538E+02 -0.57052372418E+02  0.15282234368E+04  0.15323537607E+04  0.00000000000E+00 0.  1.
</event>
<event>
 7    1  0.6140348E-006  0.3786814E+02  0.7818608E-02  0.1608742E+00
          2   -1    0    0  502    0  0.00000000000E+00  0.00000000000E+00  0.58542317257E+03  0.58542317257E+03  0.00000000000E+00 0. -1.
          1   -1    0    0  501    0 -0.00000000000E+00 -0.00000000000E+00 -0.10373418457E+03  0.10373418457E+03  0.00000000000E+00 0. -1.
         25    2    1    2    0    0  0.12947797107E+02 -0.12705349180E+02  0.25048674228E+03  0.28053150014E+03  0.12500097266E+03 0.  0.
          2    1    1    2  501    0 -0.35127274577E+02  0.14995633346E+02 -0.84188832285E+02  0.92447573901E+02  0.00000000000E+00 0. -1.
          1    1    1    2  502    0  0.22179477471E+02 -0.22902841652E+01  0.31539107800E+03  0.31617828310E+03  0.00000000000E+00 0. -1.
         22    1    3    3    0    0 -0.10851560927E+02  0.52364733281E+02  0.14275737460E+03  0.15244503819E+03  0.00000000000E+00 0. -1.
         22    1    3    3    0    0  0.23799358034E+02 -0.65070082461E+02  0.10772936768E+03  0.12808646195E+03  0.00000000000E+00 0. -1.
</event>
<event>
 7    1  0.6140348E-006  0.9555088E+02  0.7818608E-02  0.1379578E+00
          2   -1    0    0  502    0  0.00000000000E+00  0.00000000000E+00  0.22934976202E+03  0.22934976202E+03  0.00000000000E+00 0. -1.
          1   -1    0    0  501    0 -0.00000000000E+00 -0.00000000000E+00 -0.12037015318E+04  0.12037015318E+04  0.00000000000E+00 0. -1.
         25    2    1    2    0    0 -0.48511289046E+02  0.67525367169E+02 -0.60389449104E+03  0.62227517233E+03  0.12499925365E+03 0.  0.
          2    1    1    2  501    0  0.21781007693E+02 -0.10202167841E+03 -0.58378381402E+03  0.59303151407E+03  0.00000000000E+00 0. -1.
          1    1    1    2  502    0  0.26730281353E+02  0.34496311241E+02  0.21332653525E+03  0.21774460745E+03  0.00000000000E+00 0. -1.
         22    1    3    3    0    0 -0.64382167076E+02 -0.14972789794E+02 -0.27027620669E+03  0.27824175778E+03  0.00000000000E+00 0. -1.
         22    1    3    3    0    0  0.15870878030E+02  0.82498156963E+02 -0.33361828435E+03  0.34403341454E+03  0.00000000000E+00 0. -1.
</event>
<event>
 7    1  0.6140348E-006  0.1092385E+03  0.7818608E-02  0.1305683E+00
          2   -1    0    0  502    0  0.00000000000E+00  0.00000000000E+00  0.34527155551E+04  0.34527155551E+04  0.00000000000E+00 0. -1.
          1   -1    0    0  501    0 -0.00000000000E+00 -0.00000000000E+00 -0.23063356037E+03  0.23063356037E+03  0.00000000000E+00 0. -1.
         25    2    1    2    0    0 -0.57535855673E+02 -0.12730233051E+03  0.15197710816E+04  0.15312889207E+04  0.12500144088E+03 0.  0.
          2    1    1    2  501    0 -0.12215544357E+02  0.10845672151E+03 -0.21090943071E+03  0.23747603653E+03  0.00000000000E+00 0. -1.
          1    1    1    2  502    0  0.69751400030E+02  0.18845608995E+02  0.19132203438E+04  0.19145841582E+04  0.00000000000E+00 0. -1.
         22    1    3    3    0    0 -0.75715926158E+02 -0.30066004299E+02  0.89922455335E+03  0.90290733934E+03  0.00000000000E+00 0.  1.
         22    1    3    3    0    0  0.18180070485E+02 -0.97236326209E+02  0.62054652826E+03  0.62838158139E+03  0.00000000000E+00 0.  1.
</event>
<event>
 7    1  0.6140348E-006  0.1723322E+03  0.7818608E-02  0.1238272E+00
          2   -1    0    0  502    0  0.00000000000E+00  0.00000000000E+00  0.51040106358E+03  0.51040106358E+03  0.00000000000E+00 0. -1.
          1   -1    0    0  501    0 -0.00000000000E+00 -0.00000000000E+00 -0.28733170878E+03  0.28733170878E+03  0.00000000000E+00 0. -1.
         25    2    1    2    0    0 -0.17275976005E+03 -0.17625712109E+03  0.59639538239E+02  0.28301029986E+03  0.12500179150E+03 0.  0.
          2    1    1    2  501    0  0.56829723820E+02  0.66862089754E+02 -0.14388364839E+03  0.16853088983E+03  0.00000000000E+00 0. -1.
          1    1    1    2  502    0  0.11593003623E+03  0.10939503133E+03  0.30731346494E+03  0.34619158267E+03  0.00000000000E+00 0. -1.
         22    1    3    3    0    0 -0.15407597403E+03 -0.11655568356E+03  0.90400050163E+02  0.21329979422E+03  0.00000000000E+00 0.  1.
         22    1    3    3    0    0 -0.18683786017E+02 -0.59701437524E+02 -0.30760511924E+02  0.69710505637E+02  0.00000000000E+00 0.  1.
</event>
<event>
 7    1  0.6140348E-006  0.1434659E+03  0.7818608E-02  0.1231681E+00
          2   -1    0    0  502    0  0.00000000000E+00  0.00000000000E+00  0.75333797675E+03  0.75333797675E+03  0.00000000000E+00 0. -1.
          1   -1    0    0  501    0 -0.00000000000E+00 -0.00000000000E+00 -0.12920776658E+03  0.12920776658E+03  0.00000000000E+00 0. -1.
         25    2    1    2    0    0 -0.24848206595E+02  0.23477876002E+02  0.19326461510E+03  0.23268710250E+03  0.12499372858E+03 0.  0.
          2    1    1    2  501    0 -0.11074417462E+03  0.91204183873E+02 -0.38063044592E+02  0.14842934593E+03  0.00000000000E+00 0. -1.
          1    1    1    2  502    0  0.13559238122E+03 -0.11468205987E+03  0.46892863966E+03  0.50142929491E+03  0.00000000000E+00 0. -1.
         22    1    3    3    0    0 -0.36076992901E+02  0.63834297948E+02  0.65811802697E+02  0.98526952584E+02  0.00000000000E+00 0. -1.
         22    1    3    3    0    0  0.11228786306E+02 -0.40356421946E+02  0.12745281241E+03  0.13416014991E+03  0.00000000000E+00 0. -1.
</event>
<event>
 7    1  0.6140348E-006  0.6520933E+02  0.7818608E-02  0.1435942E+00
          2   -1    0    0  502    0  0.00000000000E+00  0.00000000000E+00  0.23138818345E+04  0.23138818345E+04  0.00000000000E+00 0. -1.
          1   -1    0    0  501    0 -0.00000000000E+00 -0.00000000000E+00 -0.13948003132E+04  0.13948003132E+04  0.00000000000E+00 0. -1.
         25    2    1    2    0    0 -0.63273216339E+02 -0.43214374574E+02  0.59625038713E+03  0.61401198409E+03  0.12500084147E+03 0.  0.
          2    1    1    2  501    0  0.37582415522E+02 -0.16698646020E+02 -0.13849924446E+04  0.13856028848E+04  0.00000000000E+00 0. -1.
          1    1    1    2  502    0  0.25690800816E+02  0.59913020595E+02  0.17078235788E+04  0.17090672788E+04  0.00000000000E+00 0. -1.
         22    1    3    3    0    0 -0.12166544513E+02 -0.67151980269E+02  0.47955573523E+03  0.48438736198E+03  0.00000000000E+00 0.  1.
         22    1    3    3    0    0 -0.51106671826E+02  0.23937605695E+02  0.11669465191E+03  0.12962462210E+03  0.00000000000E+00 0.  1.
</event>
<event>
 7    1  0.6140348E-006  0.1174741E+03  0.7818608E-02  0.1266318E+00
          2   -1    0    0  502    0  0.00000000000E+00  0.00000000000E+00  0.13025259839E+04  0.13025259839E+04  0.00000000000E+00 0. -1.
          1   -1    0    0  501    0 -0.00000000000E+00 -0.00000000000E+00 -0.13557151762E+04  0.13557151762E+04  0.00000000000E+00 0. -1.
         25    2    1    2    0    0 -0.37443705576E+02 -0.72959941383E+02  0.24930580031E+03  0.29069592843E+03  0.12500222639E+03 0.  0.
          2    1    1    2  501    0  0.85088361368E+02 -0.47347968644E+02 -0.13291779466E+04  0.13327399870E+04  0.00000000000E+00 0. -1.
          1    1    1    2  502    0 -0.47644655792E+02  0.12030791003E+03  0.10266829539E+04  0.10348052446E+04  0.00000000000E+00 0. -1.
         22    1    3    3    0    0 -0.64409290871E+02  0.68837949135E+01  0.11963195825E+03  0.13604318732E+03  0.00000000000E+00 0. -1.
         22    1    3    3    0    0  0.26965585295E+02 -0.79843736296E+02  0.12967384207E+03  0.15465274111E+03  0.00000000000E+00 0. -1.
</event>
<event>
 7    1  0.6140348E-006  0.1655625E+03  0.7818608E-02  0.1274585E+00
          2   -1    0    0  502    0  0.00000000000E+00  0.00000000000E+00  0.22103303946E+04  0.22103303946E+04  0.00000000000E+00 0. -1.
          1   -1    0    0  501    0 -0.00000000000E+00 -0.00000000000E+00 -0.65801483053E+03  0.65801483053E+03  0.00000000000E+00 0. -1.
         25    2    1    2    0    0 -0.11214754686E+03 -0.11472410255E+03  0.84326463438E+03  0.86744374383E+03  0.12499885260E+03 0.  0.
          2    1    1    2  501    0  0.61762138777E+02  0.15384153917E+03 -0.63451953357E+03  0.65581767241E+03  0.00000000000E+00 0. -1.
          1    1    1    2  502    0  0.50385408083E+02 -0.39117436625E+02  0.13435704633E+04  0.13450838089E+04  0.00000000000E+00 0. -1.
         22    1    3    3    0    0 -0.93006024951E+02 -0.14151059537E+03  0.73658182903E+03  0.75579637479E+03  0.00000000000E+00 0. -1.
         22    1    3    3    0    0 -0.19141521908E+02  0.26786492822E+02  0.10668280534E+03  0.11164736904E+03  0.00000000000E+00 0. -1.
</event>
<event>
 7    1  0.6140348E-006  0.1912637E+03  0.7818608E-02  0.1286639E+00
          2   -1    0    0  502    0  0.00000000000E+00  0.00000000000E+00  0.88521942702E+03  0.88521942702E+03  0.00000000000E+00 0. -1.
          1   -1    0    0  501    0 -0.00000000000E+00 -0.00000000000E+00 -0.51510125099E+03  0.51510125099E+03  0.00000000000E+00 0. -1.
         25    2    1    2    0    0 -0.99988042351E+02  0.15276844849E+03 -0.11959973204E+02  0.22159501512E+03  0.12500200919E+03 0.  0.
          2    1    1    2  501    0  0.62053479862E+02 -0.18415894327E+03 -0.37377242051E+03  0.42127303864E+03  0.00000000000E+00 0. -1.
          1    1    1    2  502    0  0.37934562489E+02  0.31390494779E+02  0.75585056975E+03  0.75745262425E+03  0.00000000000E+00 0. -1.
         22    1    3    3    0    0 -0.19885386170E+02  0.13737473451E+02  0.45204917018E+02  0.51260426086E+02  0.00000000000E+00 0. -1.
         22    1    3    3    0    0 -0.80102656181E+02  0.13903097504E+03 -0.57164890222E+02  0.17033458903E+03  0.00000000000E+00 0. -1.
</event>
<event>
 7    1  0.6140348E-006  0.6669870E+02  0.7818608E-02  0.1387823E+00
          2   -1    0    0  502    0  0.00000000000E+00  0.00000000000E+00  0.84425956280E+03  0.84425956280E+03  0.00000000000E+00 0. -1.
          1   -1    0    0  501    0 -0.00000000000E+00 -0.00000000000E+00 -0.51374079791E+03  0.51374079791E+03  0.00000000000E+00 0. -1.
         25    2    1    2    0    0 -0.11124501263E+02 -0.67181548765E+02  0.39055087879E+03  0.41568213608E+03  0.12499813723E+03 0.  0.
          2    1    1    2  501    0  0.58314088319E+02  0.32649748452E+02 -0.49699081776E+03  0.50146426782E+03  0.00000000000E+00 0. -1.
          1    1    1    2  502    0 -0.47189587057E+02  0.34531800313E+02  0.43695870385E+03  0.44085395681E+03  0.00000000000E+00 0. -1.
         22    1    3    3    0    0 -0.58820276574E+02 -0.37191593420E+01  0.21654004612E+03  0.22441757653E+03  0.00000000000E+00 0.  1.
         22    1    3    3    0    0  0.47695775311E+02 -0.63462389423E+02  0.17401083267E+03  0.19126455955E+03  0.00000000000E+00 0.  1.
</event>
<event>
 7    1  0.6140348E-006  0.1203421E+03  0.7818608E-02  0.1323236E+00
          2   -1    0    0  502    0  0.00000000000E+00  0.00000000000E+00  0.12126539599E+04  0.12126539599E+04  0.00000000000E+00 0. -1.
          1   -1    0    0  501    0 -0.00000000000E+00 -0.00000000000E+00 -0.50724328191E+03  0.50724328191E+03  0.00000000000E+00 0. -1.
         25    2    1    2    0    0  0.14099652840E+02  0.16176449238E+03 -0.43785490825E+02  0.20953956664E+03  0.12499243808E+03 0.  0.
          2    1    1    2  501    0  0.16729407237E+02 -0.11502637767E+03 -0.37099000720E+03  0.38877310358E+03  0.00000000000E+00 0. -1.
          1    1    1    2  502    0 -0.30829060077E+02 -0.46738114709E+02  0.11201861760E+04  0.11215845716E+04  0.00000000000E+00 0. -1.
         22    1    3    3    0    0  0.20932072955E+02  0.58996968378E+02  0.42095370349E+02  0.75437485117E+02  0.00000000000E+00 0. -1.
         22    1    3    3    0    0 -0.68324201153E+01  0.10276752400E+03 -0.85880861174E+02  0.13410208153E+03  0.00000000000E+00 0. -1.
</event>
<event>
 7    1  0.6140348E-006  0.1088842E+03  0.7818608E-02  0.1304127E+00
          2   -1    0    0  502    0  0.00000000000E+00  0.00000000000E+00  0.34221351419E+03  0.34221351419E+03  0.00000000000E+00 0. -1.
          1   -1    0    0  501    0 -0.00000000000E+00 -0.00000000000E+00 -0.17206263920E+04  0.17206263920E+04  0.00000000000E+00 0. -1.
         25    2    1    2    0    0 -0.69272127563E+02  0.33370992826E+02 -0.33020246878E+03  0.36134822958E+03  0.12500648706E+03 0.  0.
          2    1    1    2  501    0  0.11356545851E+03  0.25316364920E+02 -0.13682126564E+04  0.13731510859E+04  0.00000000000E+00 0. -1.
          1    1    1    2  502    0 -0.44293330945E+02 -0.58687357746E+02  0.32000224740E+03  0.32834059065E+03  0.00000000000E+00 0. -1.
         22    1    3    3    0    0  0.34368234393E+02  0.57342860000E+01 -0.46948482911E+02  0.58465525046E+02  0.00000000000E+00 0.  1.
         22    1    3    3    0    0 -0.10364036196E+03  0.27636706826E+02 -0.28325398587E+03  0.30288270453E+03  0.00000000000E+00 0.  1.
</event>
<event>
 7    1  0.6140348E-006  0.7305880E+02  0.7818608E-02  0.1414014E+00
          2   -1    0    0  502    0  0.00000000000E+00  0.00000000000E+00  0.19971787797E+04  0.19971787797E+04  0.00000000000E+00 0. -1.
          1   -1    0    0  501    0 -0.00000000000E+00 -0.00000000000E+00 -0.29345606217E+02  0.29345606217E+02  0.00000000000E+00 0. -1.
         25    2    1    2    0    0 -0.38123595933E+02  0.68378110423E+02  0.36416143419E+03  0.39289629435E+03  0.12499989363E+03 0.  0.
          2    1    1    2  501    0 -0.26844858673E+02 -0.34098048912E+02  0.19200627298E+02  0.47455110003E+02  0.00000000000E+00 0. -1.
          1    1    1    2  502    0  0.64968454606E+02 -0.34280061512E+02  0.15844711120E+04  0.15861729816E+04  0.00000000000E+00 0. -1.
         22    1    3    3    0    0  0.26784502609E+01 -0.19873615662E+02  0.20783955458E+03  0.20880472970E+03  0.00000000000E+00 0.  1.
         22    1    3    3    0    0 -0.40802046194E+02  0.88251726086E+02  0.15632187961E+03  0.18409156465E+03  0.00000000000E+00 0.  1.
</event>
<event>
 7    1  0.6140348E-006  0.1855643E+03  0.7818608E-02  0.1199634E+00
          2   -1    0    0  502    0  0.00000000000E+00  0.00000000000E+00  0.14545529113E+04  0.14545529113E+04  0.00000000000E+00 0. -1.
          1   -1    0    0  501    0 -0.00000000000E+00 -0.00000000000E+00 -0.10861542179E+04  0.10861542179E+04  0.00000000000E+00 0. -1.
         25    2    1    2    0    0  0.20824349762E+03  0.21537885368E+03 -0.88337086849E+02  0.33642435153E+03  0.12499799390E+03 0.  0.
          2    1    1    2  501    0 -0.12132294835E+03 -0.12925524563E+03 -0.86192024661E+03  0.87996175362E+03  0.00000000000E+00 0. -1.
          1    1    1    2  502    0 -0.86920549262E+02 -0.86123608050E+02  0.13186560268E+04  0.13243210241E+04  0.00000000000E+00 0. -1.
         22    1    3    3    0    0  0.47570598347E+02  0.12487709930E+03 -0.41166878044E+01  0.13369442350E+03  0.00000000000E+00 0.  1.
         22    1    3    3    0    0  0.16067289927E+03  0.90501754386E+02 -0.84220399045E+02  0.20272992804E+03  0.00000000000E+00 0.  1.
</event>
<event>
 7    1  0.6140348E-006  0.1487605E+03  0.7818608E-02  0.1366713E+00
          2   -1    0    0  502    0  0.00000000000E+00  0.00000000000E+00  0.82349290445E+03  0.82349290445E+03  0.00000000000E+00 0. -1.
          1   -1    0    0  501    0 -0.00000000000E+00 -0.00000000000E+00 -0.96853466699E+03  0.96853466699E+03  0.00000000000E+00 0. -1.
         25    2    1    2    0    0  0.40572415162E+02 -0.16446552924E+03  0.37081894826E+03  0.42641099172E+03  0.12499844118E+03 0.  0.
          2    1    1    2  501    0  0.27559845656E+01  0.31043404951E+02 -0.92889108319E+03  0.92941375763E+03  0.00000000000E+00 0. -1.
          1    1    1    2  502    0 -0.43328399728E+02  0.13342212429E+03  0.41303037240E+03  0.43620282209E+03  0.00000000000E+00 0. -1.
         22    1    3    3    0    0  0.87698773466E+01 -0.10971670193E+03  0.10140939072E+03  0.14966138432E+03  0.00000000000E+00 0.  1.
         22    1    3    3    0    0  0.31802537815E+02 -0.54748827306E+02  0.26940955754E+03  0.27674960740E+03  0.00000000000E+00 0.  1.
</event>
<event>
 7    1  0.6140348E-006  0.6714420E+02  0.7818608E-02  0.1398415E+00
          2   -1    0    0  502    0  0.00000000000E+00  0.00000000000E+00  0.93471747109E+02  0.93471747109E+02  0.00000000000E+00 0. -1.
          1   -1    0    0  501    0 -0.00000000000E+00 -0.00000000000E+00 -0.78959303815E+03  0.78959303815E+03  0.00000000000E+00 0. -1.
         25    2    1    2    0    0 -0.62591612850E+02  0.34503310771E+02 -0.10359739779E+03  0.17739220555E+03  0.12500954086E+03 0.  0.
          2    1    1    2  501    0  0.65260020262E+02  0.18798361804E+02 -0.63428285100E+03  0.63790828786E+03  0.00000000000E+00 0. -1.
          1    1    1    2  502    0 -0.26684074123E+01 -0.53301672574E+02  0.41758957751E+02  0.67764291849E+02  0.00000000000E+00 0. -1.
         22    1    3    3    0    0 -0.49959382522E+02 -0.16202334896E+02 -0.11271169568E+03  0.12434782629E+03  0.00000000000E+00 0.  1.
         22    1    3    3    0    0 -0.12632230328E+02  0.50705645667E+02  0.91142978890E+01  0.53044379264E+02  0.00000000000E+00 0.  1.
</event>
<event>
 7    1  0.6140348E-006  0.1733838E+03  0.7818608E-02  0.1213164E+00
          2   -1    0    0  502    0  0.00000000000E+00  0.00000000000E+00  0.31772579404E+03  0.31772579404E+03  0.00000000000E+00 0. -1.
          1   -1    0    0  501    0 -0.00000000000E+00 -0.00000000000E+00 -0.24525786279E+04  0.24525786279E+04  0.00000000000E+00 0. -1.
         25    2    1    2    0    0 -0.44106120707E+02 -0.25335355010E+03 -0.36727436509E+03  0.46545672271E+03  0.12500452086E+03 0.  0.
          2    1    1    2  501    0  0.72616404427E+02  0.86894355845E+02 -0.20079160991E+04  0.20111068675E+04  0.00000000000E+00 0. -1.
          1    1    1    2  502    0 -0.28510283720E+02  0.16645919425E+03  0.24033763039E+03  0.29374083171E+03  0.00000000000E+00 0. -1.
         22    1    3    3    0    0  0.24788301319E+02 -0.87031029125E+02 -0.20083176403E+03  0.22027768238E+03  0.00000000000E+00 0. -1.
         22    1    3    3    0    0 -0.68894422025E+02 -0.16632252097E+03 -0.16644260106E+03  0.24517904033E+03  0.00000000000E+00 0. -1.
</event>
<event>
 7    1  0.6140348E-006  0.3931039E+02  0.7818608E-02  0.1563261E+00
          2   -1    0    0  502    0  0.00000000000E+00  0.00000000000E+00  0.13933242719E+03  0.13933242719E+03  0.00000000000E+00 0. -1.
          1   -1    0    0  501    0 -0.00000000000E+00 -0.00000000000E+00 -0.17070822133E+04  0.17070822133E+04  0.00000000000E+00 0. -1.
         25    2    1    2    0    0  0.35710841714E+02 -0.49876642394E+01 -0.21202311553E+03  0.24875169542E+03  0.12499385363E+03 0.  0.
          2    1    1    2  501    0 -0.37125186618E+01  0.28138859094E+02 -0.14733307587E+04  0.14736041201E+04  0.00000000000E+00 0. -1.
          1    1    1    2  502    0 -0.31998323053E+02 -0.23151194854E+02  0.11760408815E+03  0.12405882496E+03  0.00000000000E+00 0. -1.
         22    1    3    3    0    0 -0.98304145999E+00  0.47687022366E+02 -0.31515288884E+02  0.57168452018E+02  0.00000000000E+00 0.  1.
         22    1    3    3    0    0  0.36693883174E+02 -0.52674686606E+02 -0.18050782665E+03  0.19158324340E+03  0.00000000000E+00 0.  1.
</event>
<event>
 7    1  0.6140348E-006  0.7496815E+02  0.7818608E-02  0.1360473E+00
          2   -1    0    0  502    0  0.00000000000E+00  0.00000000000E+00  0.40330093859E+04  0.40330093859E+04  0.00000000000E+00 0. -1.
          1   -1    0    0  501    0 -0.00000000000E+00 -0.00000000000E+00 -0.75518451622E+03  0.75518451622E+03  0.00000000000E+00 0. -1.
         25    2    1    2    0    0 -0.67022887705E+02  0.62555942107E+02  0.60614295717E+02  0.16644915989E+03  0.12500366640E+03 0.  0.
          2    1    1    2  501    0  0.75102462213E+02  0.20938673721E+01 -0.69998593536E+03  0.70400644443E+03  0.00000000000E+00 0. -1.
          1    1    1    2  502    0 -0.80795745073E+01 -0.64649809479E+02  0.39171965093E+04  0.39177382978E+04  0.00000000000E+00 0. -1.
         22    1    3    3    0    0 -0.58687796735E+02 -0.22704407877E+02  0.25873250773E+01  0.62979694138E+02  0.00000000000E+00 0.  1.
         22    1    3    3    0    0 -0.83350909706E+01  0.85260349984E+02  0.58026970640E+02  0.10346946575E+03  0.00000000000E+00 0.  1.
</event>
<event>
 7    1  0.6140348E-006  0.2278252E+03  0.7818608E-02  0.1325026E+00
          2   -1    0    0  502    0  0.00000000000E+00  0.00000000000E+00  0.78052013767E+03  0.78052013767E+03  0.00000000000E+00 0. -1.
          1   -1    0    0  501    0 -0.00000000000E+00 -0.00000000000E+00 -0.75577997265E+03  0.75577997265E+03  0.00000000000E+00 0. -1.
         25    2    1    2    0    0  0.68139298379E+02 -0.21622334293E+03 -0.39748147977E+03  0.47435485838E+03  0.12500202758E+03 0.  0.
          2    1    1    2  501    0 -0.27945637813E+02 -0.81468081213E+01 -0.30164069608E+03  0.30304197512E+03  0.00000000000E+00 0. -1.
          1    1    1    2  502    0 -0.40193660567E+02  0.22437015105E+03  0.72386234087E+03  0.75890327681E+03  0.00000000000E+00 0. -1.
         22    1    3    3    0    0  0.66210658162E+02 -0.23205870353E+03 -0.38367954458E+03  0.45326050574E+03  0.00000000000E+00 0.  1.
         22    1    3    3    0    0  0.19286402166E+01  0.15835360596E+02 -0.13801935184E+02  0.21094352635E+02  0.00000000000E+00 0.  1.
</event>
<event>
 7    1  0.6140348E-006  0.1336780E+03  0.7818608E-02  0.1368677E+00
          2   -1    0    0  502    0  0.00000000000E+00  0.00000000000E+00  0.94039485132E+03  0.94039485132E+03  0.00000000000E+00 0. -1.
          1   -1    0    0  501    0 -0.00000000000E+00 -0.00000000000E+00 -0.49021590696E+03  0.49021590696E+03  0.00000000000E+00 0. -1.
         25    2    1    2    0    0 -0.93119957351E+02 -0.60455888152E+02  0.27279512121E+03  0.31995069153E+03  0.12500010394E+03 0.  0.
          2    1    1    2  501    0  0.12525440686E+03  0.48984581878E+02 -0.45647906552E+03  0.47587949415E+03  0.00000000000E+00 0. -1.
          1    1    1    2  502    0 -0.32134449506E+02  0.11471306274E+02  0.63386288868E+03  0.63478057260E+03  0.00000000000E+00 0. -1.
         22    1    3    3    0    0 -0.58835515783E+02  0.28813414377E+02  0.15465864818E+03  0.16796168677E+03  0.00000000000E+00 0.  1.
         22    1    3    3    0    0 -0.34284441568E+02 -0.89269302529E+02  0.11813647302E+03  0.15198900475E+03  0.00000000000E+00 0.  1.
</event>
<event>
 7    1  0.6140348E-006  0.1878472E+03  0.7818608E-02  0.1349247E+00
          2   -1    0    0  502    0  0.00000000000E+00  0.00000000000E+00  0.12631638291E+04  0.12631638291E+04  0.00000000000E+00 0. -1.
          1   -1    0    0  501    0 -0.00000000000E+00 -0.00000000000E+00 -0.21595843657E+03  0.21595843657E+03  0.00000000000E+00 0. -1.
         25    2    1    2    0    0 -0.16540308060E+03 -0.13594010973E+03 -0.55983408764E+02  0.25415938239E+03  0.12499982839E+03 0.  0.
          2    1    1    2  501    0  0.16746876458E+02  0.23178378812E+02 -0.49556455757E+02  0.57214835686E+02  0.00000000000E+00 0. -1.
          1    1    1    2  502    0  0.14865620414E+03  0.11276173091E+03  0.11527452570E+04  0.11677480476E+04  0.00000000000E+00 0. -1.
         22    1    3    3    0    0 -0.14593232519E+03 -0.15212179116E+03 -0.22235806452E+02  0.21197102153E+03  0.00000000000E+00 0. -1.
         22    1    3    3    0    0 -0.19470755410E+02  0.16181681435E+02 -0.33747602312E+02  0.42188360861E+02  0.00000000000E+00 0. -1.
</event>
<event>
 7    1  0.6140348E-006  0.2876991E+03  0.7818608E-02  0.1223742E+00
          2   -1    0    0  502    0  0.00000000000E+00  0.00000000000E+00  0.68037062567E+03  0.68037062567E+03  0.00000000000E+00 0. -1.
          1   -1    0    0  501    0 -0.00000000000E+00 -0.00000000000E+00 -0.17645393092E+04  0.17645393092E+04  0.00000000000E+00 0. -1.
         25    2    1    2    0    0  0.92998379949E+02  0.22745345859E+03  0.50514663306E+03  0.57548353630E+03  0.12499762066E+03 0.  0.
          2    1    1    2  501    0 -0.64452574775E+02 -0.28142436716E+03 -0.17099868890E+04  0.17341882739E+04  0.00000000000E+00 0. -1.
          1    1    1    2  502    0 -0.28545805174E+02  0.53970908577E+02  0.12067157242E+03  0.13523812464E+03  0.00000000000E+00 0. -1.
         22    1    3    3    0    0 -0.26064655865E+02  0.11660327150E+02  0.65822998133E+02  0.71749540750E+02  0.00000000000E+00 0.  1.
         22    1    3    3    0    0  0.11906303581E+03  0.21579313144E+03  0.43932363492E+03  0.50373399555E+03  0.00000000000E+00 0.  1.
</event>
<event>
 7    1  0.6140348E-006  0.2417352E+02  0.7818608E-02  0.1679376E+00
          2   -1    0    0  502    0  0.00000000000E+00  0.00000000000E+00  0.44961206569E+02  0.44961206569E+02  0.00000000000E+00 0. -1.
          1   -1    0    0  501    0 -0.00000000000E+00 -0.00000000000E+00 -0.16173340140E+04  0.16173340140E+04  0.00000000000E+00 0. -1.
         25    2    1    2    0    0 -0.77063922894E+01  0.45083760150E+02 -0.26130181116E+03  0.29324852909E+03  0.12499651750E+03 0.  0.
          2    1    1    2  501    0 -0.18950371439E+01 -0.23289716931E+02 -0.13350478683E+04  0.13352523404E+04  0.00000000000E+00 0. -1.
          1    1    1    2  502    0  0.96014294333E+01 -0.21794043219E+02  0.23976872035E+02  0.33794351001E+02  0.00000000000E+00 0. -1.
         22    1    3    3    0    0  0.19072802343E+02  0.78795636026E+02 -0.21618147996E+03  0.23088299271E+03  0.00000000000E+00 0.  1.
         22    1    3    3    0    0 -0.26779194632E+02 -0.33711875876E+02 -0.45120331203E+02  0.62365536381E+02  0.00000000000E+00 0.  1.
</event>
<event>
 7    1  0.6140348E-006  0.1794571E+03  0.7818608E-02  0.1352057E+00
          2   -1    0    0  502    0  0.00000000000E+00  0.00000000000E+00  0.76715552053E+03  0.76715552053E+03  0.00000000000E+00 0. -1.
          1   -1    0    0  501    0 -0.00000000000E+00 -0.00000000000E+00 -0.32932559829E+03  0.32932559829E+03  0.00000000000E+00 0. -1.
         25    2    1    2    0    0  0.10884079777E+03  0.11903912352E+03  0.26279091407E+03  0.33271086777E+03  0.12498329817E+03 0.  0.
          2    1    1    2  501    0 -0.10470965315E+03 -0.14796946484E+03 -0.26592936149E+03  0.32183458374E+03  0.00000000000E+00 0. -1.
          1    1    1    2  502    0 -0.41311446243E+01  0.28930341323E+02  0.44096836966E+03  0.44193566732E+03  0.00000000000E+00 0. -1.
         22    1    3    3    0    0  0.66193774164E+01 -0.25026151704E+02  0.48693939126E+02  0.55147294894E+02  0.00000000000E+00 0.  1.
         22    1    3    3    0    0  0.10222142035E+03  0.14406527522E+03  0.21409697495E+03  0.27756357287E+03  0.00000000000E+00 0.  1.
</event>
<event>
 7    1  0.6140348E-006  0.7554268E+02  0.7818608E-02  0.1498301E+00
          2   -1    0    0  502    0  0.00000000000E+00  0.00000000000E+00  0.35852850534E+04  0.35852850534E+04  0.00000000000E+00 0. -1.
          1   -1    0    0  501    0 -0.00000000000E+00 -0.00000000000E+00 -0.41407581078E+02  0.41407581078E+02  0.00000000000E+00 0. -1.
         25    2    1    2    0    0  0.40926030095E+01 -0.79888517605E+02  0.98970880401E+03  0.10007727926E+04  0.12499496426E+03 0.  0.
          2    1    1    2  501    0  0.20905126344E+02  0.87585572247E+01 -0.31690472709E+02  0.38961810695E+02  0.00000000000E+00 0. -1.
          1    1    1    2  502    0 -0.24997729354E+02  0.71129960380E+02  0.25858591411E+04  0.25869580312E+04  0.00000000000E+00 0. -1.
         22    1    3    3    0    0  0.81455180558E+01  0.20818064731E+02  0.40770229137E+02  0.46496804916E+02  0.00000000000E+00 0. -1.
         22    1    3    3    0    0 -0.40529150463E+01 -0.10070658234E+03  0.94893857487E+03  0.95427598771E+03  0.00000000000E+00 0. -1.
</event>
<event>
 7    1  0.6140348E-006  0.2302016E+03  0.7818608E-02  0.1146225E+00
          2   -1    0    0  502    0  0.00000000000E+00  0.00000000000E+00  0.21198080507E+04  0.21198080507E+04  0.00000000000E+00 0. -1.
          1   -1    0    0  501    0 -0.00000000000E+00 -0.00000000000E+00 -0.96310279696E+03  0.96310279696E+03  0.00000000000E+00 0. -1.
         25    2    1    2    0    0  0.22501904975E+01 -0.17862505756E+03 -0.11183188365E+03  0.24503231976E+03  0.12498997152E+03 0.  0.
          2    1    1    2  501    0  0.17874627199E+03  0.29558255178E+02 -0.76739332198E+03  0.78848996875E+03  0.00000000000E+00 0. -1.
          1    1    1    2  502    0 -0.18099646248E+03  0.14906680238E+03  0.20359304594E+04  0.20493885592E+04  0.00000000000E+00 0. -1.
         22    1    3    3    0    0 -0.40002217054E+02 -0.87981769022E+01 -0.86064933531E+01  0.41852801745E+02  0.00000000000E+00 0. -1.
         22    1    3    3    0    0  0.42252407552E+02 -0.16982688066E+03 -0.10322539030E+03  0.20317951801E+03  0.00000000000E+00 0. -1.
</event>
<event>
 7    1  0.6140348E-006  0.5739625E+02  0.7818608E-02  0.1417546E+00
          2   -1    0    0  502    0  0.00000000000E+00  0.00000000000E+00  0.15638786310E+04  0.15638786310E+04  0.00000000000E+00 0. -1.
          1   -1    0    0  501    0 -0.00000000000E+00 -0.00000000000E+00 -0.39539209786E+02  0.39539209786E+02  0.00000000000E+00 0. -1.
         25    2    1    2    0    0 -0.36300572144E+02  0.10206915186E+03  0.50112216956E+03  0.52770866107E+03  0.12496863145E+03 0.  0.
          2    1    1    2  501    0  0.18965967226E+02 -0.50293363743E+02  0.27908350274E+01  0.53823035121E+02  0.00000000000E+00 0. -1.
          1    1    1    2  502    0  0.17334604917E+02 -0.51775788118E+02  0.10204264166E+04  0.10218861446E+04  0.00000000000E+00 0. -1.
         22    1    3    3    0    0 -0.49641175102E+02  0.36461968826E+01  0.29183171443E+03  0.29604609534E+03  0.00000000000E+00 0.  1.
         22    1    3    3    0    0  0.13340602959E+02  0.98422954979E+02  0.20929045513E+03  0.23166256574E+03  0.00000000000E+00 0.  1.
</event>
<event>
 7    1  0.6140348E-006  0.9006042E+02  0.7818608E-02  0.1384428E+00
          2   -1    0    0  502    0  0.00000000000E+00  0.00000000000E+00  0.76590584336E+03  0.76590584336E+03  0.00000000000E+00 0. -1.
          1   -1    0    0  501    0 -0.00000000000E+00 -0.00000000000E+00 -0.24051963596E+03  0.24051963596E+03  0.00000000000E+00 0. -1.
         25    2    1    2    0    0  0.54519706961E+02 -0.11537507190E+03 -0.36295477811E+01  0.17865559063E+03  0.12498336202E+03 0.  0.
          2    1    1    2  501    0 -0.78754423038E+00  0.44503821023E+02 -0.14306541187E+03  0.14982964455E+03  0.00000000000E+00 0. -1.
          1    1    1    2  502    0 -0.53732162731E+02  0.70871250881E+02  0.67208116705E+03  0.67794024414E+03  0.00000000000E+00 0. -1.
         22    1    3    3    0    0  0.57555153630E+02 -0.83260492964E+02  0.52420410025E+02  0.11398598504E+03  0.00000000000E+00 0. -1.
         22    1    3    3    0    0 -0.30354466694E+01 -0.32114578940E+02 -0.56049957806E+02  0.64669605589E+02  0.00000000000E+00 0. -1.
</event>
<event>
 7    1  0.6140348E-006  0.6478315E+02  0.7818608E-02  0.1473740E+00
          2   -1    0    0  502    0  0.00000000000E+00  0.00000000000E+00  0.11903569505E+04  0.11903569505E+04  0.00000000000E+00 0. -1.
          1   -1    0    0  501    0 -0.00000000000E+00 -0.00000000000E+00 -0.20196190327E+02  0.20196190327E+02  0.00000000000E+00 0. -1.
         25    2    1    2    0    0  0.24345030300E+02  0.36195583068E+02  0.50284725579E+03  0.51998195782E+03  0.12499229201E+03 0.  0.
          2    1    1    2  501    0  0.30650667955E+02  0.67839288795E+01  0.15462419976E+02  0.34993879017E+02  0.00000000000E+00 0. -1.
          1    1    1    2  502    0 -0.54995698255E+02 -0.42979511948E+02  0.65185108445E+03  0.65557730404E+03  0.00000000000E+00 0. -1.
         22    1    3    3    0    0  0.19940877764E+01  0.37682187622E+02  0.49471360468E+03  0.49615065686E+03  0.00000000000E+00 0.  1.
         22    1    3    3    0    0  0.22350942524E+02 -0.14866045538E+01  0.81336511179E+01  0.23831300957E+02  0.00000000000E+00 0.  1.
</event>
<event>
 7    1  0.6140348E-006  0.4578647E+02  0.7818608E-02  0.1511511E+00
          2   -1    0    0  502    0  0.00000000000E+00  0.00000000000E+00  0.63321541407E+03  0.63321541407E+03  0.00000000000E+00 0. -1.
          1   -1    0    0  501    0 -0.00000000000E+00 -0.00000000000E+00 -0.71711233427E+02  0.71711233427E+02  0.00000000000E+00 0. -1.
         25    2    1    2    0    0  0.20779313364E+02 -0.76589141572E+02  0.43389885821E+02  0.15428890961E+03  0.12499883586E+03 0.  0.
          2    1    1    2  501    0 -0.87981772555E+01  0.33019795011E+02  0.38454543450E+01  0.34387531239E+02  0.00000000000E+00 0. -1.
          1    1    1    2  502    0 -0.11981136108E+02  0.43569346561E+02  0.51426884048E+03  0.51625020665E+03  0.00000000000E+00 0. -1.
         22    1    3    3    0    0  0.73568850082E+02 -0.39562350032E+02  0.22498194934E+02  0.86508519914E+02  0.00000000000E+00 0. -1.
         22    1    3    3    0    0 -0.52789536718E+02 -0.37026791540E+02  0.20891690887E+02  0.67780389692E+02  0.00000000000E+00 0. -1.
</event>
<event>
 7    1  0.6140348E-006  0.1122835E+03  0.7818608E-02  0.1348318E+00
          2   -1    0    0  502    0  0.00000000000E+00  0.00000000000E+00  0.17422768500E+04  0.17422768500E+04  0.00000000000E+00 0. -1.
          1   -1    0    0  501    0 -0.00000000000E+00 -0.00000000000E+00 -0.23937104516E+03  0.23937104516E+03  0.00000000000E+00 0. -1.
         25    2    1    2    0    0  0.52193765753E+02 -0.69032965560E+02  0.22149302972E+03  0.26865317674E+03  0.12500251054E+03 0.  0.
          2    1    1    2  501    0 -0.22860834181E+02 -0.42457184041E+02 -0.21084582502E+03  0.21628960249E+03  0.00000000000E+00 0. -1.
          1    1    1    2  502    0 -0.29332931572E+02  0.11149014960E+03  0.14922586002E+04  0.14967051160E+04  0.00000000000E+00 0. -1.
         22    1    3    3    0    0  0.87488179039E+02 -0.17011888797E+02  0.12659719692E+03  0.15482388737E+03  0.00000000000E+00 0. -1.
         22    1    3    3    0    0 -0.35294413286E+02 -0.52021076763E+02  0.94895832796E+02  0.11382928937E+03  0.00000000000E+00 0. -1.
</event>
<event>
 7    1  0.6140348E-006  0.1176194E+03  0.7818608E-02  0.1329038E+00
          2   -1    0    0  502    0  0.00000000000E+00  0.00000000000E+00  0.87905737317E+03  0.87905737317E+03  0.00000000000E+00 0. -1.
          1   -1    0    0  501    0 -0.00000000000E+00 -0.00000000000E+00 -0.30721689833E+03  0.30721689833E+03  0.00000000000E+00 0. -1.
         25    2    1    2    0    0 -0.60947076759E+02 -0.12979359929E+03  0.37414506870E+03  0.41972718760E+03  0.12500181996E+03 0.  0.
          2    1    1    2  501    0  0.51311160550E+02  0.18127333871E+02 -0.27521125849E+03  0.28053996548E+03  0.00000000000E+00 0. -1.
          1    1    1    2  502    0  0.96359162081E+01  0.11166626541E+03  0.47290666462E+03  0.48600711842E+03  0.00000000000E+00 0. -1.
         22    1    3    3    0    0 -0.94101154622E+00 -0.10125858204E+03  0.31463316917E+03  0.33052718055E+03  0.00000000000E+00 0.  1.
         22    1    3    3    0    0 -0.60006065212E+02 -0.28535017246E+02  0.59511899529E+02  0.89200007046E+02  0.00000000000E+00 0.  1.
</event>
<event>
 7    1  0.8506320E-006  0.8894652E+02  0.7818608E-02  0.1319494E+00
          2   -1    0    0  502    0  0.00000000000E+00  0.00000000000E+00  0.12680323140E+04  0.12680323140E+04  0.00000000000E+00 0. -1.
          1   -1    0    0  501    0 -0.00000000000E+00 -0.00000000000E+00 -0.83108004489E+03  0.83108004489E+03  0.00000000000E+00 0. -1.
         25    2    1    2    0    0  0.15214512556E+03 -0.11353425359E+02 -0.24215677370E+03  0.31231602298E+03  0.12499742264E+03 0.  0.
          2    1    1    2  501    0 -0.76951360205E+02  0.33271842963E+02 -0.54941678939E+03  0.55577633616E+03  0.00000000000E+00 0. -1.
          1    1    1    2  502    0 -0.75193765353E+02 -0.21918417604E+02  0.12285258322E+04  0.12310199997E+04  0.00000000000E+00 0. -1.
         22    1    3    3    0    0  0.22906814842E+02 -0.18933827329E+02  0.78852431779E+01  0.30747179440E+02  0.00000000000E+00 0. -1.
         22    1    3    3    0    0  0.12923831072E+03  0.75804019703E+01 -0.25004201688E+03  0.28156884354E+03  0.00000000000E+00 0. -1.
</event>
<event>
 7    1  0.6140348E-006  0.5521657E+02  0.7818608E-02  0.1498868E+00
          2   -1    0    0  502    0  0.00000000000E+00  0.00000000000E+00  0.22870300805E+02  0.22870300805E+02  0.00000000000E+00 0. -1.
          1   -1    0    0  501    0 -0.00000000000E+00 -0.00000000000E+00 -0.26479041496E+04  0.26479041496E+04  0.00000000000E+00 0. -1.
         25    2    1    2    0    0  0.36422317632E+02  0.15887129597E+02 -0.16031894501E+04  0.16085463611E+04  0.12500398637E+03 0.  0.
          2    1    1    2  501    0 -0.61608348228E+02  0.19950302433E+01 -0.10287351211E+04  0.10305801852E+04  0.00000000000E+00 0. -1.
          1    1    1    2  502    0  0.25186030596E+02 -0.17882159840E+02  0.68907224781E+01  0.31647904101E+02  0.00000000000E+00 0. -1.
         22    1    3    3    0    0 -0.45904636972E+02  0.51944734783E+01 -0.44725360874E+03  0.44963319360E+03  0.00000000000E+00 0.  1.
         22    1    3    3    0    0  0.82326954604E+02  0.10692656118E+02 -0.11559358414E+04  0.11589131675E+04  0.00000000000E+00 0.  1.
</event>
<event>
 7    1  0.6140348E-006  0.6330081E+02  0.7818608E-02  0.1502489E+00
          2   -1    0    0  502    0  0.00000000000E+00  0.00000000000E+00  0.15234551045E+03  0.15234551045E+03  0.00000000000E+00 0. -1.
          1   -1    0    0  501    0 -0.00000000000E+00 -0.00000000000E+00 -0.64154583807E+03  0.64154583807E+03  0.00000000000E+00 0. -1.
         25    2    1    2    0    0 -0.49081029228E+02 -0.62833326802E+02 -0.54208544109E+03  0.56199427420E+03  0.12499585753E+03 0.  0.
          2    1    1    2  501    0  0.25962376458E+02  0.40875952900E+01 -0.80308313364E+02  0.84499577644E+02  0.00000000000E+00 0. -1.
          1    1    1    2  502    0  0.23118652770E+02  0.58745731512E+02  0.13319342683E+03  0.14739749668E+03  0.00000000000E+00 0. -1.
         22    1    3    3    0    0 -0.19296583197E+02 -0.23516712603E+02 -0.17499469302E+02  0.35094519808E+02  0.00000000000E+00 0.  1.
         22    1    3    3    0    0 -0.29784446031E+02 -0.39316614199E+02 -0.52458597179E+03  0.52689975439E+03  0.00000000000E+00 0.  1.
</event>
<event>
 7    1  0.6140348E-006  0.1476277E+03  0.7818608E-02  0.1334832E+00
          2   -1    0    0  502    0  0.00000000000E+00  0.00000000000E+00  0.78110747668E+03  0.78110747668E+03  0.00000000000E+00 0. -1.
          1   -1    0    0  501    0 -0.00000000000E+00 -0.00000000000E+00 -0.10370157059E+04  0.10370157059E+04  0.00000000000E+00 0. -1.
         25    2    1    2    0    0 -0.14505403683E+03 -0.11138358276E+03  0.54212272068E+02  0.22805472776E+03  0.12499204896E+03 0.  0.
          2    1    1    2  501    0  0.38947928813E+02  0.13462908860E+02 -0.94149434809E+03  0.94239577597E+03  0.00000000000E+00 0. -1.
          1    1    1    2  502    0  0.10610610802E+03  0.97920673899E+02  0.63137384679E+03  0.64767267886E+03  0.00000000000E+00 0. -1.
         22    1    3    3    0    0 -0.69932775981E+02  0.16177849373E+02  0.46075131790E+01  0.71927360194E+02  0.00000000000E+00 0.  1.
         22    1    3    3    0    0 -0.75121260850E+02 -0.12756143213E+03  0.49604758889E+02  0.15612736757E+03  0.00000000000E+00 0.  1.
</event>
<event>
 7    1  0.6140348E-006  0.3710523E+02  0.7818608E-02  0.1581705E+00
          2   -1    0    0  502    0  0.00000000000E+00  0.00000000000E+00  0.13474951809E+04  0.13474951809E+04  0.00000000000E+00 0. -1.
          1   -1    0    0  501    0 -0.00000000000E+00 -0.00000000000E+00 -0.13563596401E+02  0.13563596401E+02  0.00000000000E+00 0. -1.
         25    2    1    2    0    0 -0.45107548989E+02 -0.20465654915E+01  0.51954318046E+03  0.53627413862E+03  0.12500382386E+03 0.  0.
          2    1    1    2  501    0  0.14260442784E+02  0.22694244130E+02  0.32992575602E+02  0.42507634490E+02  0.00000000000E+00 0. -1.
          1    1    1    2  502    0  0.30847106205E+02 -0.20647678639E+02  0.78139582839E+03  0.78227700415E+03  0.00000000000E+00 0. -1.
         22    1    3    3    0    0 -0.83671478321E+02  0.82438652160E+01  0.24921261361E+03  0.26301293576E+03  0.00000000000E+00 0. -1.
         22    1    3    3    0    0  0.38563929331E+02 -0.10290430708E+02  0.27033056685E+03  0.27326120285E+03  0.00000000000E+00 0. -1.
</event>
<event>
 7    1  0.6140348E-006  0.5566588E+02  0.7818608E-02  0.1460826E+00
          2   -1    0    0  502    0  0.00000000000E+00  0.00000000000E+00  0.12507033483E+04  0.12507033483E+04  0.00000000000E+00 0. -1.
          1   -1    0    0  501    0 -0.00000000000E+00 -0.00000000000E+00 -0.53865677118E+02  0.53865677118E+02  0.00000000000E+00 0. -1.
         25    2    1    2    0    0  0.23623638205E+02 -0.47413063657E+02  0.50701643613E+03  0.52487787893E+03  0.12500018561E+03 0.  0.
          2    1    1    2  501    0  0.30061715543E+02  0.26521811168E+02 -0.34616748556E+02  0.52966333549E+02  0.00000000000E+00 0. -1.
          1    1    1    2  502    0 -0.53685353748E+02  0.20891252489E+02  0.72443798364E+03  0.72672481297E+03  0.00000000000E+00 0. -1.
         22    1    3    3    0    0 -0.25350709611E+02 -0.64337884334E+02  0.16419926306E+03  0.17816683145E+03  0.00000000000E+00 0. -1.
         22    1    3    3    0    0  0.48974347816E+02  0.16924820677E+02  0.34281717306E+03  0.34671104748E+03  0.00000000000E+00 0. -1.
</event>
<event>
 7    1  0.6140348E-006  0.1812421E+03  0.7818608E-02  0.1211153E+00
          2   -1    0    0  502    0  0.00000000000E+00  0.00000000000E+00  0.12101466029E+04  0.12101466029E+04  0.00000000000E+00 0. -1.
          1   -1    0    0  501    0 -0.00000000000E+00 -0.00000000000E+00 -0.38748169307E+03  0.38748169307E+03  0.00000000000E+00 0. -1.
         25    2    1    2    0    0 -0.66133071693E+02  0.22664322920E+03  0.99415263981E+01  0.26732495839E+03  0.12499225143E+03 0.  0.
          2    1    1    2  501    0  0.11691775169E+03 -0.12830743947E+03 -0.22640792771E+03  0.28529477634E+03  0.00000000000E+00 0. -1.
          1    1    1    2  502    0 -0.50784679994E+02 -0.98335789731E+02  0.10391313111E+04  0.10450085612E+04  0.00000000000E+00 0. -1.
         22    1    3    3    0    0 -0.70928838746E+02  0.23522646664E+03 -0.91418616403E+01  0.24585761003E+03  0.00000000000E+00 0.  1.
         22    1    3    3    0    0  0.47957670535E+01 -0.85832374425E+01  0.19083388038E+02  0.21467348361E+02  0.00000000000E+00 0.  1.
</event>
<event>
 7    1  0.6140348E-006  0.7699034E+02  0.7818608E-02  0.1436576E+00
          2   -1    0    0  502    0  0.00000000000E+00  0.00000000000E+00  0.96293887669E+03  0.96293887669E+03  0.00000000000E+00 0. -1.
          1   -1    0    0  501    0 -0.00000000000E+00 -0.00000000000E+00 -0.25548890957E+03  0.25548890957E+03  0.00000000000E+00 0. -1.
         25    2    1    2    0    0 -0.49636712411E+02 -0.14899074083E+02  0.17730317882E+03  0.22304088571E+03  0.12500013540E+03 0.  0.
          2    1    1    2  501    0 -0.15161995192E+02 -0.31175277991E+02 -0.22924133901E+03  0.23184774221E+03  0.00000000000E+00 0. -1.
          1    1    1    2  502    0  0.64798707603E+02  0.46074352074E+02  0.75938812731E+03  0.76353915834E+03  0.00000000000E+00 0. -1.
         22    1    3    3    0    0 -0.52677259177E+02  0.47310007604E+02  0.11426710132E+03  0.13442507540E+03  0.00000000000E+00 0.  1.
         22    1    3    3    0    0  0.30405467653E+01 -0.62209081687E+02  0.63036077507E+02  0.88615810307E+02  0.00000000000E+00 0.  1.
</event>
<event>
 7    1  0.6140348E-006  0.3559244E+02  0.7818608E-02  0.1552190E+00
          2   -1    0    0  502    0  0.00000000000E+00  0.00000000000E+00  0.23422380677E+03  0.23422380677E+03  0.00000000000E+00 0. -1.
          1   -1    0    0  501    0 -0.00000000000E+00 -0.00000000000E+00 -0.12682513184E+04  0.12682513184E+04  0.00000000000E+00 0. -1.
         25    2    1    2    0    0  0.43096851260E+02  0.12682718170E+02 -0.75838891961E+02  0.15296427916E+03  0.12501337224E+03 0.  0.
          2    1    1    2  501    0 -0.15590654968E+02 -0.32037617293E+02 -0.11521269376E+04  0.11526777337E+04  0.00000000000E+00 0. -1.
          1    1    1    2  502    0 -0.27506196293E+02  0.19354899123E+02  0.19393831790E+03  0.19683311232E+03  0.00000000000E+00 0. -1.
         22    1    3    3    0    0 -0.52166089807E+01  0.47851058343E+02 -0.79671958414E+02  0.93083606244E+02  0.00000000000E+00 0.  1.
         22    1    3    3    0    0  0.48313460241E+02 -0.35168340173E+02  0.38330664529E+01  0.59880672921E+02  0.00000000000E+00 0.  1.
</event>
<event>
 7    1  0.6140348E-006  0.4039344E+03  0.7818608E-02  0.1165588E+00
          2   -1    0    0  502    0  0.00000000000E+00  0.00000000000E+00  0.97643889497E+03  0.97643889497E+03  0.00000000000E+00 0. -1.
          1   -1    0    0  501    0 -0.00000000000E+00 -0.00000000000E+00 -0.11908230903E+04  0.11908230903E+04  0.00000000000E+00 0. -1.
         25    2    1    2    0    0  0.39726477473E+03  0.21259636237E+02 -0.16740562252E+03  0.44935488146E+03  0.12499557459E+03 0.  0.
          2    1    1    2  501    0  0.41985880055E+01 -0.82173472920E+02 -0.83095183393E+03  0.83501560351E+03  0.00000000000E+00 0. -1.
          1    1    1    2  502    0 -0.40146336273E+03  0.60913836684E+02  0.78397326114E+03  0.88289150029E+03  0.00000000000E+00 0. -1.
         22    1    3    3    0    0  0.35153243669E+03  0.44024297329E+02 -0.17905899611E+03  0.39695757568E+03  0.00000000000E+00 0. -1.
         22    1    3    3    0    0  0.45732338040E+02 -0.22764661093E+02  0.11653373588E+02  0.52397305783E+02  0.00000000000E+00 0. -1.
</event>
<event>
 7    1  0.6140348E-006  0.4265008E+02  0.7818608E-02  0.1581424E+00
          2   -1    0    0  502    0  0.00000000000E+00  0.00000000000E+00  0.23826037622E+02  0.23826037622E+02  0.00000000000E+00 0. -1.
          1   -1    0    0  501    0 -0.00000000000E+00 -0.00000000000E+00 -0.13833186487E+04  0.13833186487E+04  0.00000000000E+00 0. -1.
         25    2    1    2    0    0  0.23883629683E+02  0.22320945673E+02 -0.26290567633E+03  0.29293229674E+03  0.12498513290E+03 0.  0.
          2    1    1    2  501    0 -0.10026640418E+02  0.21097086054E+02 -0.10454593370E+04  0.10457202522E+04  0.00000000000E+00 0. -1.
          1    1    1    2  502    0 -0.13856989264E+02 -0.43418031727E+02 -0.51127597769E+02  0.68492137389E+02  0.00000000000E+00 0. -1.
         22    1    3    3    0    0  0.15608481307E+02 -0.27243429070E+01 -0.26591283280E+03  0.26638446160E+03  0.00000000000E+00 0.  1.
         22    1    3    3    0    0  0.82751483757E+01  0.25045288580E+02  0.30071564748E+01  0.26547835142E+02  0.00000000000E+00 0.  1.
</event>
<event>
 7    1  0.6140348E-006  0.8027316E+02  0.7818608E-02  0.1365266E+00
          2   -1    0    0  502    0  0.00000000000E+00  0.00000000000E+00  0.91908360878E+02  0.91908360878E+02  0.00000000000E+00 0. -1.
          1   -1    0    0  501    0 -0.00000000000E+00 -0.00000000000E+00 -0.15658189055E+04  0.15658189055E+04  0.00000000000E+00 0. -1.
         25    2    1    2    0    0 -0.16975732631E+01 -0.79768669141E+02 -0.21769060669E+03  0.26340130880E+03  0.12500050762E+03 0.  0.
          2    1    1    2  501    0 -0.53718477207E+02  0.61165533714E+02 -0.13114095430E+04  0.13139337452E+04  0.00000000000E+00 0. -1.
          1    1    1    2  502    0  0.55416050470E+02  0.18603135427E+02  0.55189605090E+02  0.80392212355E+02  0.00000000000E+00 0. -1.
         22    1    3    3    0    0 -0.35015332266E+02 -0.62910804606E+02 -0.41095294457E+02  0.82901544355E+02  0.00000000000E+00 0.  1.
         22    1    3    3    0    0  0.33317759003E+02 -0.16857864535E+02 -0.17659531224E+03  0.18049976445E+03  0.00000000000E+00 0.  1.
</event>
<event>
 7    1  0.6140348E-006  0.1010940E+03  0.7818608E-02  0.1403132E+00
          2   -1    0    0  502    0  0.00000000000E+00  0.00000000000E+00  0.81009292827E+03  0.81009292827E+03  0.00000000000E+00 0. -1.
          1   -1    0    0  501    0 -0.00000000000E+00 -0.00000000000E+00 -0.42870970925E+03  0.42870970925E+03  0.00000000000E+00 0. -1.
         25    2    1    2    0    0  0.95460827290E+02  0.18988016262E+02 -0.30772616841E+02  0.16138341307E+03  0.12499735101E+03 0.  0.
          2    1    1    2  501    0 -0.84261508419E+01  0.33092031012E+02 -0.32828885092E+03  0.33006007358E+03  0.00000000000E+00 0. -1.
          1    1    1    2  502    0 -0.87034676448E+02 -0.52080047273E+02  0.74044468677E+03  0.74735915088E+03  0.00000000000E+00 0. -1.
         22    1    3    3    0    0  0.87853237761E+02  0.62210019441E+02  0.23315134315E+00  0.10764911641E+03  0.00000000000E+00 0. -1.
         22    1    3    3    0    0  0.76075895287E+01 -0.43222003179E+02 -0.31005768184E+02  0.53734296664E+02  0.00000000000E+00 0. -1.
</event>
<event>
 7    1  0.6140348E-006  0.7899559E+02  0.7818608E-02  0.1474493E+00
          2   -1    0    0  502    0  0.00000000000E+00  0.00000000000E+00  0.65894483963E+03  0.65894483963E+03  0.00000000000E+00 0. -1.
          1   -1    0    0  501    0 -0.00000000000E+00 -0.00000000000E+00 -0.10606360773E+04  0.10606360773E+04  0.00000000000E+00 0. -1.
         25    2    1    2    0    0 -0.91874431552E-01 -0.10241584390E+03 -0.64381455957E+02  0.17394141484E+03  0.12498652088E+03 0.  0.
          2    1    1    2  501    0  0.76210228064E+01  0.77941089600E+02 -0.93957357805E+03  0.94283158730E+03  0.00000000000E+00 0. -1.
          1    1    1    2  502    0 -0.75291483748E+01  0.24474754300E+02  0.60226379638E+03  0.60280791476E+03  0.00000000000E+00 0. -1.
         22    1    3    3    0    0 -0.24378822332E+02  0.23033560869E+02 -0.93656136650E+01  0.34822214518E+02  0.00000000000E+00 0.  1.
         22    1    3    3    0    0  0.24286947901E+02 -0.12544940477E+03 -0.55015842292E+02  0.13911920032E+03  0.00000000000E+00 0.  1.
</event>
<event>
 7    1  0.6140348E-006  0.1008149E+03  0.7818608E-02  0.1311919E+00
          2   -1    0    0  502    0  0.00000000000E+00  0.00000000000E+00  0.29793938318E+04  0.29793938318E+04  0.00000000000E+00 0. -1.
          1   -1    0    0  501    0 -0.00000000000E+00 -0.00000000000E+00 -0.39670007878E+03  0.39670007878E+03  0.00000000000E+00 0. -1.
         25    2    1    2    0    0  0.14429832918E+03  0.83134736709E+02 -0.15758394353E+02  0.20882356459E+03  0.12500224751E+03 0.  0.
          2    1    1    2  501    0 -0.89437685514E+02 -0.33511337499E+02 -0.27590131585E+03  0.29196514419E+03  0.00000000000E+00 0. -1.
          1    1    1    2  502    0 -0.54860643663E+02 -0.49623399210E+02  0.28743534632E+04  0.28753052018E+04  0.00000000000E+00 0. -1.
         22    1    3    3    0    0  0.39901492035E+01  0.42324833889E+02  0.34026297168E+02  0.54452747896E+02  0.00000000000E+00 0.  1.
         22    1    3    3    0    0  0.14030817997E+03  0.40809902820E+02 -0.49784691521E+02  0.15437081669E+03  0.00000000000E+00 0.  1.
</event>
<event>
 7    1  0.6140348E-006  0.8443869E+02  0.7818608E-02  0.1373219E+00
          2   -1    0    0  502    0  0.00000000000E+00  0.00000000000E+00  0.82811948062E+03  0.82811948062E+03  0.00000000000E+00 0. -1.
          1   -1    0    0  501    0 -0.00000000000E+00 -0.00000000000E+00 -0.34114731082E+03  0.34114731082E+03  0.00000000000E+00 0. -1.
         25    2    1    2    0    0 -0.40571598853E+02 -0.12662607426E+03  0.64055150240E+02  0.19341435165E+03  0.12500332730E+03 0.  0.
          2    1    1    2  501    0  0.33309743503E+02  0.75108264885E+02 -0.26936545715E+03  0.28161771956E+03  0.00000000000E+00 0. -1.
          1    1    1    2  502    0  0.72618553508E+01  0.51517809378E+02  0.69228247671E+03  0.69423472024E+03  0.00000000000E+00 0. -1.
         22    1    3    3    0    0 -0.60395139862E+02 -0.57195241032E+02  0.84295786851E+02  0.11842570750E+03  0.00000000000E+00 0. -1.
         22    1    3    3    0    0  0.19823541009E+02 -0.69430833232E+02 -0.20240636611E+02  0.74988644152E+02  0.00000000000E+00 0. -1.
</event>
<event>
 7    1  0.6140348E-006  0.7211606E+02  0.7818608E-02  0.1423589E+00
          2   -1    0    0  502    0  0.00000000000E+00  0.00000000000E+00  0.25187227886E+03  0.25187227886E+03  0.00000000000E+00 0. -1.
          1   -1    0    0  501    0 -0.00000000000E+00 -0.00000000000E+00 -0.11144243872E+04  0.11144243872E+04  0.00000000000E+00 0. -1.
         25    2    1    2    0    0  0.78905747493E+02 -0.44475990816E+02 -0.84533862444E+02  0.17599690198E+03  0.12499881944E+03 0.  0.
          2    1    1    2  501    0 -0.73898934983E+01  0.40164090224E+02 -0.97749449958E+03  0.97834720901E+03  0.00000000000E+00 0. -1.
          1    1    1    2  502    0 -0.71515853994E+02  0.43119005918E+01  0.19947625363E+03  0.21195255512E+03  0.00000000000E+00 0. -1.
         22    1    3    3    0    0  0.96112590858E+02 -0.60024678176E+02 -0.30732291608E+02  0.11740982011E+03  0.00000000000E+00 0.  1.
         22    1    3    3    0    0 -0.17206843366E+02  0.15548687360E+02 -0.53801570836E+02  0.58587081867E+02  0.00000000000E+00 0.  1.
</event>
<event>
 7    1  0.6140348E-006  0.1111083E+03  0.7818608E-02  0.1332582E+00
          2   -1    0    0  502    0  0.00000000000E+00  0.00000000000E+00  0.54329060130E+03  0.54329060130E+03  0.00000000000E+00 0. -1.
          1   -1    0    0  501    0 -0.00000000000E+00 -0.00000000000E+00 -0.50805859057E+03  0.50805859057E+03  0.00000000000E+00 0. -1.
         25    2    1    2    0    0 -0.14179783029E+03  0.22686125887E+02  0.24869534911E+03  0.31320473540E+03  0.12500617833E+03 0.  0.
          2    1    1    2  501    0  0.96067286277E+02 -0.54734253306E+02 -0.46629253272E+03  0.47922175248E+03  0.00000000000E+00 0. -1.
          1    1    1    2  502    0  0.45730544018E+02  0.32048127418E+02  0.25282919435E+03  0.25892270399E+03  0.00000000000E+00 0. -1.
         22    1    3    3    0    0 -0.15542628350E+03  0.25454403346E+02  0.16401450330E+03  0.22738956340E+03  0.00000000000E+00 0. -1.
         22    1    3    3    0    0  0.13628453205E+02 -0.27682774591E+01  0.84680845813E+02  0.85815171994E+02  0.00000000000E+00 0. -1.
</event>
<event>
 7    1  0.6140348E-006  0.4348610E+02  0.7818608E-02  0.1558234E+00
          2   -1    0    0  502    0  0.00000000000E+00  0.00000000000E+00  0.63793838000E+03  0.63793838000E+03  0.00000000000E+00 0. -1.
          1   -1    0    0  501    0 -0.00000000000E+00 -0.00000000000E+00 -0.79055615758E+03  0.79055615758E+03  0.00000000000E+00 0. -1.
         25    2    1    2    0    0  0.26770279078E+02 -0.12517367816E+02 -0.85731426895E+01  0.12873069460E+03  0.12499904247E+03 0.  0.
          2    1    1    2  501    0  0.16117814892E+02  0.21018676971E+02 -0.72083361038E+03  0.72132008331E+03  0.00000000000E+00 0. -1.
          1    1    1    2  502    0 -0.42888093970E+02 -0.85013091547E+01  0.57678897548E+03  0.57844375967E+03  0.00000000000E+00 0. -1.
         22    1    3    3    0    0 -0.31119720732E+02 -0.46586817797E+02  0.14213643167E+02  0.57799621650E+02  0.00000000000E+00 0. -1.
         22    1    3    3    0    0  0.57889999809E+02  0.34069449980E+02 -0.22786785856E+02  0.70931072948E+02  0.00000000000E+00 0. -1.
</event>
<event>
 7    1  0.6140348E-006  0.1324679E+03  0.7818608E-02  0.1250069E+00
          2   -1    0    0  502    0  0.00000000000E+00  0.00000000000E+00  0.15046473035E+04  0.15046473035E+04  0.00000000000E+00 0. -1.
          1   -1    0    0  501    0 -0.00000000000E+00 -0.00000000000E+00 -0.88982037894E+03  0.88982037894E+03  0.00000000000E+00 0. -1.
         25    2    1    2    0    0  0.13398995160E+03 -0.13477811857E+03  0.78132936730E+03  0.81376808703E+03  0.12499788350E+03 0.  0.
          2    1    1    2  501    0 -0.32855658123E+02  0.12812307402E+03 -0.86491548190E+03  0.87497074648E+03  0.00000000000E+00 0. -1.
          1    1    1    2  502    0 -0.10113429348E+03  0.66550445465E+01  0.69841303920E+03  0.70572884896E+03  0.00000000000E+00 0. -1.
         22    1    3    3    0    0  0.11739486886E+03 -0.33721130421E+02  0.48883792343E+03  0.50386623747E+03  0.00000000000E+00 0. -1.
         22    1    3    3    0    0  0.16595082744E+02 -0.10105698815E+03  0.29249144387E+03  0.30990184956E+03  0.00000000000E+00 0. -1.
</event>
<event>
 7    1  0.8590287E-006  0.9897454E+02  0.7818608E-02  0.1408834E+00
          2   -1    0    0  502    0  0.00000000000E+00  0.00000000000E+00  0.16890590892E+04  0.16890590892E+04  0.00000000000E+00 0. -1.
          1   -1    0    0  501    0 -0.00000000000E+00 -0.00000000000E+00 -0.13157809659E+04  0.13157809659E+04  0.00000000000E+00 0. -1.
         25    2    1    2    0    0  0.51903296017E+02  0.11763413347E+03 -0.37276913249E+03  0.41365866685E+03  0.12499970010E+03 0.  0.
          2    1    1    2  501    0 -0.24489108638E+02 -0.22642248241E+02 -0.92080034569E+03  0.92140418084E+03  0.00000000000E+00 0. -1.
          1    1    1    2  502    0 -0.27414187379E+02 -0.94991885229E+02  0.16668476015E+04  0.16697772074E+04  0.00000000000E+00 0. -1.
         22    1    3    3    0    0 -0.12853536305E+02  0.11321328621E+03 -0.25167895276E+03  0.27626935558E+03  0.00000000000E+00 0. -1.
         22    1    3    3    0    0  0.64756832321E+02  0.44208472580E+01 -0.12109017973E+03  0.13738931127E+03  0.00000000000E+00 0. -1.
</event>
<event>
 7    1  0.6140348E-006  0.4621638E+02  0.7818608E-02  0.1488158E+00
          2   -1    0    0  502    0  0.00000000000E+00  0.00000000000E+00  0.25461671986E+04  0.25461671986E+04  0.00000000000E+00 0. -1.
          1   -1    0    0  501    0 -0.00000000000E+00 -0.00000000000E+00 -0.12653548922E+03  0.12653548922E+03  0.00000000000E+00 0. -1.
         25    2    1    2    0    0  0.62148366571E+02 -0.35176109549E+02  0.32240066231E+03  0.35308184476E+03  0.12499929556E+03 0.  0.
          2    1    1    2  501    0 -0.16184482129E+02  0.36304186352E+02 -0.10739536580E+03  0.11451504706E+03  0.00000000000E+00 0. -1.
          1    1    1    2  502    0 -0.45963884442E+02 -0.11280768037E+01  0.22046264129E+04  0.22051057961E+04  0.00000000000E+00 0. -1.
         22    1    3    3    0    0  0.39434895572E+02 -0.50651404074E+02  0.55760315579E+02  0.85028751119E+02  0.00000000000E+00 0.  1.
         22    1    3    3    0    0  0.22713471000E+02  0.15475294525E+02  0.26664034673E+03  0.26805309364E+03  0.00000000000E+00 0.  1.
</event>
<event>
 7    1  0.6140348E-006  0.6165389E+02  0.7818608E-02  0.1478123E+00
          2   -1    0    0  502    0  0.00000000000E+00  0.00000000000E+00  0.20054961743E+04  0.20054961743E+04  0.00000000000E+00 0. -1.
          1   -1    0    0  501    0 -0.00000000000E+00 -0.00000000000E+00 -0.88920291093E+01  0.88920291093E+01  0.00000000000E+00 0. -1.
         25    2    1    2    0    0 -0.39243527838E+02  0.88859344043E+01  0.78098008111E+03  0.79194351448E+03  0.12500251488E+03 0.  0.
          2    1    1    2  501    0 -0.15334062152E+02  0.28057747312E+02  0.10250332628E+03  0.10737458985E+03  0.00000000000E+00 0. -1.
          1    1    1    2  502    0  0.54577589990E+02 -0.36943681717E+02  0.11131207378E+04  0.11150700990E+04  0.00000000000E+00 0. -1.
         22    1    3    3    0    0  0.95410488876E+01  0.59253835043E+02  0.30787789743E+03  0.31367315523E+03  0.00000000000E+00 0.  1.
         22    1    3    3    0    0 -0.48784576725E+02 -0.50367900638E+02  0.47310218367E+03  0.47827035925E+03  0.00000000000E+00 0.  1.
</event>
<event>
 7    1  0.6140348E-006  0.1054721E+03  0.7818608E-02  0.1388374E+00
          2   -1    0    0  502    0  0.00000000000E+00  0.00000000000E+00  0.52186295057E+03  0.52186295057E+03  0.00000000000E+00 0. -1.
          1   -1    0    0  501    0 -0.00000000000E+00 -0.00000000000E+00 -0.42682836436E+03  0.42682836436E+03  0.00000000000E+00 0. -1.
         25    2    1    2    0    0  0.76563081907E+02 -0.92645512896E+02  0.28881154146E+02  0.17579341726E+03  0.12499643162E+03 0.  0.
          2    1    1    2  501    0 -0.36595362706E+02 -0.40098566362E+01 -0.34586104424E+03  0.34781483788E+03  0.00000000000E+00 0. -1.
          1    1    1    2  502    0 -0.39967719201E+02  0.96655369532E+02  0.41201447631E+03  0.42508305980E+03  0.00000000000E+00 0. -1.
         22    1    3    3    0    0  0.27896979029E+02 -0.70027526765E+02  0.74036945888E+02  0.10565777444E+03  0.00000000000E+00 0. -1.
         22    1    3    3    0    0  0.48666102878E+02 -0.22617986130E+02 -0.45155791742E+02  0.70135642820E+02  0.00000000000E+00 0. -1.
</event>
<event>
 7    1  0.6140348E-006  0.8158701E+02  0.7818608E-02  0.1329655E+00
          2   -1    0    0  502    0  0.00000000000E+00  0.00000000000E+00  0.15857056402E+04  0.15857056402E+04  0.00000000000E+00 0. -1.
          1   -1    0    0  501    0 -0.00000000000E+00 -0.00000000000E+00 -0.59886506134E+03  0.59886506134E+03  0.00000000000E+00 0. -1.
         25    2    1    2    0    0  0.13429209663E+02 -0.81168105429E+00  0.18533840007E+03  0.22395458506E+03  0.12499732449E+03 0.  0.
          2    1    1    2  501    0 -0.29936814789E+02  0.77073821155E+02 -0.57549778983E+03  0.58140716618E+03  0.00000000000E+00 0. -1.
          1    1    1    2  502    0  0.16507605126E+02 -0.76262140100E+02  0.13769999686E+04  0.13792089503E+04  0.00000000000E+00 0. -1.
         22    1    3    3    0    0 -0.49648390913E+02  0.22665208179E+02  0.56260696709E+02  0.78383291435E+02  0.00000000000E+00 0. -1.
         22    1    3    3    0    0  0.63077600576E+02 -0.23476889233E+02  0.12907770336E+03  0.14557129362E+03  0.00000000000E+00 0. -1.
</event>
<event>
 7    1  0.6140348E-006  0.9026678E+02  0.7818608E-02  0.1319823E+00
          2   -1    0    0  502    0  0.00000000000E+00  0.00000000000E+00  0.18094677116E+04  0.18094677116E+04  0.00000000000E+00 0. -1.
          1   -1    0    0  501    0 -0.00000000000E+00 -0.00000000000E+00 -0.65264365533E+03  0.65264365533E+03  0.00000000000E+00 0. -1.
         25    2    1    2    0    0 -0.13865379743E+03 -0.91157533081E+02  0.45904800973E+03  0.50386969731E+03  0.12500010101E+03 0.  0.
          2    1    1    2  501    0  0.70286197092E+02  0.55840172335E+02 -0.62591317047E+03  0.63231761901E+03  0.00000000000E+00 0. -1.
          1    1    1    2  502    0  0.68367600343E+02  0.35317360746E+02  0.13236892170E+04  0.13259240506E+04  0.00000000000E+00 0. -1.
         22    1    3    3    0    0 -0.10000203960E+03  0.84429292697E+01  0.24075795175E+03  0.26083727170E+03  0.00000000000E+00 0. -1.
         22    1    3    3    0    0 -0.38651757834E+02 -0.99600462351E+02  0.21829005798E+03  0.24303242561E+03  0.00000000000E+00 0. -1.
</event>
<event>
 7    1  0.6140348E-006  0.6436417E+02  0.7818608E-02  0.1450584E+00
          2   -1    0    0  502    0  0.00000000000E+00  0.00000000000E+00  0.61371526333E+03  0.61371526333E+03  0.00000000000E+00 0. -1.
          1   -1    0    0  501    0 -0.00000000000E+00 -0.00000000000E+00 -0.28737487753E+02  0.28737487753E+02  0.00000000000E+00 0. -1.
         25    2    1    2    0    0 -0.80635316360E+02 -0.12528328914E+02  0.39353384911E+03  0.42089481082E+03  0.12499815241E+03 0.  0.
          2    1    1    2  501    0  0.59553911994E+02 -0.18322364572E+02  0.66427156085E+02  0.91076586140E+02  0.00000000000E+00 0. -1.
          1    1    1    2  502    0  0.21081404366E+02  0.30850693486E+02  0.12501677037E+03  0.13048135412E+03  0.00000000000E+00 0. -1.
         22    1    3    3    0    0 -0.73568801096E+02  0.47116577736E+02  0.26479196721E+03  0.27883171680E+03  0.00000000000E+00 0.  1.
         22    1    3    3    0    0 -0.70665152639E+01 -0.59644906650E+02  0.12874188190E+03  0.14206309402E+03  0.00000000000E+00 0.  1.
</event>
<event>
 7    1  0.6140348E-006  0.1008936E+03  0.7818608E-02  0.1299654E+00
          2   -1    0    0  502    0  0.00000000000E+00  0.00000000000E+00  0.59283848725E+03  0.59283848725E+03  0.00000000000E+00 0. -1.
          1   -1    0    0  501    0 -0.00000000000E+00 -0.00000000000E+00 -0.13427917224E+04  0.13427917224E+04  0.00000000000E+00 0. -1.
         25    2    1    2    0    0  0.21117492267E+02 -0.13319408233E+03 -0.22584789023E+02  0.18526043862E+03  0.12499898149E+03 0.  0.
          2    1    1    2  501    0  0.52052191490E+02  0.64237157392E+02 -0.12325299179E+04  0.12352998994E+04  0.00000000000E+00 0. -1.
          1    1    1    2  502    0 -0.73169683757E+02  0.68956924942E+02  0.50516147174E+03  0.51506987162E+03  0.00000000000E+00 0. -1.
         22    1    3    3    0    0  0.33487363818E+02  0.13201917081E+02 -0.12076005711E+02  0.37967407918E+02  0.00000000000E+00 0. -1.
         22    1    3    3    0    0 -0.12369871551E+02 -0.14639599942E+03 -0.10508783313E+02  0.14729303070E+03  0.00000000000E+00 0. -1.
</event>
<event>
 7    1  0.6140348E-006  0.6550478E+02  0.7818608E-02  0.1510422E+00
          2   -1    0    0  502    0  0.00000000000E+00  0.00000000000E+00  0.12121621463E+04  0.12121621463E+04  0.00000000000E+00 0. -1.
          1   -1    0    0  501    0 -0.00000000000E+00 -0.00000000000E+00 -0.69891499103E+03  0.69891499103E+03  0.00000000000E+00 0. -1.
         25    2    1    2    0    0 -0.27418831197E+02 -0.79044748914E+02  0.14664955467E+03  0.21007327869E+03  0.12499930359E+03 0.  0.
          2    1    1    2  501    0  0.79750322257E+01  0.64869947924E+02 -0.66546195764E+03  0.66866383808E+03  0.00000000000E+00 0. -1.
          1    1    1    2  502    0  0.19443798972E+02  0.14174800990E+02  0.10320595582E+04  0.10323400205E+04  0.00000000000E+00 0. -1.
         22    1    3    3    0    0  0.20741495033E+02 -0.14098152127E+02  0.12342786309E+03  0.12595000951E+03  0.00000000000E+00 0. -1.
         22    1    3    3    0    0 -0.48160326231E+02 -0.64946596787E+02  0.23221691585E+02  0.84123269176E+02  0.00000000000E+00 0. -1.
</event>
<event>
 7    1  0.6140348E-006  0.5216133E+02  0.7818608E-02  0.1466591E+00
          2   -1    0    0  502    0  0.00000000000E+00  0.00000000000E+00  0.15352724170E+04  0.15352724170E+04  0.00000000000E+00 0. -1.
          1   -1    0    0  501    0 -0.00000000000E+00 -0.00000000000E+00 -0.20183956317E+03  0.20183956317E+03  0.00000000000E+00 0. -1.
         25    2    1    2    0    0  0.64363526297E+01 -0.18703463090E+02  0.35736637382E+03  0.37911416973E+03  0.12500232951E+03 0.  0.
          2    1    1    2  501    0  0.23111331562E+02  0.47180150249E+02 -0.18698359511E+03  0.19422400744E+03  0.00000000000E+00 0. -1.
          1    1    1    2  502    0 -0.29547684192E+02 -0.28476687159E+02  0.11630500751E+04  0.11637738030E+04  0.00000000000E+00 0. -1.
         22    1    3    3    0    0  0.24871670667E+02 -0.62276402109E+02  0.12371585523E+03  0.14072158007E+03  0.00000000000E+00 0.  1.
         22    1    3    3    0    0 -0.18435318038E+02  0.43572939019E+02  0.23365051859E+03  0.23839258966E+03  0.00000000000E+00 0.  1.
</event>
<event>
 7    1  0.6140348E-006  0.8276991E+02  0.7818608E-02  0.1448785E+00
          2   -1    0    0  502    0  0.00000000000E+00  0.00000000000E+00  0.54420539472E+03  0.54420539472E+03  0.00000000000E+00 0. -1.
          1   -1    0    0  501    0 -0.00000000000E+00 -0.00000000000E+00 -0.89485900685E+03  0.89485900685E+03  0.00000000000E+00 0. -1.
         25    2    1    2    0    0 -0.98609163388E+02 -0.51490808002E+02 -0.58568804954E+03  0.60912264501E+03  0.12499933951E+03 0.  0.
          2    1    1    2  501    0  0.22813290121E+02  0.18615271400E+02 -0.29350792996E+03  0.29498115107E+03  0.00000000000E+00 0. -1.
          1    1    1    2  502    0  0.75795873267E+02  0.32875536602E+02  0.52854236737E+03  0.53496060548E+03  0.00000000000E+00 0. -1.
         22    1    3    3    0    0 -0.32036495980E+02  0.20936921577E+02 -0.37100013297E+03  0.37296888667E+03  0.00000000000E+00 0.  1.
         22    1    3    3    0    0 -0.66572667409E+02 -0.72427729578E+02 -0.21468791657E+03  0.23615375834E+03  0.00000000000E+00 0.  1.
</event>
<event>
 7    1  0.6140348E-006  0.5616759E+02  0.7818608E-02  0.1498253E+00
          2   -1    0    0  502    0  0.00000000000E+00  0.00000000000E+00  0.81004343908E+02  0.81004343908E+02  0.00000000000E+00 0. -1.
          1   -1    0    0  501    0 -0.00000000000E+00 -0.00000000000E+00 -0.45176308401E+03  0.45176308401E+03  0.00000000000E+00 0. -1.
         25    2    1    2    0    0 -0.41553153453E+02  0.29291723425E+02 -0.58497765312E+02  0.14707884876E+03  0.12500211832E+03 0.  0.
          2    1    1    2  501    0  0.21787195595E+02 -0.52512666316E+02 -0.33984606124E+03  0.34456872661E+03  0.00000000000E+00 0. -1.
          1    1    1    2  502    0  0.19765957859E+02  0.23220942891E+02  0.27585086453E+02  0.41119852546E+02  0.00000000000E+00 0. -1.
         22    1    3    3    0    0 -0.47608457345E+02  0.27230618157E+02 -0.95175579440E+02  0.10984745194E+03  0.00000000000E+00 0. -1.
         22    1    3    3    0    0  0.60553038914E+01  0.20611052683E+01  0.36677814128E+02  0.37231396822E+02  0.00000000000E+00 0. -1.
</event>
<event>
 7    1  0.6140348E-006  0.1456709E+03  0.7818608E-02  0.1312624E+00
          2   -1    0    0  502    0  0.00000000000E+00  0.00000000000E+00  0.53513109651E+02  0.53513109651E+02  0.00000000000E+00 0. -1.
          1   -1    0    0  501    0 -0.00000000000E+00 -0.00000000000E+00 -0.14563108452E+04  0.14563108452E+04  0.00000000000E+00 0. -1.
         25    2    1    2    0    0  0.12065472291E+03 -0.17082620730E+02 -0.53926900415E+03  0.56682037671E+03  0.12499961010E+03 0.  0.
          2    1    1    2  501    0  0.18488576835E+02 -0.47391416439E+02 -0.75117471479E+03  0.75289522908E+03  0.00000000000E+00 0. -1.
          1    1    1    2  502    0 -0.13914329975E+03  0.64474037170E+02 -0.11235401659E+03  0.19010834905E+03  0.00000000000E+00 0. -1.
         22    1    3    3    0    0  0.81876481730E+02 -0.64999867721E+02 -0.41683274380E+03  0.42974210565E+03  0.00000000000E+00 0. -1.
         22    1    3    3    0    0  0.38778241182E+02  0.47917246990E+02 -0.12243626035E+03  0.13707827106E+03  0.00000000000E+00 0. -1.
</event>
<event>
 7    1  0.6140348E-006  0.1025953E+03  0.7818608E-02  0.1407020E+00
          2   -1    0    0  502    0  0.00000000000E+00  0.00000000000E+00  0.12495786067E+04  0.12495786067E+04  0.00000000000E+00 0. -1.
          1   -1    0    0  501    0 -0.00000000000E+00 -0.00000000000E+00 -0.29484862273E+03  0.29484862273E+03  0.00000000000E+00 0. -1.
         25    2    1    2    0    0 -0.66257181447E+02  0.73953971899E+02  0.29742193572E+03  0.33755405590E+03  0.12499491491E+03 0.  0.
          2    1    1    2  501    0 -0.23732514578E+02 -0.22402125208E+02 -0.27091536612E+03  0.27287400584E+03  0.00000000000E+00 0. -1.
          1    1    1    2  502    0  0.89989696025E+02 -0.51551846691E+02  0.92822341439E+03  0.93399916773E+03  0.00000000000E+00 0. -1.
         22    1    3    3    0    0  0.30300705871E+01 -0.29194590667E+02  0.26706829193E+02  0.39683248072E+02  0.00000000000E+00 0.  1.
         22    1    3    3    0    0 -0.69287252035E+02  0.10314856257E+03  0.27071510653E+03  0.29787080783E+03  0.00000000000E+00 0.  1.
</event>
<event>
 7    1  0.6140348E-006  0.8031383E+02  0.7818608E-02  0.1352246E+00
          2   -1    0    0  502    0  0.00000000000E+00  0.00000000000E+00  0.86177812927E+03  0.86177812927E+03  0.00000000000E+00 0. -1.
          1   -1    0    0  501    0 -0.00000000000E+00 -0.00000000000E+00 -0.11926104376E+04  0.11926104376E+04  0.00000000000E+00 0. -1.
         25    2    1    2    0    0  0.25686184251E+02  0.16803776007E+02  0.46843482425E+03  0.48579610215E+03  0.12499808535E+03 0.  0.
          2    1    1    2  501    0 -0.94161493779E+01 -0.79935328933E+02 -0.11797863762E+04  0.11825287372E+04  0.00000000000E+00 0. -1.
          1    1    1    2  502    0 -0.16270034873E+02  0.63131552926E+02  0.38051924361E+03  0.38606372760E+03  0.00000000000E+00 0. -1.
         22    1    3    3    0    0 -0.30209892010E+02  0.53775577257E+02  0.22089065073E+03  0.22934064155E+03  0.00000000000E+00 0.  1.
         22    1    3    3    0    0  0.55896076261E+02 -0.36971801250E+02  0.24754417351E+03  0.25645546060E+03  0.00000000000E+00 0.  1.
</event>
<event>
 7    1  0.6140348E-006  0.1123521E+03  0.7818608E-02  0.1303907E+00
          2   -1    0    0  502    0  0.00000000000E+00  0.00000000000E+00  0.36882560531E+03  0.36882560531E+03  0.00000000000E+00 0. -1.
          1   -1    0    0  501    0 -0.00000000000E+00 -0.00000000000E+00 -0.39072995449E+03  0.39072995449E+03  0.00000000000E+00 0. -1.
         25    2    1    2    0    0  0.13593891371E+03  0.20510973403E+02  0.23069382674E+03  0.29621719412E+03  0.12499958442E+03 0.  0.
          2    1    1    2  501    0 -0.57598972330E+02  0.42195101547E+02 -0.32935289163E+03  0.33700355403E+03  0.00000000000E+00 0. -1.
          1    1    1    2  502    0 -0.78339941381E+02 -0.62706074950E+02  0.76754715705E+02  0.12633481165E+03  0.00000000000E+00 0. -1.
         22    1    3    3    0    0 -0.16991888994E+02  0.15322827664E+02  0.48053121072E+01  0.23379571502E+02  0.00000000000E+00 0.  1.
         22    1    3    3    0    0  0.15293080270E+03  0.51881457393E+01  0.22588851463E+03  0.27283762261E+03  0.00000000000E+00 0.  1.
</event>
<event>
 7    1  0.6140348E-006  0.1523081E+03  0.7818608E-02  0.1262288E+00
          2   -1    0    0  502    0  0.00000000000E+00  0.00000000000E+00  0.18770232391E+04  0.18770232391E+04  0.00000000000E+00 0. -1.
          1   -1    0    0  501    0 -0.00000000000E+00 -0.00000000000E+00 -0.32538890409E+03  0.32538890409E+03  0.00000000000E+00 0. -1.
         25    2    1    2    0    0  0.16325790079E+03  0.44522807560E+02  0.23835389050E+03  0.31791921546E+03  0.12499851151E+03 0.  0.
          2    1    1    2  501    0 -0.11191511450E+03 -0.10339701849E+03 -0.26424914602E+03  0.30503040415E+03  0.00000000000E+00 0. -1.
          1    1    1    2  502    0 -0.51342786284E+02  0.58874210928E+02  0.15775295905E+04  0.15794625235E+04  0.00000000000E+00 0. -1.
         22    1    3    3    0    0  0.17812859397E+03  0.41109037470E+02  0.24094102747E+03  0.30244392484E+03  0.00000000000E+00 0.  1.
         22    1    3    3    0    0 -0.14870693187E+02  0.34137700898E+01 -0.25871369706E+01  0.15475290621E+02  0.00000000000E+00 0.  1.
</event>
<event>
 7    1  0.6140348E-006  0.1180041E+03  0.7818608E-02  0.1263508E+00
          2   -1    0    0  502    0  0.00000000000E+00  0.00000000000E+00  0.85178082219E+03  0.85178082219E+03  0.00000000000E+00 0. -1.
          1   -1    0    0  501    0 -0.00000000000E+00 -0.00000000000E+00 -0.42085922859E+03  0.42085922859E+03  0.00000000000E+00 0. -1.
         25    2    1    2    0    0  0.27428039309E+01 -0.58500481741E+02 -0.74998405518E+02  0.15709410092E+03  0.12499586543E+03 0.  0.
          2    1    1    2  501    0 -0.77451653363E+02  0.12441526266E+03 -0.28388501712E+03  0.31948179781E+03  0.00000000000E+00 0. -1.
          1    1    1    2  502    0  0.74708849432E+02 -0.65914780916E+02  0.78980501623E+03  0.79606415206E+03  0.00000000000E+00 0. -1.
         22    1    3    3    0    0 -0.19784343184E+02 -0.42382989945E+02 -0.10579502794E+03  0.11567335911E+03  0.00000000000E+00 0. -1.
         22    1    3    3    0    0  0.22527147115E+02 -0.16117491796E+02  0.30796622421E+02  0.41420741802E+02  0.00000000000E+00 0. -1.
</event>
<event>
 7    1  0.6140348E-006  0.6165713E+02  0.7818608E-02  0.1441538E+00
          2   -1    0    0  502    0  0.00000000000E+00  0.00000000000E+00  0.60463120572E+03  0.60463120572E+03  0.00000000000E+00 0. -1.
          1   -1    0    0  501    0 -0.00000000000E+00 -0.00000000000E+00 -0.14767519581E+03  0.14767519581E+03  0.00000000000E+00 0. -1.
         25    2    1    2    0    0 -0.51051936284E+01 -0.38003581515E+02  0.30186483464E+03  0.32896489623E+03  0.12500075739E+03 0.  0.
          2    1    1    2  501    0  0.46673477780E+02  0.41437561898E+02 -0.12523674152E+03  0.13992757587E+03  0.00000000000E+00 0. -1.
          1    1    1    2  502    0 -0.41568284151E+02 -0.34339803826E+01  0.28032791678E+03  0.28341392943E+03  0.00000000000E+00 0. -1.
         22    1    3    3    0    0 -0.37807071176E+02  0.17123086950E+02  0.22539853450E+03  0.22918785765E+03  0.00000000000E+00 0.  1.
         22    1    3    3    0    0  0.32701877547E+02 -0.55126668465E+02  0.76466300139E+02  0.99777038582E+02  0.00000000000E+00 0.  1.
</event>
<event>
 7    1  0.6140348E-006  0.1019410E+03  0.7818608E-02  0.1306227E+00
          2   -1    0    0  502    0  0.00000000000E+00  0.00000000000E+00  0.49516778125E+03  0.49516778125E+03  0.00000000000E+00 0. -1.
          1   -1    0    0  501    0 -0.00000000000E+00 -0.00000000000E+00 -0.52073133599E+03  0.52073133599E+03  0.00000000000E+00 0. -1.
         25    2    1    2    0    0  0.32126090363E+02 -0.98452406750E+02 -0.84011469580E+02  0.18277603009E+03  0.12499675227E+03 0.  0.
          2    1    1    2  501    0  0.44851775732E+02  0.95338155720E+02 -0.37672606302E+03  0.39118227501E+03  0.00000000000E+00 0. -1.
          1    1    1    2  502    0 -0.76977866095E+02  0.31142510299E+01  0.43517397786E+03  0.44194081214E+03  0.00000000000E+00 0. -1.
         22    1    3    3    0    0  0.29108288880E+02 -0.70389403903E+02 -0.11684393275E+03  0.13947926471E+03  0.00000000000E+00 0.  1.
         22    1    3    3    0    0  0.30178014828E+01 -0.28063002847E+02  0.32832463170E+02  0.43296765380E+02  0.00000000000E+00 0.  1.
</event>
<event>
 7    1  0.6140348E-006  0.5833553E+02  0.7818608E-02  0.1422602E+00
          2   -1    0    0  502    0  0.00000000000E+00  0.00000000000E+00  0.60708040765E+03  0.60708040765E+03  0.00000000000E+00 0. -1.
          1   -1    0    0  501    0 -0.00000000000E+00 -0.00000000000E+00 -0.25866771146E+04  0.25866771146E+04  0.00000000000E+00 0. -1.
         25    2    1    2    0    0 -0.57495207232E+02 -0.14677851714E+02  0.70045309873E+02  0.15510718096E+03  0.12502301374E+03 0.  0.
          2    1    1    2  501    0  0.99370941470E+01  0.49888524854E+02 -0.25421205788E+04  0.25426294752E+04  0.00000000000E+00 0. -1.
          1    1    1    2  502    0  0.47558113085E+02 -0.35210673140E+02  0.49247856198E+03  0.49602086613E+03  0.00000000000E+00 0. -1.
         22    1    3    3    0    0 -0.71564364769E+02 -0.51265094421E+02  0.74932392999E+02  0.11560463542E+03  0.00000000000E+00 0. -1.
         22    1    3    3    0    0  0.14069157536E+02  0.36587242707E+02 -0.48870831259E+01  0.39502545540E+02  0.00000000000E+00 0. -1.
</event>
<event>
 7    1  0.6140348E-006  0.7293088E+02  0.7818608E-02  0.1477824E+00
          2   -1    0    0  502    0  0.00000000000E+00  0.00000000000E+00  0.56546623639E+02  0.56546623639E+02  0.00000000000E+00 0. -1.
          1   -1    0    0  501    0 -0.00000000000E+00 -0.00000000000E+00 -0.83151548247E+03  0.83151548247E+03  0.00000000000E+00 0. -1.
         25    2    1    2    0    0  0.47487534950E+02 -0.77739323339E+02 -0.10263861649E+03  0.18561329520E+03  0.12497656337E+03 0.  0.
          2    1    1    2  501    0 -0.16130947516E+02  0.21760871073E+02 -0.61737405103E+03  0.61796801038E+03  0.00000000000E+00 0. -1.
          1    1    1    2  502    0 -0.31356587434E+02  0.55978452266E+02 -0.54956191312E+02  0.84480800523E+02  0.00000000000E+00 0. -1.
         22    1    3    3    0    0  0.60008059996E+02 -0.97998764978E+02 -0.11158266313E+03  0.16017308111E+03  0.00000000000E+00 0.  1.
         22    1    3    3    0    0 -0.12520525046E+02  0.20259441639E+02  0.89440466330E+01  0.25440214093E+02  0.00000000000E+00 0.  1.
</event>
<event>
 7    1  0.6140348E-006  0.7103735E+02  0.7818608E-02  0.1407369E+00
          2   -1    0    0  502    0  0.00000000000E+00  0.00000000000E+00  0.21154450798E+04  0.21154450798E+04  0.00000000000E+00 0. -1.
          1   -1    0    0  501    0 -0.00000000000E+00 -0.00000000000E+00 -0.11177103295E+04  0.11177103295E+04  0.00000000000E+00 0. -1.
         25    2    1    2    0    0  0.88110783382E+02  0.63423139455E+02  0.41357386869E+03  0.44548181085E+03  0.12499877666E+03 0.  0.
          2    1    1    2  501    0 -0.67756817224E+02 -0.21053556197E+02 -0.11002858395E+04  0.11025711619E+04  0.00000000000E+00 0. -1.
          1    1    1    2  502    0 -0.20353966158E+02 -0.42369583258E+02  0.16844467211E+04  0.16851024366E+04  0.00000000000E+00 0. -1.
         22    1    3    3    0    0  0.11683963715E+03  0.60402304505E+02  0.28777078066E+03  0.31640474302E+03  0.00000000000E+00 0. -1.
         22    1    3    3    0    0 -0.28728853771E+02  0.30208349502E+01  0.12580308803E+03  0.12907706783E+03  0.00000000000E+00 0. -1.
</event>
<event>
 7    1  0.8197612E-006  0.8463347E+02  0.7818608E-02  0.1332223E+00
          2   -1    0    0  502    0  0.00000000000E+00  0.00000000000E+00  0.20012491515E+04  0.20012491515E+04  0.00000000000E+00 0. -1.
          1   -1    0    0  501    0 -0.00000000000E+00 -0.00000000000E+00 -0.27273128833E+04  0.27273128833E+04  0.00000000000E+00 0. -1.
         25    2    1    2    0    0 -0.28100461949E+02  0.60988077533E+02 -0.20388082419E+03  0.24839799722E+03  0.12499997194E+03 0.  0.
          2    1    1    2  501    0  0.72687893936E+02  0.11172233446E+02 -0.24997235046E+04  0.25008050600E+04  0.00000000000E+00 0. -1.
          1    1    1    2  502    0 -0.44587431987E+02 -0.72160310980E+02  0.19775405970E+04  0.19793589776E+04  0.00000000000E+00 0. -1.
         22    1    3    3    0    0 -0.37575852716E+02  0.58813883225E+02 -0.21931775876E+03  0.23015494101E+03  0.00000000000E+00 0. -1.
         22    1    3    3    0    0  0.94753907671E+01  0.21741943082E+01  0.15436934561E+02  0.18243056206E+02  0.00000000000E+00 0. -1.
</event>
<event>
 7    1  0.6140348E-006  0.5945984E+02  0.7818608E-02  0.1423926E+00
          2   -1    0    0  502    0  0.00000000000E+00  0.00000000000E+00  0.59164792668E+03  0.59164792668E+03  0.00000000000E+00 0. -1.
          1   -1    0    0  501    0 -0.00000000000E+00 -0.00000000000E+00 -0.10095511782E+04  0.10095511782E+04  0.00000000000E+00 0. -1.
         25    2    1    2    0    0  0.39948189313E+02 -0.92751467191E+02  0.19655833348E+03  0.25388692771E+03  0.12499880441E+03 0.  0.
          2    1    1    2  501    0 -0.36825802019E+01  0.59203296338E+02 -0.97831927945E+03  0.98011591367E+03  0.00000000000E+00 0. -1.
          1    1    1    2  502    0 -0.36265609111E+02  0.33548170853E+02  0.36385769442E+03  0.36719626354E+03  0.00000000000E+00 0. -1.
         22    1    3    3    0    0 -0.90671824014E+01 -0.42763555419E+02  0.17537789460E+03  0.18074385573E+03  0.00000000000E+00 0.  1.
         22    1    3    3    0    0  0.49015371714E+02 -0.49987911772E+02  0.21180438881E+02  0.73143071981E+02  0.00000000000E+00 0.  1.
</event>
<event>
 7    1  0.6140348E-006  0.5783631E+02  0.7818608E-02  0.1424109E+00
          2   -1    0    0  502    0  0.00000000000E+00  0.00000000000E+00  0.22558610678E+03  0.22558610678E+03  0.00000000000E+00 0. -1.
          1   -1    0    0  501    0 -0.00000000000E+00 -0.00000000000E+00 -0.43128947954E+03  0.43128947954E+03  0.00000000000E+00 0. -1.
         25    2    1    2    0    0 -0.19979170029E+02  0.83468589378E+02 -0.92506895940E+02  0.17761850599E+03  0.12499854089E+03 0.  0.
          2    1    1    2  501    0 -0.20615030742E+02 -0.53062249352E+02 -0.28989092528E+03  0.29542736900E+03  0.00000000000E+00 0. -1.
          1    1    1    2  502    0  0.40594200772E+02 -0.30406340026E+02  0.17669444846E+03  0.18382971132E+03  0.00000000000E+00 0. -1.
         22    1    3    3    0    0  0.48819945554E+02  0.48650472783E+02 -0.67720825366E+02  0.96624871405E+02  0.00000000000E+00 0.  1.
         22    1    3    3    0    0 -0.68799115584E+02  0.34818116595E+02 -0.24786070574E+02  0.80993634582E+02  0.00000000000E+00 0.  1.
</event>
<event>
 7    1  0.6140348E-006  0.1013991E+03  0.7818608E-02  0.1301776E+00
          2   -1    0    0  502    0  0.00000000000E+00  0.00000000000E+00  0.37248488780E+03  0.37248488780E+03  0.00000000000E+00 0. -1.
          1   -1    0    0  501    0 -0.00000000000E+00 -0.00000000000E+00 -0.73214455529E+03  0.73214455529E+03  0.00000000000E+00 0. -1.
         25    2    1    2    0    0 -0.10553750458E+03  0.29430795501E+02 -0.24704991702E+03  0.29776273732E+03  0.12499859856E+03 0.  0.
          2    1    1    2  501    0  0.53397426451E+02 -0.90993710210E+02 -0.44885025118E+03  0.46108316867E+03  0.00000000000E+00 0. -1.
          1    1    1    2  502    0  0.52140078131E+02  0.61562914709E+02  0.33624050071E+03  0.34578353710E+03  0.00000000000E+00 0. -1.
         22    1    3    3    0    0 -0.50491367729E+02  0.70292652245E+02 -0.82781839435E+02  0.11976338387E+03  0.00000000000E+00 0.  1.
         22    1    3    3    0    0 -0.55046136854E+02 -0.40861856744E+02 -0.16426807758E+03  0.17799935346E+03  0.00000000000E+00 0.  1.
</event>
<event>
 7    1  0.6140348E-006  0.1098897E+03  0.7818608E-02  0.1329165E+00
          2   -1    0    0  502    0  0.00000000000E+00  0.00000000000E+00  0.66173378861E+03  0.66173378861E+03  0.00000000000E+00 0. -1.
          1   -1    0    0  501    0 -0.00000000000E+00 -0.00000000000E+00 -0.16869336238E+03  0.16869336238E+03  0.00000000000E+00 0. -1.
         25    2    1    2    0    0 -0.52125693858E+02  0.11277611979E+03  0.27726567991E+02  0.17840108293E+03  0.12499057030E+03 0.  0.
          2    1    1    2  501    0  0.86555744242E+02 -0.65874791997E+02 -0.59509873802E+02  0.12398713708E+03  0.00000000000E+00 0. -1.
          1    1    1    2  502    0 -0.34430050384E+02 -0.46901327792E+02  0.52482373204E+03  0.52803893098E+03  0.00000000000E+00 0. -1.
         22    1    3    3    0    0 -0.78656537272E+02  0.12411397271E+03  0.27816981365E+02  0.14954903386E+03  0.00000000000E+00 0.  1.
         22    1    3    3    0    0  0.26530843414E+02 -0.11337852919E+02 -0.90413374055E-01  0.28852049072E+02  0.00000000000E+00 0.  1.
</event>
<event>
 7    1  0.6140348E-006  0.4544239E+02  0.7818608E-02  0.1549450E+00
          2   -1    0    0  502    0  0.00000000000E+00  0.00000000000E+00  0.19852284357E+04  0.19852284357E+04  0.00000000000E+00 0. -1.
          1   -1    0    0  501    0 -0.00000000000E+00 -0.00000000000E+00 -0.79443806159E+02  0.79443806159E+02  0.00000000000E+00 0. -1.
         25    2    1    2    0    0  0.14111302412E+02  0.37855195551E+02  0.16171530591E+03  0.20835252582E+03  0.12500716045E+03 0.  0.
          2    1    1    2  501    0  0.11858852070E+02 -0.44514350086E+02 -0.46555120959E+02  0.65494572474E+02  0.00000000000E+00 0. -1.
          1    1    1    2  502    0 -0.25970154482E+02  0.66591545354E+01  0.17906244446E+04  0.17908251436E+04  0.00000000000E+00 0. -1.
         22    1    3    3    0    0 -0.50048748443E+02  0.23386624789E+02  0.11530474981E+03  0.12785537442E+03  0.00000000000E+00 0.  1.
         22    1    3    3    0    0  0.64160050855E+02  0.14468570762E+02  0.46410556100E+02  0.80497151398E+02  0.00000000000E+00 0.  1.
</event>
<event>
 7    1  0.6140348E-006  0.7151616E+02  0.7818608E-02  0.1375139E+00
          2   -1    0    0  502    0  0.00000000000E+00  0.00000000000E+00  0.27671528742E+03  0.27671528742E+03  0.00000000000E+00 0. -1.
          1   -1    0    0  501    0 -0.00000000000E+00 -0.00000000000E+00 -0.87087550046E+02  0.87087550046E+02  0.00000000000E+00 0. -1.
         25    2    1    2    0    0 -0.79696478299E+02  0.79131968013E+01  0.10751721815E+03  0.18330270580E+03  0.12500312963E+03 0.  0.
          2    1    1    2  501    0  0.56626692639E+02  0.47978012905E+02 -0.50829197356E+01  0.74392930542E+02  0.00000000000E+00 0. -1.
          1    1    1    2  502    0  0.23069785660E+02 -0.55891209707E+02  0.87193438960E+02  0.10610720113E+03  0.00000000000E+00 0. -1.
         22    1    3    3    0    0  0.68579478934E+01 -0.44304697820E+02  0.49359961482E+02  0.66680908030E+02  0.00000000000E+00 0. -1.
         22    1    3    3    0    0 -0.86554426192E+02  0.52217894621E+02  0.58157256669E+02  0.11662179777E+03  0.00000000000E+00 0. -1.
</event>
<event>
 7    1  0.6140348E-006  0.9080178E+02  0.7818608E-02  0.1396859E+00
          2   -1    0    0  502    0  0.00000000000E+00  0.00000000000E+00  0.13563339523E+04  0.13563339523E+04  0.00000000000E+00 0. -1.
          1   -1    0    0  501    0 -0.00000000000E+00 -0.00000000000E+00 -0.36425581937E+03  0.36425581937E+03  0.00000000000E+00 0. -1.
         25    2    1    2    0    0 -0.81501624504E+02  0.14613413071E+02  0.51621093352E+03  0.53754525674E+03  0.12500043410E+03 0.  0.
          2    1    1    2  501    0  0.87513690859E+02  0.24886337360E+02 -0.34724322138E+03  0.35896494351E+03  0.00000000000E+00 0. -1.
          1    1    1    2  502    0 -0.60120663553E+01 -0.39499750432E+02  0.82311042076E+03  0.82407957139E+03  0.00000000000E+00 0. -1.
         22    1    3    3    0    0 -0.99923231671E+02 -0.18937332640E+02  0.44731841858E+03  0.45873417400E+03  0.00000000000E+00 0. -1.
         22    1    3    3    0    0  0.18421607167E+02  0.33550745711E+02  0.68892514938E+02  0.78811082742E+02  0.00000000000E+00 0. -1.
</event>
<event>
 7    1  0.6140348E-006  0.1665660E+03  0.7818608E-02  0.1186359E+00
          2   -1    0    0  502    0  0.00000000000E+00  0.00000000000E+00  0.20820386096E+03  0.20820386096E+03  0.00000000000E+00 0. -1.
          1   -1    0    0  501    0 -0.00000000000E+00 -0.00000000000E+00 -0.84215522509E+03  0.84215522509E+03  0.00000000000E+00 0. -1.
         25    2    1    2    0    0 -0.39731156031E+02 -0.12918110143E+03 -0.73917821359E+01  0.18424236579E+03  0.12499715670E+03 0.  0.
          2    1    1    2  501    0  0.15805984543E+03 -0.52548381340E+02 -0.62752702053E+03  0.64925681253E+03  0.00000000000E+00 0. -1.
          1    1    1    2  502    0 -0.11832868939E+03  0.18172948277E+03  0.96743853866E+00  0.21685990773E+03  0.00000000000E+00 0. -1.
         22    1    3    3    0    0 -0.46421548435E+02 -0.24092656282E+02 -0.48378834879E+02  0.71245546599E+02  0.00000000000E+00 0. -1.
         22    1    3    3    0    0  0.66903924047E+01 -0.10508844515E+03  0.40987052744E+02  0.11299681919E+03  0.00000000000E+00 0. -1.
</event>
<event>
 7    1  0.6140348E-006  0.8048507E+02  0.7818608E-02  0.1410849E+00
          2   -1    0    0  502    0  0.00000000000E+00  0.00000000000E+00  0.87785742919E+03  0.87785742919E+03  0.00000000000E+00 0. -1.
          1   -1    0    0  501    0 -0.00000000000E+00 -0.00000000000E+00 -0.44671335684E+03  0.44671335684E+03  0.00000000000E+00 0. -1.
         25    2    1    2    0    0 -0.68370369750E+02 -0.76540760944E+02  0.27729398763E+03  0.32101390950E+03  0.12499991588E+03 0.  0.
          2    1    1    2  501    0  0.28016523982E+02  0.75245316873E+02 -0.42034465903E+03  0.42794440726E+03  0.00000000000E+00 0. -1.
          1    1    1    2  502    0  0.40353845768E+02  0.12954440712E+01  0.57419474374E+03  0.57561246928E+03  0.00000000000E+00 0. -1.
         22    1    3    3    0    0  0.86959520088E+01  0.28511511691E+02  0.35531103004E+02  0.46378714525E+02  0.00000000000E+00 0. -1.
         22    1    3    3    0    0 -0.77066321759E+02 -0.10505227264E+03  0.24176288463E+03  0.27463519497E+03  0.00000000000E+00 0. -1.
</event>
<event>
 7    1  0.6140348E-006  0.1087719E+03  0.7818608E-02  0.1322675E+00
          2   -1    0    0  502    0  0.00000000000E+00  0.00000000000E+00  0.93077482415E+03  0.93077482415E+03  0.00000000000E+00 0. -1.
          1   -1    0    0  501    0 -0.00000000000E+00 -0.00000000000E+00 -0.74750478032E+03  0.74750478032E+03  0.00000000000E+00 0. -1.
         25    2    1    2    0    0 -0.16178921933E+03  0.40711665799E+02  0.10889161090E+03  0.23519094311E+03  0.12499682225E+03 0.  0.
          2    1    1    2  501    0  0.57871262852E+02 -0.22949716338E+02 -0.67926258582E+03  0.68210954622E+03  0.00000000000E+00 0. -1.
          1    1    1    2  502    0  0.10391795648E+03 -0.17761949461E+02  0.75364101875E+03  0.76097911514E+03  0.00000000000E+00 0. -1.
         22    1    3    3    0    0 -0.36605017767E+01  0.41290234054E+02 -0.28723388721E+01  0.41551570754E+02  0.00000000000E+00 0. -1.
         22    1    3    3    0    0 -0.15812871756E+03 -0.57856825550E+00  0.11176394977E+03  0.19363937235E+03  0.00000000000E+00 0. -1.
</event>
<event>
 7    1  0.6140348E-006  0.5378270E+02  0.7818608E-02  0.1467582E+00
          2   -1    0    0  502    0  0.00000000000E+00  0.00000000000E+00  0.10403297155E+04  0.10403297155E+04  0.00000000000E+00 0. -1.
          1   -1    0    0  501    0 -0.00000000000E+00 -0.00000000000E+00 -0.89406832738E+02  0.89406832738E+02  0.00000000000E+00 0. -1.
         25    2    1    2    0    0  0.15778344226E+01  0.16812468429E+02 -0.12273969815E+02  0.12673264812E+03  0.12500146042E+03 0.  0.
          2    1    1    2  501    0 -0.19623139140E+02  0.34300410611E+02  0.12557990858E+01  0.39536853556E+02  0.00000000000E+00 0. -1.
          1    1    1    2  502    0  0.18045304717E+02 -0.51112879040E+02  0.96194105353E+03  0.96346704660E+03  0.00000000000E+00 0. -1.
         22    1    3    3    0    0 -0.11174872387E+02  0.38496583852E+02 -0.60363292282E+02  0.72460967398E+02  0.00000000000E+00 0.  1.
         22    1    3    3    0    0  0.12752706809E+02 -0.21684115423E+02  0.48089322467E+02  0.54271680718E+02  0.00000000000E+00 0.  1.
</event>
<event>
 7    1  0.6140348E-006  0.1164800E+03  0.7818608E-02  0.1301629E+00
          2   -1    0    0  502    0  0.00000000000E+00  0.00000000000E+00  0.29009975426E+03  0.29009975426E+03  0.00000000000E+00 0. -1.
          1   -1    0    0  501    0 -0.00000000000E+00 -0.00000000000E+00 -0.19078728446E+04  0.19078728446E+04  0.00000000000E+00 0. -1.
         25    2    1    2    0    0  0.11713917797E+03 -0.13777094206E+03 -0.78403129157E+02  0.23339742970E+03  0.12499956014E+03 0.  0.
          2    1    1    2  501    0 -0.44615309194E+02  0.54360700818E+02 -0.17368467652E+04  0.17382699150E+04  0.00000000000E+00 0. -1.
          1    1    1    2  502    0 -0.72523868771E+02  0.83410241247E+02  0.19747680408E+03  0.22630525411E+03  0.00000000000E+00 0. -1.
         22    1    3    3    0    0  0.52237329977E+02 -0.10449840873E+03  0.11772572548E+02  0.11741911912E+03  0.00000000000E+00 0.  1.
         22    1    3    3    0    0  0.64901847988E+02 -0.33272533336E+02 -0.90175701704E+02  0.11597831058E+03  0.00000000000E+00 0.  1.
</event>
<event>
 7    1  0.6140348E-006  0.8407969E+02  0.7818608E-02  0.1458783E+00
          2   -1    0    0  502    0  0.00000000000E+00  0.00000000000E+00  0.55360551996E+03  0.55360551996E+03  0.00000000000E+00 0. -1.
          1   -1    0    0  501    0 -0.00000000000E+00 -0.00000000000E+00 -0.31716602123E+04  0.31716602123E+04  0.00000000000E+00 0. -1.
         25    2    1    2    0    0 -0.35044684320E+02 -0.10406508983E+03  0.14060012344E+03  0.21782708985E+03  0.12499029379E+03 0.  0.
          2    1    1    2  501    0  0.20325585010E+02  0.81503766469E+02 -0.31319983197E+04  0.31331245536E+04  0.00000000000E+00 0. -1.
          1    1    1    2  502    0  0.14719099310E+02  0.22561323362E+02  0.37334350393E+03  0.37431408886E+03  0.00000000000E+00 0. -1.
         22    1    3    3    0    0  0.21867732025E+02  0.19121912154E+02  0.14016802071E+02  0.32253929507E+02  0.00000000000E+00 0. -1.
         22    1    3    3    0    0 -0.56912416345E+02 -0.12318700199E+03  0.12658332136E+03  0.18557316034E+03  0.00000000000E+00 0. -1.
</event>
<event>
 7    1  0.6140348E-006  0.6918316E+02  0.7818608E-02  0.1395988E+00
          2   -1    0    0  502    0  0.00000000000E+00  0.00000000000E+00  0.75977976084E+03  0.75977976084E+03  0.00000000000E+00 0. -1.
          1   -1    0    0  501    0 -0.00000000000E+00 -0.00000000000E+00 -0.56745376164E+02  0.56745376164E+02  0.00000000000E+00 0. -1.
         25    2    1    2    0    0 -0.35057884527E+02  0.47114525654E+02  0.38531953445E+03  0.40932262349E+03  0.12500013070E+03 0.  0.
          2    1    1    2  501    0 -0.12438992935E+02 -0.70187500443E+02 -0.12864173350E+02  0.72432732377E+02  0.00000000000E+00 0. -1.
          1    1    1    2  502    0  0.47496877461E+02  0.23072974789E+02  0.33057902358E+03  0.33476978114E+03  0.00000000000E+00 0. -1.
         22    1    3    3    0    0 -0.77243887071E+02  0.47253280377E+02  0.20456369816E+03  0.22370917997E+03  0.00000000000E+00 0.  1.
         22    1    3    3    0    0  0.42186002544E+02 -0.13875472261E+00  0.18075583629E+03  0.18561344352E+03  0.00000000000E+00 0.  1.
</event>
<event>
 7    1  0.6140348E-006  0.9100478E+02  0.7818608E-02  0.1358117E+00
          2   -1    0    0  502    0  0.00000000000E+00  0.00000000000E+00  0.43923986091E+03  0.43923986091E+03  0.00000000000E+00 0. -1.
          1   -1    0    0  501    0 -0.00000000000E+00 -0.00000000000E+00 -0.22444587460E+03  0.22444587460E+03  0.00000000000E+00 0. -1.
         25    2    1    2    0    0  0.92509852737E+02 -0.21163628159E+02  0.13043311678E+03  0.20406867743E+03  0.12500102057E+03 0.  0.
          2    1    1    2  501    0 -0.85587862070E+02 -0.33143156434E+02 -0.17335407501E+03  0.19615143709E+03  0.00000000000E+00 0. -1.
          1    1    1    2  502    0 -0.69219906674E+01  0.54306784593E+02  0.25771494454E+03  0.26346562099E+03  0.00000000000E+00 0. -1.
         22    1    3    3    0    0  0.11323460652E+03 -0.41158784888E+02  0.12701536804E+03  0.17506863056E+03  0.00000000000E+00 0. -1.
         22    1    3    3    0    0 -0.20724753783E+02  0.19995156729E+02  0.34177487472E+01  0.29000046870E+02  0.00000000000E+00 0. -1.
</event>
<event>
 7    1  0.6140348E-006  0.9873414E+02  0.7818608E-02  0.1453840E+00
          2   -1    0    0  502    0  0.00000000000E+00  0.00000000000E+00  0.17368715671E+04  0.17368715671E+04  0.00000000000E+00 0. -1.
          1   -1    0    0  501    0 -0.00000000000E+00 -0.00000000000E+00 -0.60017466167E+02  0.60017466167E+02  0.00000000000E+00 0. -1.
         25    2    1    2    0    0  0.65938439413E+01 -0.77482060860E+02  0.16897758931E+03  0.22410856261E+03  0.12499709441E+03 0.  0.
          2    1    1    2  501    0  0.11384526437E+02 -0.20881060999E+02 -0.26236844969E+02  0.35411836786E+02  0.00000000000E+00 0. -1.
          1    1    1    2  502    0 -0.17978370378E+02  0.98363121859E+02  0.15341133566E+04  0.15373686339E+04  0.00000000000E+00 0. -1.
         22    1    3    3    0    0  0.56333767950E+02 -0.36465349706E+01  0.49294249461E+02  0.74944737364E+02  0.00000000000E+00 0. -1.
         22    1    3    3    0    0 -0.49739924009E+02 -0.73835525890E+02  0.11968333985E+03  0.14916382525E+03  0.00000000000E+00 0. -1.
</event>
<event>
 7    1  0.6140348E-006  0.1004426E+03  0.7818608E-02  0.1341026E+00
          2   -1    0    0  502    0  0.00000000000E+00  0.00000000000E+00  0.30127000606E+03  0.30127000606E+03  0.00000000000E+00 0. -1.
          1   -1    0    0  501    0 -0.00000000000E+00 -0.00000000000E+00 -0.15457402838E+04  0.15457402838E+04  0.00000000000E+00 0. -1.
         25    2    1    2    0    0 -0.37657722988E+02  0.43918897786E+02 -0.93873747427E+02  0.16668770584E+03  0.12500214854E+03 0.  0.
          2    1    1    2  501    0 -0.57382664494E+02 -0.11576969806E+01 -0.14045990496E+04  0.14057711765E+04  0.00000000000E+00 0. -1.
          1    1    1    2  502    0  0.95040387482E+02 -0.42761200805E+02  0.25400251932E+03  0.27455140751E+03  0.00000000000E+00 0. -1.
         22    1    3    3    0    0 -0.39343277769E+02  0.86484861702E+02 -0.68104577632E+02  0.11690063432E+03  0.00000000000E+00 0. -1.
         22    1    3    3    0    0  0.16855547814E+01 -0.42565963916E+02 -0.25769169795E+02  0.49787071524E+02  0.00000000000E+00 0. -1.
</event>
<event>
 7    1  0.6140348E-006  0.4121984E+02  0.7818608E-02  0.1599619E+00
          2   -1    0    0  502    0  0.00000000000E+00  0.00000000000E+00  0.11922896917E+04  0.11922896917E+04  0.00000000000E+00 0. -1.
          1   -1    0    0  501    0 -0.00000000000E+00 -0.00000000000E+00 -0.22288578304E+03  0.22288578304E+03  0.00000000000E+00 0. -1.
         25    2    1    2    0    0  0.49837637965E+02 -0.14041047726E+02  0.60393305633E+02  0.14816415608E+03  0.12499729838E+03 0.  0.
          2    1    1    2  501    0 -0.90570715204E+01  0.19646614304E+02 -0.17795568758E+03  0.17926585492E+03  0.00000000000E+00 0. -1.
          1    1    1    2  502    0 -0.40780566445E+02 -0.56055665778E+01  0.10869662906E+04  0.10877454637E+04  0.00000000000E+00 0. -1.
         22    1    3    3    0    0  0.32224213547E+02 -0.69713293600E+02  0.31421754791E+02  0.82979936837E+02  0.00000000000E+00 0. -1.
         22    1    3    3    0    0  0.17613424419E+02  0.55672245874E+02  0.28971550842E+02  0.65184219245E+02  0.00000000000E+00 0. -1.
</event>
<event>
 7    1  0.6140348E-006  0.1068817E+03  0.7818608E-02  0.1337702E+00
          2   -1    0    0  502    0  0.00000000000E+00  0.00000000000E+00  0.79198497622E+03  0.79198497622E+03  0.00000000000E+00 0. -1.
          1   -1    0    0  501    0 -0.00000000000E+00 -0.00000000000E+00 -0.22906404519E+04  0.22906404519E+04  0.00000000000E+00 0. -1.
         25    2    1    2    0    0  0.64555794706E+02 -0.52615611532E+01 -0.15615134544E+02  0.14164813140E+03  0.12500090418E+03 0.  0.
          2    1    1    2  501    0  0.32556481781E+02 -0.44965080963E+02 -0.22075584468E+04  0.22082563436E+04  0.00000000000E+00 0. -1.
          1    1    1    2  502    0 -0.97112276487E+02  0.50226642116E+02  0.72451810563E+03  0.73272095317E+03  0.00000000000E+00 0. -1.
         22    1    3    3    0    0  0.96645163062E+02 -0.11959688194E+02 -0.35098333020E+02  0.10351432107E+03  0.00000000000E+00 0.  1.
         22    1    3    3    0    0 -0.32089368357E+02  0.66981270410E+01  0.19483198476E+02  0.38133810329E+02  0.00000000000E+00 0.  1.
</event>
<event>
 7    1  0.6140348E-006  0.8329337E+02  0.7818608E-02  0.1378016E+00
          2   -1    0    0  502    0  0.00000000000E+00  0.00000000000E+00  0.63495254898E+02  0.63495254898E+02  0.00000000000E+00 0. -1.
          1   -1    0    0  501    0 -0.00000000000E+00 -0.00000000000E+00 -0.32783259094E+04  0.32783259094E+04  0.00000000000E+00 0. -1.
         25    2    1    2    0    0 -0.50856086117E+02  0.19183338160E+01 -0.18910476202E+03  0.23232728262E+03  0.12500133493E+03 0.  0.
          2    1    1    2  501    0 -0.34133928171E+02 -0.37496242099E+02 -0.30164674742E+04  0.30168936203E+04  0.00000000000E+00 0. -1.
          1    1    1    2  502    0  0.84990014288E+02  0.35577908283E+02 -0.92584182018E+01  0.92600261306E+02  0.00000000000E+00 0. -1.
         22    1    3    3    0    0 -0.44231541828E+02  0.35411723492E+02 -0.20429207366E+02  0.60230988426E+02  0.00000000000E+00 0. -1.
         22    1    3    3    0    0 -0.66245442883E+01 -0.33493389676E+02 -0.16867555465E+03  0.17209629420E+03  0.00000000000E+00 0. -1.
</event>
<event>
 7    1  0.6140348E-006  0.5508479E+02  0.7818608E-02  0.1506182E+00
          2   -1    0    0  502    0  0.00000000000E+00  0.00000000000E+00  0.11470628135E+04  0.11470628135E+04  0.00000000000E+00 0. -1.
          1   -1    0    0  501    0 -0.00000000000E+00 -0.00000000000E+00 -0.12892861006E+04  0.12892861006E+04  0.00000000000E+00 0. -1.
         25    2    1    2    0    0 -0.19548851051E+01 -0.43098714856E+02  0.19504210028E+03  0.23564513574E+03  0.12500355323E+03 0.  0.
          2    1    1    2  501    0 -0.27079661831E+02  0.48028064949E+02 -0.12681527027E+04  0.12693507319E+04  0.00000000000E+00 0. -1.
          1    1    1    2  502    0  0.29034546936E+02 -0.49293500931E+01  0.93088731532E+03  0.93135304650E+03  0.00000000000E+00 0. -1.
         22    1    3    3    0    0 -0.62175191907E+02 -0.22207707828E+02  0.12186139202E+03  0.13859702609E+03  0.00000000000E+00 0.  1.
         22    1    3    3    0    0  0.60220306802E+02 -0.20891007028E+02  0.73180708263E+02  0.97048109656E+02  0.00000000000E+00 0.  1.
</event>
<event>
 7    1  0.6140348E-006  0.5008134E+02  0.7818608E-02  0.1573428E+00
          2   -1    0    0  502    0  0.00000000000E+00  0.00000000000E+00  0.69746950154E+02  0.69746950154E+02  0.00000000000E+00 0. -1.
          1   -1    0    0  501    0 -0.00000000000E+00 -0.00000000000E+00 -0.20879376165E+04  0.20879376165E+04  0.00000000000E+00 0. -1.
         25    2    1    2    0    0 -0.56057697119E+02  0.35339603469E+02 -0.11128340497E+03  0.18000169480E+03  0.12500104372E+03 0.  0.
          2    1    1    2  501    0  0.47169070308E+02 -0.16420854756E+02 -0.19388584531E+04  0.19395016542E+04  0.00000000000E+00 0. -1.
          1    1    1    2  502    0  0.88886268109E+01 -0.18918748713E+02  0.31951191624E+02  0.38181217707E+02  0.00000000000E+00 0. -1.
         22    1    3    3    0    0 -0.32011243844E+02 -0.45925152708E+02 -0.35317295406E+02  0.66190261659E+02  0.00000000000E+00 0.  1.
         22    1    3    3    0    0 -0.24046453276E+02  0.81264756177E+02 -0.75966109562E+02  0.11381143314E+03  0.00000000000E+00 0.  1.
</event>
<event>
 7    1  0.6140348E-006  0.8236560E+02  0.7818608E-02  0.1420341E+00
          2   -1    0    0  502    0  0.00000000000E+00  0.00000000000E+00  0.30807859373E+04  0.30807859373E+04  0.00000000000E+00 0. -1.
          1   -1    0    0  501    0 -0.00000000000E+00 -0.00000000000E+00 -0.21639393120E+03  0.21639393120E+03  0.00000000000E+00 0. -1.
         25    2    1    2    0    0 -0.11532369434E+03 -0.63077807838E+01  0.11350031147E+03  0.20456686031E+03  0.12500374818E+03 0.  0.
          2    1    1    2  501    0  0.35110244744E+02 -0.10540008091E+02 -0.16831254335E+03  0.17225833305E+03  0.00000000000E+00 0. -1.
          1    1    1    2  502    0  0.80213449597E+02  0.16847788875E+02  0.29192042379E+04  0.29203546751E+04  0.00000000000E+00 0. -1.
         22    1    3    3    0    0  0.27132052444E+02 -0.40219748366E+01  0.14060843348E+02  0.30822586962E+02  0.00000000000E+00 0. -1.
         22    1    3    3    0    0 -0.14245574678E+03 -0.22858059472E+01  0.99439468124E+02  0.17374427335E+03  0.00000000000E+00 0. -1.
</event>
<event>
 7    1  0.6140348E-006  0.2671875E+02  0.7818608E-02  0.1671810E+00
          2   -1    0    0  502    0  0.00000000000E+00  0.00000000000E+00  0.53313323439E+02  0.53313323439E+02  0.00000000000E+00 0. -1.
          1   -1    0    0  501    0 -0.00000000000E+00 -0.00000000000E+00 -0.33810611698E+03  0.33810611698E+03  0.00000000000E+00 0. -1.
         25    2    1    2    0    0 -0.85144085110E+01 -0.26272904632E+02 -0.18675247739E+03  0.22642084066E+03  0.12500859413E+03 0.  0.
          2    1    1    2  501    0 -0.16008832519E+02  0.15139871917E+02 -0.12497888262E+03  0.12690634161E+03  0.00000000000E+00 0. -1.
          1    1    1    2  502    0  0.24523241029E+02  0.11133032715E+02  0.26938566459E+02  0.38092258149E+02  0.00000000000E+00 0. -1.
         22    1    3    3    0    0  0.44716898255E+02  0.27286617808E+02 -0.81452291061E+02  0.96843359195E+02  0.00000000000E+00 0. -1.
         22    1    3    3    0    0 -0.53231306766E+02 -0.53559522440E+02 -0.10530018632E+03  0.12957748147E+03  0.00000000000E+00 0. -1.
</event>
<event>
 7    1  0.6140348E-006  0.1136273E+03  0.7818608E-02  0.1261495E+00
          2   -1    0    0  502    0  0.00000000000E+00  0.00000000000E+00  0.41748047635E+03  0.41748047635E+03  0.00000000000E+00 0. -1.
          1   -1    0    0  501    0 -0.00000000000E+00 -0.00000000000E+00 -0.68360839217E+03  0.68360839217E+03  0.00000000000E+00 0. -1.
         25    2    1    2    0    0 -0.98059880877E+02  0.17359793909E+03 -0.10051279865E+03  0.25589081953E+03  0.12500121653E+03 0.  0.
          2    1    1    2  501    0  0.83413940225E+02 -0.64637028645E+02 -0.49075569011E+03  0.50197308521E+03  0.00000000000E+00 0. -1.
          1    1    1    2  502    0  0.14645940652E+02 -0.10896091045E+03  0.32514057295E+03  0.34322496378E+03  0.00000000000E+00 0. -1.
         22    1    3    3    0    0 -0.32563608012E+02  0.11924358859E+03  0.74663206061E+00  0.12361221398E+03  0.00000000000E+00 0. -1.
         22    1    3    3    0    0 -0.65496272865E+02  0.54354350504E+02 -0.10125943071E+03  0.13227860555E+03  0.00000000000E+00 0. -1.
</event>
<event>
 7    1  0.6140348E-006  0.7727376E+02  0.7818608E-02  0.1447538E+00
          2   -1    0    0  502    0  0.00000000000E+00  0.00000000000E+00  0.40556305212E+03  0.40556305212E+03  0.00000000000E+00 0. -1.
          1   -1    0    0  501    0 -0.00000000000E+00 -0.00000000000E+00 -0.35152866578E+03  0.35152866578E+03  0.00000000000E+00 0. -1.
         25    2    1    2    0    0 -0.78230382731E+02 -0.71277369053E+02  0.67542548916E+02  0.17716575168E+03  0.12500100613E+03 0.  0.
          2    1    1    2  501    0  0.26962666851E+02  0.16917280881E+02 -0.29090509523E+03  0.29264134059E+03  0.00000000000E+00 0. -1.
          1    1    1    2  502    0  0.51267715880E+02  0.54360088172E+02  0.27739693265E+03  0.28728462563E+03  0.00000000000E+00 0. -1.
         22    1    3    3    0    0 -0.17088698502E+02 -0.96198144016E+02  0.38028515768E+02  0.10484404866E+03  0.00000000000E+00 0.  1.
         22    1    3    3    0    0 -0.61141684230E+02  0.24920774963E+02  0.29514033148E+02  0.72321703021E+02  0.00000000000E+00 0.  1.
</event>
<event>
 7    1  0.6140348E-006  0.1087332E+03  0.7818608E-02  0.1272489E+00
          2   -1    0    0  502    0  0.00000000000E+00  0.00000000000E+00  0.42140777536E+03  0.42140777536E+03  0.00000000000E+00 0. -1.
          1   -1    0    0  501    0 -0.00000000000E+00 -0.00000000000E+00 -0.38328905870E+03  0.38328905870E+03  0.00000000000E+00 0. -1.
         25    2    1    2    0    0  0.22974235704E+02  0.36081003575E+02 -0.17888886331E+03  0.22238809187E+03  0.12500233463E+03 0.  0.
          2    1    1    2  501    0  0.89104748870E+02 -0.43380263230E+02 -0.16039824031E+03  0.18854468702E+03  0.00000000000E+00 0. -1.
          1    1    1    2  502    0 -0.11207898457E+03  0.72992596548E+01  0.37740582027E+03  0.39376405517E+03  0.00000000000E+00 0. -1.
         22    1    3    3    0    0 -0.31131304234E+01 -0.33014305144E+02 -0.12916406985E+03  0.13335288847E+03  0.00000000000E+00 0.  1.
         22    1    3    3    0    0  0.26087366127E+02  0.69095308719E+02 -0.49724793462E+02  0.89035203394E+02  0.00000000000E+00 0.  1.
</event>
<event>
 7    1  0.6140348E-006  0.3196580E+03  0.7818608E-02  0.1238243E+00
          2   -1    0    0  502    0  0.00000000000E+00  0.00000000000E+00  0.28948708088E+04  0.28948708088E+04  0.00000000000E+00 0. -1.
          1   -1    0    0  501    0 -0.00000000000E+00 -0.00000000000E+00 -0.12092478153E+04  0.12092478153E+04  0.00000000000E+00 0. -1.
         25    2    1    2    0    0  0.32467483975E+03 -0.88940693562E+02 -0.55887652053E+03  0.66429400692E+03  0.12497745352E+03 0.  0.
          2    1    1    2  501    0 -0.30680432755E+02 -0.36028676925E+02 -0.58773209956E+03  0.58963410295E+03  0.00000000000E+00 0. -1.
          1    1    1    2  502    0 -0.29399440699E+03  0.12496937049E+03  0.28322316135E+04  0.28501905142E+04  0.00000000000E+00 0. -1.
         22    1    3    3    0    0  0.20961833141E+03 -0.16792991410E+02 -0.24869648784E+03  0.32568664770E+03  0.00000000000E+00 0.  1.
         22    1    3    3    0    0  0.11505650833E+03 -0.72147702153E+02 -0.31018003270E+03  0.33860735922E+03  0.00000000000E+00 0.  1.
</event>
<event>
 7    1  0.6140348E-006  0.7521392E+02  0.7818608E-02  0.1474259E+00
          2   -1    0    0  502    0  0.00000000000E+00  0.00000000000E+00  0.23701316450E+03  0.23701316450E+03  0.00000000000E+00 0. -1.
          1   -1    0    0  501    0 -0.00000000000E+00 -0.00000000000E+00 -0.15856812272E+04  0.15856812272E+04  0.00000000000E+00 0. -1.
         25    2    1    2    0    0  0.51656421585E+02  0.88293533474E+01 -0.29331136502E+03  0.32311154801E+03  0.12499268872E+03 0.  0.
          2    1    1    2  501    0 -0.77050278441E+02  0.16322009373E+00 -0.12754860732E+04  0.12778112126E+04  0.00000000000E+00 0. -1.
          1    1    1    2  502    0  0.25393856856E+02 -0.89925734411E+01  0.22012937559E+03  0.22177163105E+03  0.00000000000E+00 0. -1.
         22    1    3    3    0    0  0.44338043260E+02 -0.19099532689E+02 -0.29006817193E+03  0.29405815512E+03  0.00000000000E+00 0. -1.
         22    1    3    3    0    0  0.73183783242E+01  0.27928886036E+02 -0.32431930915E+01  0.29053392882E+02  0.00000000000E+00 0. -1.
</event>
<event>
 7    1  0.6140348E-006  0.9116260E+02  0.7818608E-02  0.1350428E+00
          2   -1    0    0  502    0  0.00000000000E+00  0.00000000000E+00  0.13685491528E+04  0.13685491528E+04  0.00000000000E+00 0. -1.
          1   -1    0    0  501    0 -0.00000000000E+00 -0.00000000000E+00 -0.25661318518E+02  0.25661318518E+02  0.00000000000E+00 0. -1.
         25    2    1    2    0    0 -0.13257498764E+03  0.96278440366E+01  0.72950681967E+03  0.75198022296E+03  0.12500093223E+03 0.  0.
          2    1    1    2  501    0  0.55947204021E+02  0.16507096323E+02  0.62733122715E+02  0.85662235276E+02  0.00000000000E+00 0. -1.
          1    1    1    2  502    0  0.76627783616E+02 -0.26134940360E+02  0.55064789194E+03  0.55656801312E+03  0.00000000000E+00 0. -1.
         22    1    3    3    0    0 -0.10179330692E+03 -0.48216754200E+02  0.37825513173E+03  0.39466907328E+03  0.00000000000E+00 0. -1.
         22    1    3    3    0    0 -0.30781680713E+02  0.57844598236E+02  0.35125168793E+03  0.35731114969E+03  0.00000000000E+00 0. -1.
</event>
<event>
 7    1  0.6140348E-006  0.1100545E+03  0.7818608E-02  0.1318796E+00
          2   -1    0    0  502    0  0.00000000000E+00  0.00000000000E+00  0.46090229350E+03  0.46090229350E+03  0.00000000000E+00 0. -1.
          1   -1    0    0  501    0 -0.00000000000E+00 -0.00000000000E+00 -0.24564304224E+03  0.24564304224E+03  0.00000000000E+00 0. -1.
         25    2    1    2    0    0  0.62360749184E+02  0.94879939597E+02  0.29346318514E+03  0.33857863176E+03  0.12499513140E+03 0.  0.
          2    1    1    2  501    0 -0.65519439931E+00 -0.11068543012E+03 -0.20109699377E+03  0.22954671556E+03  0.00000000000E+00 0. -1.
          1    1    1    2  502    0 -0.61705554785E+02  0.15805490521E+02  0.12289305990E+03  0.13841998841E+03  0.00000000000E+00 0. -1.
         22    1    3    3    0    0 -0.74513610485E+01  0.27195038327E+02  0.20560294912E+03  0.20752750560E+03  0.00000000000E+00 0.  1.
         22    1    3    3    0    0  0.69812110233E+02  0.67684901271E+02  0.87860236017E+02  0.13105112616E+03  0.00000000000E+00 0.  1.
</event>
<event>
 7    1  0.6140348E-006  0.5559135E+02  0.7818608E-02  0.1460908E+00
          2   -1    0    0  502    0  0.00000000000E+00  0.00000000000E+00  0.52850959735E+03  0.52850959735E+03  0.00000000000E+00 0. -1.
          1   -1    0    0  501    0 -0.00000000000E+00 -0.00000000000E+00 -0.15194851983E+04  0.15194851983E+04  0.00000000000E+00 0. -1.
         25    2    1    2    0    0 -0.12986934126E+01  0.51845733961E+02 -0.91135765835E+02  0.16315863264E+03  0.12500137942E+03 0.  0.
          2    1    1    2  501    0  0.38734144790E+02 -0.10448212916E+02 -0.13904664392E+04  0.13910450812E+04  0.00000000000E+00 0. -1.
          1    1    1    2  502    0 -0.37435451377E+02 -0.41397521045E+02  0.49062660417E+03  0.49379108182E+03  0.00000000000E+00 0. -1.
         22    1    3    3    0    0 -0.19453257757E+01 -0.41413848956E+02 -0.21047188414E+02  0.46495970986E+02  0.00000000000E+00 0.  1.
         22    1    3    3    0    0  0.64663236318E+00  0.93259582917E+02 -0.70088577421E+02  0.11666266165E+03  0.00000000000E+00 0.  1.
</event>
<event>
 7    1  0.6140348E-006  0.7834802E+02  0.7818608E-02  0.1362283E+00
          2   -1    0    0  502    0  0.00000000000E+00  0.00000000000E+00  0.14305600093E+04  0.14305600093E+04  0.00000000000E+00 0. -1.
          1   -1    0    0  501    0 -0.00000000000E+00 -0.00000000000E+00 -0.15753002564E+03  0.15753002564E+03  0.00000000000E+00 0. -1.
         25    2    1    2    0    0 -0.13133253166E+02 -0.10831864706E+02 -0.29630155472E+02  0.12958386892E+03  0.12499688532E+03 0.  0.
          2    1    1    2  501    0  0.82711931708E+02 -0.25185066228E+02 -0.52454337235E+02  0.10112867399E+03  0.00000000000E+00 0. -1.
          1    1    1    2  502    0 -0.69578678542E+02  0.36016930934E+02  0.13551144763E+04  0.13573774920E+04  0.00000000000E+00 0. -1.
         22    1    3    3    0    0 -0.53160299539E+02  0.36174805028E+02 -0.12410933498E+02  0.65487901449E+02  0.00000000000E+00 0.  1.
         22    1    3    3    0    0  0.40027046373E+02 -0.47006669733E+02 -0.17219221974E+02  0.64095967472E+02  0.00000000000E+00 0.  1.
</event>
<event>
 7    1  0.6140348E-006  0.8792816E+02  0.7818608E-02  0.1395886E+00
          2   -1    0    0  502    0  0.00000000000E+00  0.00000000000E+00  0.64440598650E+03  0.64440598650E+03  0.00000000000E+00 0. -1.
          1   -1    0    0  501    0 -0.00000000000E+00 -0.00000000000E+00 -0.89166388632E+02  0.89166388632E+02  0.00000000000E+00 0. -1.
         25    2    1    2    0    0 -0.86946975917E+02  0.67492649316E+02  0.19021945430E+03  0.25282700253E+03  0.12499207208E+03 0.  0.
          2    1    1    2  501    0  0.54830895888E+01 -0.41217947973E+02 -0.45359335070E+02  0.61534159493E+02  0.00000000000E+00 0. -1.
          1    1    1    2  502    0  0.81463886328E+02 -0.26274701343E+02  0.41037947864E+03  0.41921121310E+03  0.00000000000E+00 0. -1.
         22    1    3    3    0    0  0.49578704000E+01  0.42711241061E+02  0.13739177180E+03  0.14396294506E+03  0.00000000000E+00 0. -1.
         22    1    3    3    0    0 -0.91904846317E+02  0.24781408254E+02  0.52827682503E+02  0.10886405748E+03  0.00000000000E+00 0. -1.
</event>
<event>
 7    1  0.6140348E-006  0.4545680E+02  0.7818608E-02  0.1515889E+00
          2   -1    0    0  502    0  0.00000000000E+00  0.00000000000E+00  0.66131769559E+02  0.66131769559E+02  0.00000000000E+00 0. -1.
          1   -1    0    0  501    0 -0.00000000000E+00 -0.00000000000E+00 -0.79541330923E+03  0.79541330923E+03  0.00000000000E+00 0. -1.
         25    2    1    2    0    0  0.50076568805E+02 -0.65172696781E+01 -0.31529085539E+02  0.13845272831E+03  0.12499974878E+03 0.  0.
          2    1    1    2  501    0 -0.38249953148E+02 -0.24738273554E+02 -0.68623475977E+03  0.68774500116E+03  0.00000000000E+00 0. -1.
          1    1    1    2  502    0 -0.11826615657E+02  0.31255543233E+02 -0.11517694361E+02  0.35347349321E+02  0.00000000000E+00 0. -1.
         22    1    3    3    0    0  0.43857486313E+02  0.55856367729E+02 -0.78628245642E+01  0.71450940733E+02  0.00000000000E+00 0. -1.
         22    1    3    3    0    0  0.62190824918E+01 -0.62373637407E+02 -0.23666260975E+02  0.67001787581E+02  0.00000000000E+00 0. -1.
</event>
<event>
 7    1  0.6140348E-006  0.2087964E+03  0.7818608E-02  0.1235155E+00
          2   -1    0    0  502    0  0.00000000000E+00  0.00000000000E+00  0.77547595070E+03  0.77547595070E+03  0.00000000000E+00 0. -1.
          1   -1    0    0  501    0 -0.00000000000E+00 -0.00000000000E+00 -0.62290428966E+03  0.62290428966E+03  0.00000000000E+00 0. -1.
         25    2    1    2    0    0  0.65866447734E+02 -0.18711462820E+03 -0.14285631573E+03  0.27456175472E+03  0.12500382870E+03 0.  0.
          2    1    1    2  501    0  0.69978965983E+02  0.26329484717E+02 -0.39500179029E+03  0.40201581036E+03  0.00000000000E+00 0. -1.
          1    1    1    2  502    0 -0.13584541372E+03  0.16078514348E+03  0.69042976706E+03  0.72180267528E+03  0.00000000000E+00 0. -1.
         22    1    3    3    0    0  0.94743442699E+02 -0.12870767505E+03 -0.63717063902E+02  0.17205188108E+03  0.00000000000E+00 0.  1.
         22    1    3    3    0    0 -0.28876994965E+02 -0.58406953143E+02 -0.79139251829E+02  0.10250987364E+03  0.00000000000E+00 0.  1.
</event>
<event>
 7    1  0.6140348E-006  0.6741786E+02  0.7818608E-02  0.1435450E+00
          2   -1    0    0  502    0  0.00000000000E+00  0.00000000000E+00  0.66621886688E+03  0.66621886688E+03  0.00000000000E+00 0. -1.
          1   -1    0    0  501    0 -0.00000000000E+00 -0.00000000000E+00 -0.27757861633E+03  0.27757861633E+03  0.00000000000E+00 0. -1.
         25    2    1    2    0    0 -0.15264922855E+02 -0.95969359180E+02  0.38057720960E+03  0.41219851732E+03  0.12500187777E+03 0.  0.
          2    1    1    2  501    0  0.19450173019E+02  0.34867405466E+02 -0.25672969760E+03  0.25981567086E+03  0.00000000000E+00 0. -1.
          1    1    1    2  502    0 -0.41852501644E+01  0.61101953713E+02  0.26479273855E+03  0.27178329503E+03  0.00000000000E+00 0. -1.
         22    1    3    3    0    0 -0.31470872394E+02 -0.81769827871E+02  0.10937348253E+03  0.14014021278E+03  0.00000000000E+00 0.  1.
         22    1    3    3    0    0  0.16205949539E+02 -0.14199531309E+02  0.27120372707E+03  0.27205830453E+03  0.00000000000E+00 0.  1.
</event>
<event>
 7    1  0.6140348E-006  0.6639646E+02  0.7818608E-02  0.1532679E+00
          2   -1    0    0  502    0  0.00000000000E+00  0.00000000000E+00  0.19175407167E+03  0.19175407167E+03  0.00000000000E+00 0. -1.
          1   -1    0    0  501    0 -0.00000000000E+00 -0.00000000000E+00 -0.46843826460E+03  0.46843826460E+03  0.00000000000E+00 0. -1.
         25    2    1    2    0    0  0.60285373476E+02  0.22229339587E+02  0.80971578594E+02  0.16220317023E+03  0.12500000839E+03 0.  0.
          2    1    1    2  501    0 -0.52308667621E+02 -0.41073279937E+02 -0.42367919581E+03  0.42886742939E+03  0.00000000000E+00 0. -1.
          1    1    1    2  502    0 -0.79767058543E+01  0.18843940350E+02  0.66023424280E+02  0.69121736653E+02  0.00000000000E+00 0. -1.
         22    1    3    3    0    0  0.42735484459E+01 -0.45575231919E+02  0.52741741712E+02  0.69835924134E+02  0.00000000000E+00 0.  1.
         22    1    3    3    0    0  0.56011825030E+02  0.67804571506E+02  0.28229836881E+02  0.92367246092E+02  0.00000000000E+00 0.  1.
</event>
<event>
 7    1  0.6140348E-006  0.3986369E+02  0.7818608E-02  0.1513592E+00
          2   -1    0    0  502    0  0.00000000000E+00  0.00000000000E+00  0.11938016259E+03  0.11938016259E+03  0.00000000000E+00 0. -1.
          1   -1    0    0  501    0 -0.00000000000E+00 -0.00000000000E+00 -0.64412043901E+03  0.64412043901E+03  0.00000000000E+00 0. -1.
         25    2    1    2    0    0  0.46404100547E+02  0.23982630814E+02 -0.27114404755E+03  0.30310435114E+03  0.12499858411E+03 0.  0.
          2    1    1    2  501    0 -0.37673325168E+02  0.13720752978E+02 -0.35219725281E+03  0.35447206290E+03  0.00000000000E+00 0. -1.
          1    1    1    2  502    0 -0.87307753788E+01 -0.37703383792E+02  0.98601023943E+02  0.10592418756E+03  0.00000000000E+00 0. -1.
         22    1    3    3    0    0  0.34803217950E+01  0.26603118673E+02 -0.25616555898E+03  0.25756675284E+03  0.00000000000E+00 0. -1.
         22    1    3    3    0    0  0.42923778752E+02 -0.26204878596E+01 -0.14978488572E+02  0.45537598300E+02  0.00000000000E+00 0. -1.
</event>
<event>
 7    1  0.6140348E-006  0.8024230E+02  0.7818608E-02  0.1338893E+00
          2   -1    0    0  502    0  0.00000000000E+00  0.00000000000E+00  0.13410171023E+04  0.13410171023E+04  0.00000000000E+00 0. -1.
          1   -1    0    0  501    0 -0.00000000000E+00 -0.00000000000E+00 -0.30155054002E+04  0.30155054002E+04  0.00000000000E+00 0. -1.
         25    2    1    2    0    0 -0.25580382692E+02 -0.14515478125E+02  0.18719758379E+03  0.22701004526E+03  0.12500228072E+03 0.  0.
          2    1    1    2  501    0 -0.68330082491E+01  0.80128617838E+02 -0.29938778590E+04  0.29949577492E+04  0.00000000000E+00 0. -1.
          1    1    1    2  502    0  0.32413390942E+02 -0.65613139714E+02  0.11321919773E+04  0.11345547080E+04  0.00000000000E+00 0. -1.
         22    1    3    3    0    0 -0.37397546554E+02 -0.55883815422E+02  0.51624625570E+02  0.84774284306E+02  0.00000000000E+00 0.  1.
         22    1    3    3    0    0  0.11817163861E+02  0.41368337297E+02  0.13557295822E+03  0.14223576095E+03  0.00000000000E+00 0.  1.
</event>
<event>
 7    1  0.6140348E-006  0.1626744E+03  0.7818608E-02  0.1279664E+00
          2   -1    0    0  502    0  0.00000000000E+00  0.00000000000E+00  0.31926965391E+04  0.31926965391E+04  0.00000000000E+00 0. -1.
          1   -1    0    0  501    0 -0.00000000000E+00 -0.00000000000E+00 -0.10607468866E+03  0.10607468866E+03  0.00000000000E+00 0. -1.
         25    2    1    2    0    0  0.11401608638E+03  0.10867817916E+03  0.96112662173E+03  0.98193684632E+03  0.12499989033E+03 0.  0.
          2    1    1    2  501    0 -0.67406215088E+02 -0.14932470058E+03 -0.24756462444E+02  0.16569353177E+03  0.00000000000E+00 0. -1.
          1    1    1    2  502    0 -0.46609871291E+02  0.40646521425E+02  0.21502516912E+04  0.21511408497E+04  0.00000000000E+00 0. -1.
         22    1    3    3    0    0  0.23878342874E+02  0.10445142699E+03  0.42677176844E+03  0.44001638401E+03  0.00000000000E+00 0.  1.
         22    1    3    3    0    0  0.90137743504E+02  0.42267521731E+01  0.53435485329E+03  0.54192046231E+03  0.00000000000E+00 0.  1.
</event>
<event>
 7    1  0.6140348E-006  0.7047274E+02  0.7818608E-02  0.1491392E+00
          2   -1    0    0  502    0  0.00000000000E+00  0.00000000000E+00  0.26450558081E+03  0.26450558081E+03  0.00000000000E+00 0. -1.
          1   -1    0    0  501    0 -0.00000000000E+00 -0.00000000000E+00 -0.18120846036E+03  0.18120846036E+03  0.00000000000E+00 0. -1.
         25    2    1    2    0    0 -0.79822320369E+02 -0.37715732011E+02  0.10036076555E+02  0.15336190301E+03  0.12500028477E+03 0.  0.
          2    1    1    2  501    0  0.12593655491E+02  0.22157252890E+02 -0.10139994882E+03  0.10455378345E+03  0.00000000000E+00 0. -1.
          1    1    1    2  502    0  0.67228664878E+02  0.15558479121E+02  0.17466099271E+03  0.18779835470E+03  0.00000000000E+00 0. -1.
         22    1    3    3    0    0 -0.88851300677E+01  0.20930225950E+02 -0.41905328070E+02  0.47676791160E+02  0.00000000000E+00 0.  1.
         22    1    3    3    0    0 -0.70937190301E+02 -0.58645957961E+02  0.51941404625E+02  0.10568511185E+03  0.00000000000E+00 0.  1.
</event>
<event>
 7    1  0.6140348E-006  0.8208548E+02  0.7818608E-02  0.1333019E+00
          2   -1    0    0  502    0  0.00000000000E+00  0.00000000000E+00  0.40736318164E+03  0.40736318164E+03  0.00000000000E+00 0. -1.
          1   -1    0    0  501    0 -0.00000000000E+00 -0.00000000000E+00 -0.68529795156E+03  0.68529795156E+03  0.00000000000E+00 0. -1.
         25    2    1    2    0    0  0.11098680181E+02 -0.15250794872E+03 -0.28027385654E+02  0.19948100384E+03  0.12500112569E+03 0.  0.
          2    1    1    2  501    0  0.73024328207E+01  0.79493301439E+02 -0.56428871419E+03  0.56990724111E+03  0.00000000000E+00 0. -1.
          1    1    1    2  502    0 -0.18401113002E+02  0.73014647278E+02  0.31438132993E+03  0.32327288826E+03  0.00000000000E+00 0. -1.
         22    1    3    3    0    0  0.52649147227E+01 -0.44451971231E+01 -0.49304405222E+02  0.49783566353E+02  0.00000000000E+00 0.  1.
         22    1    3    3    0    0  0.58337654585E+01 -0.14806275159E+03  0.21277019568E+02  0.14969743749E+03  0.00000000000E+00 0.  1.
</event>
<event>
 7    1  0.6140348E-006  0.8006977E+02  0.7818608E-02  0.1409494E+00
          2   -1    0    0  502    0  0.00000000000E+00  0.00000000000E+00  0.93207756177E+03  0.93207756177E+03  0.00000000000E+00 0. -1.
          1   -1    0    0  501    0 -0.00000000000E+00 -0.00000000000E+00 -0.26514172525E+03  0.26514172525E+03  0.00000000000E+00 0. -1.
         25    2    1    2    0    0  0.48938496256E+02 -0.16012342363E+02  0.87204884330E+02  0.16088162536E+03  0.12500733580E+03 0.  0.
          2    1    1    2  501    0 -0.60546753336E+02  0.55350460023E+02 -0.22039196299E+03  0.23516419820E+03  0.00000000000E+00 0. -1.
          1    1    1    2  502    0  0.11608257080E+02 -0.39338117660E+02  0.80012291518E+03  0.80117346345E+03  0.00000000000E+00 0. -1.
         22    1    3    3    0    0 -0.38465355239E+02  0.39703026641E+01  0.45496375656E+01  0.38936436135E+02  0.00000000000E+00 0. -1.
         22    1    3    3    0    0  0.87403851495E+02 -0.19982645027E+02  0.82655246764E+02  0.12194518923E+03  0.00000000000E+00 0. -1.
</event>
<event>
 7    1  0.6140348E-006  0.1455256E+03  0.7818608E-02  0.1226198E+00
          2   -1    0    0  502    0  0.00000000000E+00  0.00000000000E+00  0.93415483663E+03  0.93415483663E+03  0.00000000000E+00 0. -1.
          1   -1    0    0  501    0 -0.00000000000E+00 -0.00000000000E+00 -0.15025176057E+03  0.15025176057E+03  0.00000000000E+00 0. -1.
         25    2    1    2    0    0  0.10041505548E+02 -0.39837689149E+02  0.11816628539E+03  0.17684961404E+03  0.12499856669E+03 0.  0.
          2    1    1    2  501    0 -0.15317468790E+03  0.13558416414E+02 -0.61712202483E+02  0.16569463360E+03  0.00000000000E+00 0. -1.
          1    1    1    2  502    0  0.14313318235E+03  0.26279272735E+02  0.72744899315E+03  0.74186234956E+03  0.00000000000E+00 0. -1.
         22    1    3    3    0    0  0.36235306264E+02  0.22712058291E+02  0.25842097382E+01  0.42842889163E+02  0.00000000000E+00 0.  1.
         22    1    3    3    0    0 -0.26193800716E+02 -0.62549747440E+02  0.11558207565E+03  0.13400672488E+03  0.00000000000E+00 0.  1.
</event>
<event>
 7    1  0.6140348E-006  0.4418362E+02  0.7818608E-02  0.1512424E+00
          2   -1    0    0  502    0  0.00000000000E+00  0.00000000000E+00  0.25479586579E+04  0.25479586579E+04  0.00000000000E+00 0. -1.
          1   -1    0    0  501    0 -0.00000000000E+00 -0.00000000000E+00 -0.33334114203E+02  0.33334114203E+02  0.00000000000E+00 0. -1.
         25    2    1    2    0    0  0.59696966905E+02 -0.17549006843E+01  0.22401042958E+03  0.26338632313E+03  0.12499950046E+03 0.  0.
          2    1    1    2  501    0 -0.34445764807E+02  0.26269448337E+02  0.21216989075E+02  0.48236451512E+02  0.00000000000E+00 0. -1.
          1    1    1    2  502    0 -0.25251202098E+02 -0.24514547653E+02  0.22693971250E+04  0.22696699975E+04  0.00000000000E+00 0. -1.
         22    1    3    3    0    0  0.71752019633E+02  0.48525205856E+02  0.14718686427E+03  0.17078354996E+03  0.00000000000E+00 0.  1.
         22    1    3    3    0    0 -0.12055052728E+02 -0.50280106540E+02  0.76823565311E+02  0.92602773161E+02  0.00000000000E+00 0.  1.
</event>
<event>
 7    1  0.6140348E-006  0.8631082E+02  0.7818608E-02  0.1324965E+00
          2   -1    0    0  502    0  0.00000000000E+00  0.00000000000E+00  0.23399082511E+03  0.23399082511E+03  0.00000000000E+00 0. -1.
          1   -1    0    0  501    0 -0.00000000000E+00 -0.00000000000E+00 -0.28770723597E+03  0.28770723597E+03  0.00000000000E+00 0. -1.
         25    2    1    2    0    0 -0.29975419407E+02  0.83544700444E+02  0.57526761596E+02  0.16375000414E+03  0.12500597112E+03 0.  0.
          2    1    1    2  501    0 -0.46475230852E+02 -0.75454061204E+02 -0.21283482906E+03  0.23054701667E+03  0.00000000000E+00 0. -1.
          1    1    1    2  502    0  0.76450650259E+02 -0.80906392406E+01  0.10159165661E+03  0.12740104026E+03  0.00000000000E+00 0. -1.
         22    1    3    3    0    0  0.79795744724E+01  0.10781448113E+03  0.37259295720E+02  0.11434986256E+03  0.00000000000E+00 0.  1.
         22    1    3    3    0    0 -0.37954993879E+02 -0.24269780687E+02  0.20267465876E+02  0.49400141579E+02  0.00000000000E+00 0.  1.
</event>
<event>
 7    1  0.6140348E-006  0.5009947E+02  0.7818608E-02  0.1564769E+00
          2   -1    0    0  502    0  0.00000000000E+00  0.00000000000E+00  0.61710705155E+02  0.61710705155E+02  0.00000000000E+00 0. -1.
          1   -1    0    0  501    0 -0.00000000000E+00 -0.00000000000E+00 -0.94724989638E+03  0.94724989638E+03  0.00000000000E+00 0. -1.
         25    2    1    2    0    0  0.25601526517E+02  0.34138951201E+02 -0.74856588428E+03  0.76013094564E+03  0.12500906067E+03 0.  0.
          2    1    1    2  501    0  0.19074838765E+02 -0.11080495631E+02 -0.18079525567E+03  0.18213607916E+03  0.00000000000E+00 0. -1.
          1    1    1    2  502    0 -0.44676365282E+02 -0.23058455570E+02  0.43821948730E+02  0.66693576741E+02  0.00000000000E+00 0. -1.
         22    1    3    3    0    0 -0.23231574188E+02  0.20689848853E+02 -0.63523374600E+03  0.63599503767E+03  0.00000000000E+00 0.  1.
         22    1    3    3    0    0  0.48833100705E+02  0.13449102348E+02 -0.11333213829E+03  0.12413590797E+03  0.00000000000E+00 0.  1.
</event>
<event>
 7    1  0.6140348E-006  0.1668179E+03  0.7818608E-02  0.1201045E+00
          2   -1    0    0  502    0  0.00000000000E+00  0.00000000000E+00  0.30513181280E+03  0.30513181280E+03  0.00000000000E+00 0. -1.
          1   -1    0    0  501    0 -0.00000000000E+00 -0.00000000000E+00 -0.48761067706E+03  0.48761067706E+03  0.00000000000E+00 0. -1.
         25    2    1    2    0    0  0.21861325325E+03 -0.92503147376E+02 -0.75313172385E+02  0.27865440691E+03  0.12501047071E+03 0.  0.
          2    1    1    2  501    0 -0.61862979067E+02  0.11891377630E+03 -0.26066627321E+03  0.29311161758E+03  0.00000000000E+00 0. -1.
          1    1    1    2  502    0 -0.15675027418E+03 -0.26410628926E+02  0.15350058133E+03  0.22097646537E+03  0.00000000000E+00 0. -1.
         22    1    3    3    0    0  0.10289353295E+03  0.17752999962E+02 -0.53546288908E+02  0.11734331334E+03  0.00000000000E+00 0. -1.
         22    1    3    3    0    0  0.11571972030E+03 -0.11025614734E+03 -0.21766883477E+02  0.16131109357E+03  0.00000000000E+00 0. -1.
</event>
<event>
 7    1  0.6140348E-006  0.7805918E+02  0.7818608E-02  0.1413164E+00
          2   -1    0    0  502    0  0.00000000000E+00  0.00000000000E+00  0.35167648043E+04  0.35167648043E+04  0.00000000000E+00 0. -1.
          1   -1    0    0  501    0 -0.00000000000E+00 -0.00000000000E+00 -0.32871997187E+02  0.32871997187E+02  0.00000000000E+00 0. -1.
         25    2    1    2    0    0  0.53953642448E+02  0.78206708934E+02  0.70076056800E+03  0.71813502054E+03  0.12500099681E+03 0.  0.
          2    1    1    2  501    0 -0.40846425777E+02 -0.18055565059E+01 -0.59723299481E+01  0.41320203994E+02  0.00000000000E+00 0. -1.
          1    1    1    2  502    0 -0.13107216671E+02 -0.76401152428E+02  0.27891045691E+04  0.27901815769E+04  0.00000000000E+00 0. -1.
         22    1    3    3    0    0 -0.10779710553E+02  0.57972593478E+02  0.54588189981E+03  0.54905743989E+03  0.00000000000E+00 0.  1.
         22    1    3    3    0    0  0.64733353001E+02  0.20234115456E+02  0.15487866819E+03  0.16907758065E+03  0.00000000000E+00 0.  1.
</event>
<event>
 7    1  0.6140348E-006  0.5008678E+02  0.7818608E-02  0.1514849E+00
          2   -1    0    0  502    0  0.00000000000E+00  0.00000000000E+00  0.19591598346E+04  0.19591598346E+04  0.00000000000E+00 0. -1.
          1   -1    0    0  501    0 -0.00000000000E+00 -0.00000000000E+00 -0.33763712362E+02  0.33763712362E+02  0.00000000000E+00 0. -1.
         25    2    1    2    0    0  0.68258083844E+02 -0.25266502342E+02  0.39209362312E+03  0.41792015278E+03  0.12498913018E+03 0.  0.
          2    1    1    2  501    0 -0.18766895903E+02  0.24096103141E+02 -0.90515029669E+01  0.31855113787E+02  0.00000000000E+00 0. -1.
          1    1    1    2  502    0 -0.49491187941E+02  0.11703992012E+01  0.15423540021E+04  0.15431482804E+04  0.00000000000E+00 0. -1.
         22    1    3    3    0    0  0.10215657526E+03 -0.80029757605E+01  0.23651713694E+03  0.25776029476E+03  0.00000000000E+00 0. -1.
         22    1    3    3    0    0 -0.33898491416E+02 -0.17263526582E+02  0.15557648618E+03  0.16015985802E+03  0.00000000000E+00 0. -1.
</event>
<event>
 7    1  0.6140348E-006  0.8575239E+02  0.7818608E-02  0.1341363E+00
          2   -1    0    0  502    0  0.00000000000E+00  0.00000000000E+00  0.26954211231E+04  0.26954211231E+04  0.00000000000E+00 0. -1.
          1   -1    0    0  501    0 -0.00000000000E+00 -0.00000000000E+00 -0.57567008870E+02  0.57567008870E+02  0.00000000000E+00 0. -1.
         25    2    1    2    0    0  0.44091213571E+02 -0.29696936907E+02  0.51609420494E+03  0.53367041224E+03  0.12499974941E+03 0.  0.
          2    1    1    2  501    0 -0.86994181944E+02 -0.21805276073E+02 -0.65764006965E+01  0.89926118580E+02  0.00000000000E+00 0. -1.
          1    1    1    2  502    0  0.42902968373E+02  0.51502212980E+02  0.21283363099E+04  0.21293916011E+04  0.00000000000E+00 0. -1.
         22    1    3    3    0    0  0.36948163287E+02  0.14791268581E+02  0.46000956140E+03  0.46172799891E+03  0.00000000000E+00 0. -1.
         22    1    3    3    0    0  0.71430502837E+01 -0.44488205488E+02  0.56084643532E+02  0.71942413325E+02  0.00000000000E+00 0. -1.
</event>
<event>
 7    1  0.6140348E-006  0.2401413E+03  0.7818608E-02  0.1207266E+00
          2   -1    0    0  502    0  0.00000000000E+00  0.00000000000E+00  0.22682824872E+03  0.22682824872E+03  0.00000000000E+00 0. -1.
          1   -1    0    0  501    0 -0.00000000000E+00 -0.00000000000E+00 -0.33696600466E+04  0.33696600466E+04  0.00000000000E+00 0. -1.
         25    2    1    2    0    0 -0.17208807607E+03 -0.97349905630E+02 -0.24205199719E+03  0.33660860999E+03  0.12499950767E+03 0.  0.
          2    1    1    2  501    0  0.24147394270E+03  0.44742642678E+02 -0.30645637529E+04  0.30743881610E+04  0.00000000000E+00 0. -1.
          1    1    1    2  502    0 -0.69385866623E+02  0.52607262953E+02  0.16378395220E+03  0.18549152433E+03  0.00000000000E+00 0. -1.
         22    1    3    3    0    0 -0.12419320778E+03 -0.10896504258E+03 -0.11772709355E+03  0.20287188548E+03  0.00000000000E+00 0.  1.
         22    1    3    3    0    0 -0.47894868297E+02  0.11615136952E+02 -0.12432490364E+03  0.13373672450E+03  0.00000000000E+00 0.  1.
</event>
<event>
 7    1  0.6140348E-006  0.1889566E+03  0.7818608E-02  0.1344273E+00
          2   -1    0    0  502    0  0.00000000000E+00  0.00000000000E+00  0.39526329455E+03  0.39526329455E+03  0.00000000000E+00 0. -1.
          1   -1    0    0  501    0 -0.00000000000E+00 -0.00000000000E+00 -0.28273539820E+03  0.28273539820E+03  0.00000000000E+00 0. -1.
         25    2    1    2    0    0 -0.13798109864E+03  0.13660731777E+03  0.78308146505E+02  0.24383663379E+03  0.12499518118E+03 0.  0.
          2    1    1    2  501    0  0.26300973337E+02  0.13723236042E+02 -0.16095844179E+03  0.16366944855E+03  0.00000000000E+00 0. -1.
          1    1    1    2  502    0  0.11168012530E+03 -0.15033055381E+03  0.19517819164E+03  0.27049261041E+03  0.00000000000E+00 0. -1.
         22    1    3    3    0    0 -0.11295614772E+02  0.60610083934E+01 -0.29650318602E+02  0.32302757298E+02  0.00000000000E+00 0. -1.
         22    1    3    3    0    0 -0.12668548386E+03  0.13054630938E+03  0.10795846511E+03  0.21153387649E+03  0.00000000000E+00 0. -1.
</event>
<event>
 7    1  0.6140348E-006  0.1301837E+03  0.7818608E-02  0.1281773E+00
          2   -1    0    0  502    0  0.00000000000E+00  0.00000000000E+00  0.93603461572E+03  0.93603461572E+03  0.00000000000E+00 0. -1.
          1   -1    0    0  501    0 -0.00000000000E+00 -0.00000000000E+00 -0.38237566862E+03  0.38237566862E+03  0.00000000000E+00 0. -1.
         25    2    1    2    0    0 -0.12389610002E+03 -0.11275979371E+03  0.66364061304E+02  0.21930573268E+03  0.12500320427E+03 0.  0.
          2    1    1    2  501    0  0.48373519368E+02  0.11854720475E+03 -0.29058679601E+03  0.31754389169E+03  0.00000000000E+00 0. -1.
          1    1    1    2  502    0  0.75522580655E+02 -0.57874110403E+01  0.77788168181E+03  0.78156065997E+03  0.00000000000E+00 0. -1.
         22    1    3    3    0    0 -0.10033367342E+03 -0.24244514380E+02 -0.47688839046E+01  0.10333143158E+03  0.00000000000E+00 0. -1.
         22    1    3    3    0    0 -0.23562426606E+02 -0.88515279325E+02  0.71132945209E+02  0.11597430110E+03  0.00000000000E+00 0. -1.
</event>
<event>
 7    1  0.6140348E-006  0.1286134E+03  0.7818608E-02  0.1257778E+00
          2   -1    0    0  502    0  0.00000000000E+00  0.00000000000E+00  0.13067765405E+04  0.13067765405E+04  0.00000000000E+00 0. -1.
          1   -1    0    0  501    0 -0.00000000000E+00 -0.00000000000E+00 -0.18720752334E+04  0.18720752334E+04  0.00000000000E+00 0. -1.
         25    2    1    2    0    0  0.10605465085E+03 -0.16602405664E+03 -0.12621898502E+04  0.12835732569E+04  0.12500204541E+03 0.  0.
          2    1    1    2  501    0 -0.45757642924E+02  0.90423659969E+02 -0.59308595876E+03  0.60168193811E+03  0.00000000000E+00 0. -1.
          1    1    1    2  502    0 -0.60297007926E+02  0.75600396669E+02  0.12899771161E+04  0.12935965790E+04  0.00000000000E+00 0. -1.
         22    1    3    3    0    0 -0.26106316871E+02 -0.44237396123E+02 -0.21326297833E+03  0.21936176723E+03  0.00000000000E+00 0.  1.
         22    1    3    3    0    0  0.13216096772E+03 -0.12178666052E+03 -0.10489268719E+04  0.10642114896E+04  0.00000000000E+00 0.  1.
</event>
<event>
 7    1  0.6140348E-006  0.6602643E+02  0.7818608E-02  0.1387404E+00
          2   -1    0    0  502    0  0.00000000000E+00  0.00000000000E+00  0.30927878991E+03  0.30927878991E+03  0.00000000000E+00 0. -1.
          1   -1    0    0  501    0 -0.00000000000E+00 -0.00000000000E+00 -0.89690606451E+03  0.89690606451E+03  0.00000000000E+00 0. -1.
         25    2    1    2    0    0 -0.14092295545E+02 -0.63091945484E+02 -0.85739839109E+02  0.16479067742E+03  0.12500184389E+03 0.  0.
          2    1    1    2  501    0  0.57931096382E+02  0.12527325423E+02 -0.76632813766E+03  0.76861678383E+03  0.00000000000E+00 0. -1.
          1    1    1    2  502    0 -0.43838800837E+02  0.50564620062E+02  0.26444070217E+03  0.27277739317E+03  0.00000000000E+00 0. -1.
         22    1    3    3    0    0 -0.36255889778E+02  0.17291038612E+02  0.62310591239E+01  0.40648439794E+02  0.00000000000E+00 0. -1.
         22    1    3    3    0    0  0.22163594233E+02 -0.80382984097E+02 -0.91970898233E+02  0.12414223763E+03  0.00000000000E+00 0. -1.
</event>
<event>
 7    1  0.6140348E-006  0.1550720E+03  0.7818608E-02  0.1238982E+00
          2   -1    0    0  502    0  0.00000000000E+00  0.00000000000E+00  0.39246265574E+03  0.39246265574E+03  0.00000000000E+00 0. -1.
          1   -1    0    0  501    0 -0.00000000000E+00 -0.00000000000E+00 -0.12690836956E+04  0.12690836956E+04  0.00000000000E+00 0. -1.
         25    2    1    2    0    0  0.49377283405E+01 -0.15877030583E+03  0.12481717972E+03  0.23756647059E+03  0.12500443361E+03 0.  0.
          2    1    1    2  501    0 -0.94340794693E+02  0.21750010849E+02 -0.11787497100E+04  0.11827189553E+04  0.00000000000E+00 0. -1.
          1    1    1    2  502    0  0.89403066353E+02  0.13702029498E+03  0.17731149040E+03  0.24126092542E+03  0.00000000000E+00 0. -1.
         22    1    3    3    0    0 -0.56517815470E+01 -0.12518071482E+03  0.19878276338E+02  0.12687513494E+03  0.00000000000E+00 0. -1.
         22    1    3    3    0    0  0.10589509888E+02 -0.33589591012E+02  0.10493890339E+03  0.11069133565E+03  0.00000000000E+00 0. -1.
</event>
<event>
 7    1  0.6140348E-006  0.3014820E+03  0.7818608E-02  0.1232970E+00
          2   -1    0    0  502    0  0.00000000000E+00  0.00000000000E+00  0.28627476321E+04  0.28627476321E+04  0.00000000000E+00 0. -1.
          1   -1    0    0  501    0 -0.00000000000E+00 -0.00000000000E+00 -0.71619777332E+02  0.71619777332E+02  0.00000000000E+00 0. -1.
         25    2    1    2    0    0  0.15046589643E+03  0.24751084824E+03  0.19399008944E+04  0.19653859079E+04  0.12499872285E+03 0.  0.
          2    1    1    2  501    0 -0.20028830990E+03 -0.22956709415E+03  0.34610469800E+03  0.46109101030E+03  0.00000000000E+00 0. -1.
          1    1    1    2  502    0  0.49822413473E+02 -0.17943754093E+02  0.50512226232E+03  0.50789049123E+03  0.00000000000E+00 0. -1.
         22    1    3    3    0    0  0.40247451114E+02 -0.29121654464E+01  0.19138785872E+03  0.19559563005E+03  0.00000000000E+00 0. -1.
         22    1    3    3    0    0  0.11021844531E+03  0.25042301369E+03  0.17485130357E+04  0.17697902778E+04  0.00000000000E+00 0. -1.
</event>
<event>
 7    1  0.6140348E-006  0.1039095E+03  0.7818608E-02  0.1469126E+00
          2   -1    0    0  502    0  0.00000000000E+00  0.00000000000E+00  0.11347704604E+04  0.11347704604E+04  0.00000000000E+00 0. -1.
          1   -1    0    0  501    0 -0.00000000000E+00 -0.00000000000E+00 -0.87723993619E+03  0.87723993619E+03  0.00000000000E+00 0. -1.
         25    2    1    2    0    0 -0.80096755781E+02  0.89956642113E+02 -0.32914559854E+03  0.37211424421E+03  0.12499799182E+03 0.  0.
          2    1    1    2  501    0  0.34798046612E+01 -0.19926499991E+02 -0.52399494579E+03  0.52438523783E+03  0.00000000000E+00 0. -1.
          1    1    1    2  502    0  0.76616951120E+02 -0.70030142122E+02  0.11106710686E+04  0.11155109146E+04  0.00000000000E+00 0. -1.
         22    1    3    3    0    0 -0.37399599563E+02 -0.28386051613E+02 -0.74028125457E+02  0.87662200134E+02  0.00000000000E+00 0. -1.
         22    1    3    3    0    0 -0.42697156218E+02  0.11834269373E+03 -0.25511747308E+03  0.28445204408E+03  0.00000000000E+00 0. -1.
</event>
<event>
 7    1  0.6140348E-006  0.8315151E+02  0.7818608E-02  0.1342826E+00
          2   -1    0    0  502    0  0.00000000000E+00  0.00000000000E+00  0.45987513149E+03  0.45987513149E+03  0.00000000000E+00 0. -1.
          1   -1    0    0  501    0 -0.00000000000E+00 -0.00000000000E+00 -0.83134099642E+03  0.83134099642E+03  0.00000000000E+00 0. -1.
         25    2    1    2    0    0  0.74715362740E+02  0.11493361570E+03 -0.69129504371E+01  0.18564732380E+03  0.12500007401E+03 0.  0.
          2    1    1    2  501    0 -0.58265826126E+02 -0.35559723326E+02 -0.72901369658E+03  0.73220241069E+03  0.00000000000E+00 0. -1.
          1    1    1    2  502    0 -0.16449536614E+02 -0.79373892378E+02  0.36446078209E+03  0.37336639341E+03  0.00000000000E+00 0. -1.
         22    1    3    3    0    0 -0.13424392951E+02 -0.20156499744E+02 -0.88305464899E+00  0.24233831590E+02  0.00000000000E+00 0. -1.
         22    1    3    3    0    0  0.88139755691E+02  0.13509011545E+03 -0.60298957881E+01  0.16141349221E+03  0.00000000000E+00 0. -1.
</event>
<event>
 7    1  0.6140348E-006  0.7064151E+02  0.7818608E-02  0.1392562E+00
          2   -1    0    0  502    0  0.00000000000E+00  0.00000000000E+00  0.10767678661E+04  0.10767678661E+04  0.00000000000E+00 0. -1.
          1   -1    0    0  501    0 -0.00000000000E+00 -0.00000000000E+00 -0.39921884613E+03  0.39921884613E+03  0.00000000000E+00 0. -1.
         25    2    1    2    0    0  0.40027389480E+02  0.46851574815E+02 -0.94404845451E+02  0.16832797128E+03  0.12499907640E+03 0.  0.
          2    1    1    2  501    0  0.30786466175E+02 -0.43324128248E+02 -0.26399220665E+03  0.26928919726E+03  0.00000000000E+00 0. -1.
          1    1    1    2  502    0 -0.70813855655E+02 -0.35274465669E+01  0.10359460721E+04  0.10383695437E+04  0.00000000000E+00 0. -1.
         22    1    3    3    0    0  0.97713844488E+01  0.67797849422E+02 -0.10900323859E+03  0.12873901648E+03  0.00000000000E+00 0. -1.
         22    1    3    3    0    0  0.30256005031E+02 -0.20946274607E+02  0.14598393139E+02  0.39588954806E+02  0.00000000000E+00 0. -1.
</event>
<event>
 7    1  0.6140348E-006  0.1015814E+03  0.7818608E-02  0.1423193E+00
          2   -1    0    0  502    0  0.00000000000E+00  0.00000000000E+00  0.97268767923E+02  0.97268767923E+02  0.00000000000E+00 0. -1.
          1   -1    0    0  501    0 -0.00000000000E+00 -0.00000000000E+00 -0.11220393664E+04  0.11220393664E+04  0.00000000000E+00 0. -1.
         25    2    1    2    0    0 -0.10598843119E+03 -0.18516922494E+02 -0.14889440168E+03  0.22219529550E+03  0.12499913010E+03 0.  0.
          2    1    1    2  501    0  0.91494447519E+02  0.43727905684E+02 -0.93008479617E+03  0.93559665013E+03  0.00000000000E+00 0. -1.
          1    1    1    2  502    0  0.14493983669E+02 -0.25210983190E+02  0.54208599330E+02  0.61516188742E+02  0.00000000000E+00 0. -1.
         22    1    3    3    0    0 -0.22686516086E+02 -0.65474363900E+02 -0.61406324507E+02  0.92586754073E+02  0.00000000000E+00 0.  1.
         22    1    3    3    0    0 -0.83301915102E+02  0.46957441407E+02 -0.87488077175E+02  0.12960854143E+03  0.00000000000E+00 0.  1.
</event>
<event>
 7    1  0.6140348E-006  0.6843045E+02  0.7818608E-02  0.1499072E+00
          2   -1    0    0  502    0  0.00000000000E+00  0.00000000000E+00  0.34786688446E+03  0.34786688446E+03  0.00000000000E+00 0. -1.
          1   -1    0    0  501    0 -0.00000000000E+00 -0.00000000000E+00 -0.26718510796E+04  0.26718510796E+04  0.00000000000E+00 0. -1.
         25    2    1    2    0    0  0.17561944039E+01 -0.48595338020E+02 -0.38441887996E+03  0.40714521164E+03  0.12499902796E+03 0.  0.
          2    1    1    2  501    0  0.13792587281E+02  0.68029782541E+02 -0.22750787486E+04  0.22761374298E+04  0.00000000000E+00 0. -1.
          1    1    1    2  502    0 -0.15548781685E+02 -0.19434444521E+02  0.33551343349E+03  0.33643532261E+03  0.00000000000E+00 0. -1.
         22    1    3    3    0    0 -0.45056752287E+02  0.47182336220E-01 -0.56080816193E+02  0.71938662051E+02  0.00000000000E+00 0. -1.
         22    1    3    3    0    0  0.46812946691E+02 -0.48642520356E+02 -0.32833806377E+03  0.33520654959E+03  0.00000000000E+00 0. -1.
</event>
<event>
 7    1  0.6140348E-006  0.5705932E+02  0.7818608E-02  0.1421520E+00
          2   -1    0    0  502    0  0.00000000000E+00  0.00000000000E+00  0.26109608965E+04  0.26109608965E+04  0.00000000000E+00 0. -1.
          1   -1    0    0  501    0 -0.00000000000E+00 -0.00000000000E+00 -0.68049866661E+03  0.68049866661E+03  0.00000000000E+00 0. -1.
         25    2    1    2    0    0 -0.18145250300E+01  0.70654961641E+02  0.21619908099E+03  0.25954677335E+03  0.12500827505E+03 0.  0.
          2    1    1    2  501    0  0.42608720480E+02 -0.30567750514E+02 -0.65743603014E+03  0.65952408915E+03  0.00000000000E+00 0. -1.
          1    1    1    2  502    0 -0.40794195450E+02 -0.40087211127E+02  0.23716991791E+04  0.23723887006E+04  0.00000000000E+00 0. -1.
         22    1    3    3    0    0 -0.18127540949E+02  0.85980991087E+02  0.21994872169E+03  0.23685180756E+03  0.00000000000E+00 0. -1.
         22    1    3    3    0    0  0.16313015919E+02 -0.15326029447E+02 -0.37496407026E+01  0.22694965794E+02  0.00000000000E+00 0. -1.
</event>
<event>
 7    1  0.6140348E-006  0.7654141E+02  0.7818608E-02  0.1364532E+00
          2   -1    0    0  502    0  0.00000000000E+00  0.00000000000E+00  0.98042111664E+03  0.98042111664E+03  0.00000000000E+00 0. -1.
          1   -1    0    0  501    0 -0.00000000000E+00 -0.00000000000E+00 -0.99091685204E+02  0.99091685204E+02  0.00000000000E+00 0. -1.
         25    2    1    2    0    0  0.61504257639E+02 -0.10662879220E+03  0.42465578802E+03  0.45946747600E+03  0.12500140067E+03 0.  0.
          2    1    1    2  501    0 -0.88279664421E+01  0.74537447012E+02 -0.62222676374E+02  0.97495771466E+02  0.00000000000E+00 0. -1.
          1    1    1    2  502    0 -0.52676291197E+02  0.32091345186E+02  0.51889631979E+03  0.52254955438E+03  0.00000000000E+00 0. -1.
         22    1    3    3    0    0  0.40955069591E+02 -0.34250935391E+01  0.26554883282E+03  0.26871031168E+03  0.00000000000E+00 0. -1.
         22    1    3    3    0    0  0.20549188048E+02 -0.10320369866E+03  0.15910695521E+03  0.19075716432E+03  0.00000000000E+00 0. -1.
</event>
<event>
 7    1  0.6140348E-006  0.6801105E+02  0.7818608E-02  0.1438586E+00
          2   -1    0    0  502    0  0.00000000000E+00  0.00000000000E+00  0.29703797962E+04  0.29703797962E+04  0.00000000000E+00 0. -1.
          1   -1    0    0  501    0 -0.00000000000E+00 -0.00000000000E+00 -0.68628318022E+02  0.68628318022E+02  0.00000000000E+00 0. -1.
         25    2    1    2    0    0 -0.22817934823E+02 -0.41600696830E+02  0.88065975287E+03  0.89075014425E+03  0.12499177187E+03 0.  0.
          2    1    1    2  501    0  0.60395511997E+02  0.32531371473E+02 -0.44846565321E+02  0.81958052810E+02  0.00000000000E+00 0. -1.
          1    1    1    2  502    0 -0.37577577175E+02  0.90693253564E+01  0.20659382906E+04  0.20662999172E+04  0.00000000000E+00 0. -1.
         22    1    3    3    0    0 -0.25223053458E+02 -0.66676639598E+02  0.26047737777E+03  0.27005636639E+03  0.00000000000E+00 0. -1.
         22    1    3    3    0    0  0.24051186354E+01  0.25075942769E+02  0.62018237510E+03  0.62069377787E+03  0.00000000000E+00 0. -1.
</event>
<event>
 7    1  0.6140348E-006  0.7278730E+02  0.7818608E-02  0.1387781E+00
          2   -1    0    0  502    0  0.00000000000E+00  0.00000000000E+00  0.10566677865E+04  0.10566677865E+04  0.00000000000E+00 0. -1.
          1   -1    0    0  501    0 -0.00000000000E+00 -0.00000000000E+00 -0.17005557400E+03  0.17005557400E+03  0.00000000000E+00 0. -1.
         25    2    1    2    0    0 -0.15917163628E+02 -0.12438245699E+03  0.17350093291E+02  0.17788995530E+03  0.12497783305E+03 0.  0.
          2    1    1    2  501    0  0.92844031478E+01  0.52791209424E+02 -0.80303753782E+02  0.96549494073E+02  0.00000000000E+00 0. -1.
          1    1    1    2  502    0  0.66327604806E+01  0.71591247566E+02  0.94956587297E+03  0.95228391110E+03  0.00000000000E+00 0. -1.
         22    1    3    3    0    0 -0.28465946107E+02 -0.51405457682E+02 -0.50483116304E+02  0.77468549741E+02  0.00000000000E+00 0. -1.
         22    1    3    3    0    0  0.12548782479E+02 -0.72976999308E+02  0.67833209595E+02  0.10042140556E+03  0.00000000000E+00 0. -1.
</event>
<event>
 7    1  0.6140348E-006  0.1158748E+03  0.7818608E-02  0.1396970E+00
          2   -1    0    0  502    0  0.00000000000E+00  0.00000000000E+00  0.39796711833E+02  0.39796711833E+02  0.00000000000E+00 0. -1.
          1   -1    0    0  501    0 -0.00000000000E+00 -0.00000000000E+00 -0.64566645339E+03  0.64566645339E+03  0.00000000000E+00 0. -1.
         25    2    1    2    0    0 -0.10598815417E+03  0.36426132383E+02 -0.29000317860E+03  0.33509325034E+03  0.12500116351E+03 0.  0.
          2    1    1    2  501    0  0.98994465076E+02 -0.66915869577E+02 -0.26432887185E+03  0.29008169576E+03  0.00000000000E+00 0. -1.
          1    1    1    2  502    0  0.69936890988E+01  0.30489737194E+02 -0.51537691097E+02  0.60288219122E+02  0.00000000000E+00 0. -1.
         22    1    3    3    0    0 -0.10613959019E+03  0.15545526594E+02 -0.10915215354E+03  0.15304074171E+03  0.00000000000E+00 0.  1.
         22    1    3    3    0    0  0.15143601159E+00  0.20880605789E+02 -0.18085102507E+03  0.18205250863E+03  0.00000000000E+00 0.  1.
</event>
<event>
 7    1  0.6140348E-006  0.1315568E+03  0.7818608E-02  0.1309371E+00
          2   -1    0    0  502    0  0.00000000000E+00  0.00000000000E+00  0.32651070902E+04  0.32651070902E+04  0.00000000000E+00 0. -1.
          1   -1    0    0  501    0 -0.00000000000E+00 -0.00000000000E+00 -0.54801529452E+03  0.54801529452E+03  0.00000000000E+00 0. -1.
         25    2    1    2    0    0 -0.11489088438E+03 -0.81465900105E+02  0.19018952368E+03  0.26765395971E+03  0.12501991457E+03 0.  0.
          2    1    1    2  501    0  0.66579458796E+02  0.11358250555E+03 -0.50049161154E+03  0.51751875630E+03  0.00000000000E+00 0. -1.
          1    1    1    2  502    0  0.48311425587E+02 -0.32116605442E+02  0.30273938836E+04  0.30279496687E+04  0.00000000000E+00 0. -1.
         22    1    3    3    0    0 -0.10183498013E+03 -0.69091670624E+02  0.61241733475E+02  0.13745752816E+03  0.00000000000E+00 0. -1.
         22    1    3    3    0    0 -0.13055904254E+02 -0.12374229481E+02  0.12894779021E+03  0.13019643156E+03  0.00000000000E+00 0. -1.
</event>
<event>
 7    1  0.6140348E-006  0.6094046E+02  0.7818608E-02  0.1408310E+00
          2   -1    0    0  502    0  0.00000000000E+00  0.00000000000E+00  0.28164016557E+03  0.28164016557E+03  0.00000000000E+00 0. -1.
          1   -1    0    0  501    0 -0.00000000000E+00 -0.00000000000E+00 -0.24639349358E+03  0.24639349358E+03  0.00000000000E+00 0. -1.
         25    2    1    2    0    0  0.53394801213E+02  0.11161561148E+01  0.60826617498E+02  0.14891777801E+03  0.12499750642E+03 0.  0.
          2    1    1    2  501    0 -0.16264135425E+02  0.51902575639E+02 -0.19252565159E+03  0.20006130555E+03  0.00000000000E+00 0. -1.
          1    1    1    2  502    0 -0.37130665788E+02 -0.53018731754E+02  0.16694570608E+03  0.17905457558E+03  0.00000000000E+00 0. -1.
         22    1    3    3    0    0  0.12819385377E+02  0.61539719698E+02  0.33003909529E+02  0.70998111145E+02  0.00000000000E+00 0. -1.
         22    1    3    3    0    0  0.40575415836E+02 -0.60423563583E+02  0.27822707969E+02  0.77919666870E+02  0.00000000000E+00 0. -1.
</event>
<event>
 7    1  0.6140348E-006  0.4816112E+02  0.7818608E-02  0.1503941E+00
          2   -1    0    0  502    0  0.00000000000E+00  0.00000000000E+00  0.73860848425E+02  0.73860848425E+02  0.00000000000E+00 0. -1.
          1   -1    0    0  501    0 -0.00000000000E+00 -0.00000000000E+00 -0.45513879395E+03  0.45513879395E+03  0.00000000000E+00 0. -1.
         25    2    1    2    0    0  0.50891436120E+02 -0.44762336906E+02 -0.34347359367E+03  0.37174410930E+03  0.12500387264E+03 0.  0.
          2    1    1    2  501    0 -0.41010012189E+02  0.12018170070E+02 -0.87238147571E+02  0.97142945720E+02  0.00000000000E+00 0. -1.
          1    1    1    2  502    0 -0.98814239306E+01  0.32744166835E+02  0.49433795710E+02  0.60112587359E+02  0.00000000000E+00 0. -1.
         22    1    3    3    0    0  0.73207589028E+02 -0.74006943945E+02 -0.27446384374E+03  0.29354178640E+03  0.00000000000E+00 0. -1.
         22    1    3    3    0    0 -0.22316152908E+02  0.29244607040E+02 -0.69009749929E+02  0.78202322899E+02  0.00000000000E+00 0. -1.
</event>
<event>
 7    1  0.6140348E-006  0.8046997E+02  0.7818608E-02  0.1413743E+00
          2   -1    0    0  502    0  0.00000000000E+00  0.00000000000E+00  0.49838302180E+03  0.49838302180E+03  0.00000000000E+00 0. -1.
          1   -1    0    0  501    0 -0.00000000000E+00 -0.00000000000E+00 -0.77757123874E+03  0.77757123874E+03  0.00000000000E+00 0. -1.
         25    2    1    2    0    0  0.86120182747E+02  0.48295378546E+02  0.11527282715E+03  0.19662633503E+03  0.12499984592E+03 0.  0.
          2    1    1    2  501    0 -0.79775024303E+02 -0.93249961665E+01 -0.73355702289E+03  0.73794099756E+03  0.00000000000E+00 0. -1.
          1    1    1    2  502    0 -0.63451584442E+01 -0.38970382379E+02  0.33909597879E+03  0.34138692794E+03  0.00000000000E+00 0. -1.
         22    1    3    3    0    0 -0.16810229535E+02 -0.24889148044E+02  0.84175895935E+01  0.31191494384E+02  0.00000000000E+00 0.  1.
         22    1    3    3    0    0  0.10293041228E+03  0.73184526590E+02  0.10685523756E+03  0.16543484064E+03  0.00000000000E+00 0.  1.
</event>
<event>
 7    1  0.6140348E-006  0.1273510E+03  0.7818608E-02  0.1323336E+00
          2   -1    0    0  502    0  0.00000000000E+00  0.00000000000E+00  0.10643830297E+04  0.10643830297E+04  0.00000000000E+00 0. -1.
          1   -1    0    0  501    0 -0.00000000000E+00 -0.00000000000E+00 -0.14851808773E+04  0.14851808773E+04  0.00000000000E+00 0. -1.
         25    2    1    2    0    0 -0.13093660848E+03 -0.10200889677E+03  0.67093347245E+02  0.21834882356E+03  0.12499792416E+03 0.  0.
          2    1    1    2  501    0  0.78124618944E+02  0.99716491805E+02 -0.14059452004E+04  0.14116404434E+04  0.00000000000E+00 0. -1.
          1    1    1    2  502    0  0.52811989535E+02  0.22924049621E+01  0.91805400559E+03  0.91957464001E+03  0.00000000000E+00 0. -1.
         22    1    3    3    0    0 -0.10875674465E+01 -0.68995569491E+01 -0.29713963106E+02  0.30523864311E+02  0.00000000000E+00 0.  1.
         22    1    3    3    0    0 -0.12984904103E+03 -0.95109339818E+02  0.96807310351E+02  0.18782495924E+03  0.00000000000E+00 0.  1.
</event>
<event>
 7    1  0.6140348E-006  0.8180297E+02  0.7818608E-02  0.1349826E+00
          2   -1    0    0  502    0  0.00000000000E+00  0.00000000000E+00  0.18840290072E+04  0.18840290072E+04  0.00000000000E+00 0. -1.
          1   -1    0    0  501    0 -0.00000000000E+00 -0.00000000000E+00 -0.40644805554E+03  0.40644805554E+03  0.00000000000E+00 0. -1.
         25    2    1    2    0    0  0.56416982217E+02  0.89672986820E+02  0.22209982624E+03  0.27600481002E+03  0.12500480749E+03 0.  0.
          2    1    1    2  501    0 -0.76951922232E+02 -0.27643298203E+02 -0.37442900301E+03  0.38325295636E+03  0.00000000000E+00 0. -1.
          1    1    1    2  502    0  0.20534940015E+02 -0.62029688617E+02  0.16299101284E+04  0.16312192963E+04  0.00000000000E+00 0. -1.
         22    1    3    3    0    0  0.53401333222E+02  0.57865920119E+02  0.22998954610E+03  0.24309536897E+03  0.00000000000E+00 0. -1.
         22    1    3    3    0    0  0.30156489950E+01  0.31807066702E+02 -0.78897198602E+01  0.32909441054E+02  0.00000000000E+00 0. -1.
</event>
<event>
 7    1  0.6140348E-006  0.4629878E+02  0.7818608E-02  0.1506184E+00
          2   -1    0    0  502    0  0.00000000000E+00  0.00000000000E+00  0.19341931503E+04  0.19341931503E+04  0.00000000000E+00 0. -1.
          1   -1    0    0  501    0 -0.00000000000E+00 -0.00000000000E+00 -0.69616868639E+02  0.69616868639E+02  0.00000000000E+00 0. -1.
         25    2    1    2    0    0 -0.71455511439E+01 -0.18115681042E+02  0.10240320257E+04  0.10318192592E+04  0.12502062744E+03 0.  0.
          2    1    1    2  501    0 -0.17287573481E+02  0.43229184617E+02 -0.57093098223E+02  0.73669834154E+02  0.00000000000E+00 0. -1.
          1    1    1    2  502    0  0.24433124625E+02 -0.25113503575E+02  0.89763735420E+03  0.89832092556E+03  0.00000000000E+00 0. -1.
         22    1    3    3    0    0 -0.35795046796E+02 -0.61000774179E+02  0.71763510699E+03  0.72111200698E+03  0.00000000000E+00 0. -1.
         22    1    3    3    0    0  0.28649495652E+02  0.42885093137E+02  0.30639691871E+03  0.31070725227E+03  0.00000000000E+00 0. -1.
</event>
<event>
 7    1  0.6140348E-006  0.1461011E+03  0.7818608E-02  0.1261711E+00
          2   -1    0    0  502    0  0.00000000000E+00  0.00000000000E+00  0.98346502030E+03  0.98346502030E+03  0.00000000000E+00 0. -1.
          1   -1    0    0  501    0 -0.00000000000E+00 -0.00000000000E+00 -0.10922057387E+04  0.10922057387E+04  0.00000000000E+00 0. -1.
         25    2    1    2    0    0  0.13311261271E+03 -0.11533036681E+02  0.62894263292E+02  0.19347363781E+03  0.12499752626E+03 0.  0.
          2    1    1    2  501    0 -0.13719819099E+01  0.81885689234E+02 -0.10187403970E+04  0.10220269786E+04  0.00000000000E+00 0. -1.
          1    1    1    2  502    0 -0.13174063080E+03 -0.70352652553E+02  0.84710541534E+03  0.86017014260E+03  0.00000000000E+00 0. -1.
         22    1    3    3    0    0  0.60536146889E+02  0.54555491397E+02  0.10378677991E+02  0.82150128901E+02  0.00000000000E+00 0.  1.
         22    1    3    3    0    0  0.72576465826E+02 -0.66088528078E+02  0.52515585302E+02  0.11132350890E+03  0.00000000000E+00 0.  1.
</event>
<event>
 7    1  0.6140348E-006  0.6640740E+02  0.7818608E-02  0.1473055E+00
          2   -1    0    0  502    0  0.00000000000E+00  0.00000000000E+00  0.22679777740E+04  0.22679777740E+04  0.00000000000E+00 0. -1.
          1   -1    0    0  501    0 -0.00000000000E+00 -0.00000000000E+00 -0.47394755999E+02  0.47394755999E+02  0.00000000000E+00 0. -1.
         25    2    1    2    0    0 -0.23862979748E+02  0.31045730183E+02  0.11633694938E+04  0.11707210887E+04  0.12500403679E+03 0.  0.
          2    1    1    2  501    0  0.52938331347E+02 -0.41129650429E+02 -0.17669732993E+02  0.69327732793E+02  0.00000000000E+00 0. -1.
          1    1    1    2  502    0 -0.29075351599E+02  0.10083920245E+02  0.10748832572E+04  0.10753237085E+04  0.00000000000E+00 0. -1.
         22    1    3    3    0    0 -0.64427131455E+02 -0.14174872996E+02  0.45586457343E+03  0.46061295206E+03  0.00000000000E+00 0.  1.
         22    1    3    3    0    0  0.40564151707E+02  0.45220603179E+02  0.70750492040E+03  0.71010813666E+03  0.00000000000E+00 0.  1.
</event>
<event>
 7    1  0.6140348E-006  0.2026635E+03  0.7818608E-02  0.1251067E+00
          2   -1    0    0  502    0  0.00000000000E+00  0.00000000000E+00  0.47494862366E+03  0.47494862366E+03  0.00000000000E+00 0. -1.
          1   -1    0    0  501    0 -0.00000000000E+00 -0.00000000000E+00 -0.32372044894E+03  0.32372044894E+03  0.00000000000E+00 0. -1.
         25    2    1    2    0    0  0.11335119571E+03  0.10305582936E+03 -0.17846585782E+03  0.26635310987E+03  0.12499967679E+03 0.  0.
          2    1    1    2  501    0  0.65413632415E+02  0.48262136972E+01 -0.60844306964E+02  0.89466559867E+02  0.00000000000E+00 0. -1.
          1    1    1    2  502    0 -0.17876482812E+03 -0.10788204305E+03  0.39053833951E+03  0.44284940286E+03  0.00000000000E+00 0. -1.
         22    1    3    3    0    0  0.39088709847E+02 -0.26456185342E+02 -0.30747790094E+02  0.56331905489E+02  0.00000000000E+00 0.  1.
         22    1    3    3    0    0  0.74262485860E+02  0.12951201470E+03 -0.14771806773E+03  0.21002120438E+03  0.00000000000E+00 0.  1.
</event>
<event>
 7    1  0.6140348E-006  0.9172131E+02  0.7818608E-02  0.1345624E+00
          2   -1    0    0  502    0  0.00000000000E+00  0.00000000000E+00  0.58504787188E+03  0.58504787188E+03  0.00000000000E+00 0. -1.
          1   -1    0    0  501    0 -0.00000000000E+00 -0.00000000000E+00 -0.19997859899E+03  0.19997859899E+03  0.00000000000E+00 0. -1.
         25    2    1    2    0    0  0.33759259484E+02  0.13920282454E+02  0.27759814317E+01  0.13025454724E+03  0.12500031656E+03 0.  0.
          2    1    1    2  501    0  0.45147551846E+02  0.40137164987E+02 -0.12484520012E+03  0.13869252843E+03  0.00000000000E+00 0. -1.
          1    1    1    2  502    0 -0.78906811330E+02 -0.54057447442E+02  0.50713849158E+03  0.51607939519E+03  0.00000000000E+00 0. -1.
         22    1    3    3    0    0  0.67981862689E+02 -0.21215163458E+02  0.26223904038E+02  0.75890117658E+02  0.00000000000E+00 0. -1.
         22    1    3    3    0    0 -0.34222603204E+02  0.35135445912E+02 -0.23447922606E+02  0.54364429585E+02  0.00000000000E+00 0. -1.
</event>
<event>
 7    1  0.6140348E-006  0.1046207E+03  0.7818608E-02  0.1349905E+00
          2   -1    0    0  502    0  0.00000000000E+00  0.00000000000E+00  0.14961147795E+04  0.14961147795E+04  0.00000000000E+00 0. -1.
          1   -1    0    0  501    0 -0.00000000000E+00 -0.00000000000E+00 -0.93911860573E+03  0.93911860573E+03  0.00000000000E+00 0. -1.
         25    2    1    2    0    0 -0.57529024502E+02 -0.27176106760E+02  0.51343488359E+02  0.14935998018E+03  0.12499648172E+03 0.  0.
          2    1    1    2  501    0  0.10556734677E+03  0.98848982941E+01 -0.88648322764E+03  0.89280159544E+03  0.00000000000E+00 0. -1.
          1    1    1    2  502    0 -0.48038322269E+02  0.17291208466E+02  0.13921359131E+04  0.13930718096E+04  0.00000000000E+00 0. -1.
         22    1    3    3    0    0 -0.78563740455E+02  0.44216882826E+01 -0.78100378167E+01  0.79074707285E+02  0.00000000000E+00 0. -1.
         22    1    3    3    0    0  0.21034715952E+02 -0.31597795043E+02  0.59153526176E+02  0.70285272894E+02  0.00000000000E+00 0. -1.
</event>
<event>
 7    1  0.6140348E-006  0.5313769E+02  0.7818608E-02  0.1460479E+00
          2   -1    0    0  502    0  0.00000000000E+00  0.00000000000E+00  0.16815397745E+03  0.16815397745E+03  0.00000000000E+00 0. -1.
          1   -1    0    0  501    0 -0.00000000000E+00 -0.00000000000E+00 -0.46525876295E+03  0.46525876295E+03  0.00000000000E+00 0. -1.
         25    2    1    2    0    0 -0.44628937801E+02 -0.38683592318E+01 -0.41480939356E+02  0.13911140294E+03  0.12499843121E+03 0.  0.
          2    1    1    2  501    0  0.12251971541E+02 -0.40279979241E+02 -0.36741744897E+03  0.36982180755E+03  0.00000000000E+00 0. -1.
          1    1    1    2  502    0  0.32376966260E+02  0.44148338473E+02  0.11179360282E+03  0.12447952991E+03  0.00000000000E+00 0. -1.
         22    1    3    3    0    0  0.15031534813E+02 -0.53197344652E+02 -0.14760293387E+02  0.57216874939E+02  0.00000000000E+00 0. -1.
         22    1    3    3    0    0 -0.59660472614E+02  0.49328985420E+02 -0.26720645969E+02  0.81894527998E+02  0.00000000000E+00 0. -1.
</event>
<event>
 7    1  0.6140348E-006  0.1100708E+03  0.7818608E-02  0.1307437E+00
          2   -1    0    0  502    0  0.00000000000E+00  0.00000000000E+00  0.41319232199E+03  0.41319232199E+03  0.00000000000E+00 0. -1.
          1   -1    0    0  501    0 -0.00000000000E+00 -0.00000000000E+00 -0.18569499525E+04  0.18569499525E+04  0.00000000000E+00 0. -1.
         25    2    1    2    0    0 -0.27145050281E+02  0.16981432404E+03 -0.50402646203E+03  0.54703106992E+03  0.12500623435E+03 0.  0.
          2    1    1    2  501    0  0.84897846415E+00 -0.10432921537E+03 -0.13261772355E+04  0.13302749212E+04  0.00000000000E+00 0. -1.
          1    1    1    2  502    0  0.26296071816E+02 -0.65485108670E+02  0.38644606701E+03  0.39283628340E+03  0.00000000000E+00 0. -1.
         22    1    3    3    0    0 -0.23396168851E+02  0.86932010989E+02 -0.41772970203E+03  0.42732032389E+03  0.00000000000E+00 0.  1.
         22    1    3    3    0    0 -0.37488814291E+01  0.82882313051E+02 -0.86296760002E+02  0.11971074603E+03  0.00000000000E+00 0.  1.
</event>
<event>
 7    1  0.6140348E-006  0.1305727E+03  0.7818608E-02  0.1363014E+00
          2   -1    0    0  502    0  0.00000000000E+00  0.00000000000E+00  0.13435144413E+04  0.13435144413E+04  0.00000000000E+00 0. -1.
          1   -1    0    0  501    0 -0.00000000000E+00 -0.00000000000E+00 -0.70009591782E+03  0.70009591782E+03  0.00000000000E+00 0. -1.
         25    2    1    2    0    0  0.76654756129E+00 -0.15199699239E+03  0.10235166466E+03  0.22181922226E+03  0.12499692323E+03 0.  0.
          2    1    1    2  501    0  0.26150165186E+02  0.12716845047E+03 -0.63349334283E+03  0.64666023640E+03  0.00000000000E+00 0. -1.
          1    1    1    2  502    0 -0.26916712747E+02  0.24828541912E+02  0.11745602017E+04  0.11751309005E+04  0.00000000000E+00 0. -1.
         22    1    3    3    0    0 -0.32616404324E+02 -0.13118659297E+03  0.28512148545E+02  0.13815460405E+03  0.00000000000E+00 0.  1.
         22    1    3    3    0    0  0.33382951885E+02 -0.20810399413E+02  0.73839516112E+02  0.83664618209E+02  0.00000000000E+00 0.  1.
</event>
<event>
 7    1  0.6140348E-006  0.9402489E+02  0.7818608E-02  0.1405618E+00
          2   -1    0    0  502    0  0.00000000000E+00  0.00000000000E+00  0.37677736549E+03  0.37677736549E+03  0.00000000000E+00 0. -1.
          1   -1    0    0  501    0 -0.00000000000E+00 -0.00000000000E+00 -0.11531543416E+04  0.11531543416E+04  0.00000000000E+00 0. -1.
         25    2    1    2    0    0  0.92301121104E+02  0.17857719356E+02 -0.46930506574E+02  0.16330304444E+03  0.12500806685E+03 0.  0.
          2    1    1    2  501    0 -0.92504600697E+02  0.18145822571E+02 -0.10448916979E+04  0.10491353737E+04  0.00000000000E+00 0. -1.
          1    1    1    2  502    0  0.20347959277E+00 -0.36003541927E+02  0.31544522836E+03  0.31749328895E+03  0.00000000000E+00 0. -1.
         22    1    3    3    0    0  0.26608275179E+01  0.96264514976E+01  0.38153174509E+02  0.39438728385E+02  0.00000000000E+00 0. -1.
         22    1    3    3    0    0  0.89640293587E+02  0.82312678582E+01 -0.85083681083E+02  0.12386431605E+03  0.00000000000E+00 0. -1.
</event>
<event>
 7    1  0.6140348E-006  0.7618818E+02  0.7818608E-02  0.1456272E+00
          2   -1    0    0  502    0  0.00000000000E+00  0.00000000000E+00  0.18324886642E+03  0.18324886642E+03  0.00000000000E+00 0. -1.
          1   -1    0    0  501    0 -0.00000000000E+00 -0.00000000000E+00 -0.10337812066E+04  0.10337812066E+04  0.00000000000E+00 0. -1.
         25    2    1    2    0    0 -0.92026706405E+02 -0.28813519480E+02  0.11542162872E+03  0.19556572967E+03  0.12499867458E+03 0.  0.
          2    1    1    2  501    0  0.75962637560E+02  0.31488309529E+01 -0.98352396690E+03  0.98645812426E+03  0.00000000000E+00 0. -1.
          1    1    1    2  502    0  0.16064068845E+02  0.25664688527E+02  0.17569998005E+02  0.35006219090E+02  0.00000000000E+00 0. -1.
         22    1    3    3    0    0 -0.47939069440E+02 -0.56077056720E+02  0.54341156298E+01  0.73975132861E+02  0.00000000000E+00 0. -1.
         22    1    3    3    0    0 -0.44087636965E+02  0.27263537240E+02  0.10998751309E+03  0.12159059680E+03  0.00000000000E+00 0. -1.
</event>
<event>
 7    1  0.6140348E-006  0.1094886E+03  0.7818608E-02  0.1424146E+00
          2   -1    0    0  502    0  0.00000000000E+00  0.00000000000E+00  0.54850996315E+03  0.54850996315E+03  0.00000000000E+00 0. -1.
          1   -1    0    0  501    0 -0.00000000000E+00 -0.00000000000E+00 -0.22126116658E+04  0.22126116658E+04  0.00000000000E+00 0. -1.
         25    2    1    2    0    0 -0.26275092277E+02 -0.13350758975E+03  0.23280223042E+03  0.29721718247E+03  0.12500607214E+03 0.  0.
          2    1    1    2  501    0  0.19448197538E+02  0.10760780452E+03 -0.21783970442E+04  0.21811399209E+04  0.00000000000E+00 0. -1.
          1    1    1    2  502    0  0.68268947390E+01  0.25899785229E+02  0.28149311112E+03  0.28276452567E+03  0.00000000000E+00 0. -1.
         22    1    3    3    0    0  0.48534066347E+02 -0.50232111319E+02  0.11620202383E+03  0.13557924231E+03  0.00000000000E+00 0.  1.
         22    1    3    3    0    0 -0.74809158624E+02 -0.83275478427E+02  0.11660020659E+03  0.16163794016E+03  0.00000000000E+00 0.  1.
</event>
<event>
 7    1  0.6140348E-006  0.1853068E+03  0.7818608E-02  0.1369045E+00
          2   -1    0    0  502    0  0.00000000000E+00  0.00000000000E+00  0.15342665143E+03  0.15342665143E+03  0.00000000000E+00 0. -1.
          1   -1    0    0  501    0 -0.00000000000E+00 -0.00000000000E+00 -0.10706609444E+04  0.10706609444E+04  0.00000000000E+00 0. -1.
         25    2    1    2    0    0  0.16070775683E+03  0.26235798499E+02 -0.67927386238E+03  0.70961389378E+03  0.12499439148E+03 0.  0.
          2    1    1    2  501    0  0.24117145303E+02  0.45313840839E+01 -0.31203205963E+03  0.31299548939E+03  0.00000000000E+00 0. -1.
          1    1    1    2  502    0 -0.18482490214E+03 -0.30767182583E+02  0.74071628993E+02  0.20147821271E+03  0.00000000000E+00 0. -1.
         22    1    3    3    0    0  0.15850522261E+03 -0.11605720409E+02 -0.61298235290E+03  0.63325031647E+03  0.00000000000E+00 0.  1.
         22    1    3    3    0    0  0.22025342234E+01  0.37841518908E+02 -0.66291509478E+02  0.76363577307E+02  0.00000000000E+00 0.  1.
</event>
<event>
 7    1  0.1265127E-005  0.5861107E+02  0.7818608E-02  0.1405258E+00
          2   -1    0    0  502    0  0.00000000000E+00  0.00000000000E+00  0.16809078724E+04  0.16809078724E+04  0.00000000000E+00 0. -1.
          1   -1    0    0  501    0 -0.00000000000E+00 -0.00000000000E+00 -0.61831794336E+03  0.61831794336E+03  0.00000000000E+00 0. -1.
         25    2    1    2    0    0  0.58891079522E+02 -0.66670762762E+02 -0.26858478605E+02  0.15575868224E+03  0.12500495737E+03 0.  0.
          2    1    1    2  501    0 -0.99521104906E+00  0.57913736568E+02 -0.52488544463E+03  0.52807170092E+03  0.00000000000E+00 0. -1.
          1    1    1    2  502    0 -0.57895868473E+02  0.87570261936E+01  0.16143338523E+04  0.16153954326E+04  0.00000000000E+00 0. -1.
         22    1    3    3    0    0  0.52634587988E+02  0.11326401964E+02 -0.50705662524E+02  0.73957767990E+02  0.00000000000E+00 0.  1.
         22    1    3    3    0    0  0.62564915336E+01 -0.77997164726E+02  0.23847183918E+02  0.81800914251E+02  0.00000000000E+00 0.  1.
</event>
<event>
 7    1  0.6140348E-006  0.9017311E+02  0.7818608E-02  0.1384394E+00
          2   -1    0    0  502    0  0.00000000000E+00  0.00000000000E+00  0.22330317148E+03  0.22330317148E+03  0.00000000000E+00 0. -1.
          1   -1    0    0  501    0 -0.00000000000E+00 -0.00000000000E+00 -0.10165363064E+04  0.10165363064E+04  0.00000000000E+00 0. -1.
         25    2    1    2    0    0 -0.10563909494E+03 -0.17588567351E+02 -0.18125351283E+03  0.24484177680E+03  0.12500273465E+03 0.  0.
          2    1    1    2  501    0  0.18787549329E+02  0.40303642739E+02 -0.79231026378E+03  0.79355712442E+03  0.00000000000E+00 0. -1.
          1    1    1    2  502    0  0.86851545613E+02 -0.22715075387E+02  0.18033064165E+03  0.20144057671E+03  0.00000000000E+00 0. -1.
         22    1    3    3    0    0 -0.84716960985E+02  0.40881711610E+01 -0.29000131004E+02  0.89636400085E+02  0.00000000000E+00 0. -1.
         22    1    3    3    0    0 -0.20922133957E+02 -0.21676738512E+02 -0.15225338183E+03  0.15520537671E+03  0.00000000000E+00 0. -1.
</event>
<event>
 7    1  0.6140348E-006  0.1516750E+03  0.7818608E-02  0.1294970E+00
          2   -1    0    0  502    0  0.00000000000E+00  0.00000000000E+00  0.13591823397E+04  0.13591823397E+04  0.00000000000E+00 0. -1.
          1   -1    0    0  501    0 -0.00000000000E+00 -0.00000000000E+00 -0.51429946963E+03  0.51429946963E+03  0.00000000000E+00 0. -1.
         25    2    1    2    0    0 -0.64781311367E+02  0.15896502966E+03  0.35904191346E+03  0.41713650891E+03  0.12500108995E+03 0.  0.
          2    1    1    2  501    0  0.10000573167E+03 -0.11359950289E+03 -0.47257043695E+03  0.49621448115E+03  0.00000000000E+00 0. -1.
          1    1    1    2  502    0 -0.35224420301E+02 -0.45365526764E+02  0.95841139357E+03  0.96013081928E+03  0.00000000000E+00 0. -1.
         22    1    3    3    0    0  0.18545889116E+01 -0.20560404813E+02  0.29707374644E+02  0.36175929212E+02  0.00000000000E+00 0.  1.
         22    1    3    3    0    0 -0.66635900279E+02  0.17952543447E+03  0.32933453881E+03  0.38096057970E+03  0.00000000000E+00 0.  1.
</event>
<event>
 7    1  0.6140348E-006  0.4867190E+03  0.7818608E-02  0.1121267E+00
          2   -1    0    0  502    0  0.00000000000E+00  0.00000000000E+00  0.30326430389E+04  0.30326430389E+04  0.00000000000E+00 0. -1.
          1   -1    0    0  501    0 -0.00000000000E+00 -0.00000000000E+00 -0.12586946895E+04  0.12586946895E+04  0.00000000000E+00 0. -1.
         25    2    1    2    0    0  0.19467805963E+03 -0.48762039686E+03  0.25385231563E+03  0.59644031435E+03  0.12500740817E+03 0.  0.
          2    1    1    2  501    0 -0.27104065118E+03  0.40005604351E+03 -0.10323290304E+04  0.11398294169E+04  0.00000000000E+00 0. -1.
          1    1    1    2  502    0  0.76362591545E+02  0.87564353355E+02  0.25524250643E+04  0.25550679971E+04  0.00000000000E+00 0. -1.
         22    1    3    3    0    0  0.28225780938E+02 -0.44755784812E+02  0.72512180999E+02  0.89765201370E+02  0.00000000000E+00 0.  1.
         22    1    3    3    0    0  0.16645227870E+03 -0.44286461205E+03  0.18134013463E+03  0.50667511298E+03  0.00000000000E+00 0.  1.
</event>
<event>
 7    1  0.6140348E-006  0.3767819E+02  0.7818608E-02  0.1570487E+00
          2   -1    0    0  502    0  0.00000000000E+00  0.00000000000E+00  0.91479094082E+03  0.91479094082E+03  0.00000000000E+00 0. -1.
          1   -1    0    0  501    0 -0.00000000000E+00 -0.00000000000E+00 -0.47217644022E+02  0.47217644022E+02  0.00000000000E+00 0. -1.
         25    2    1    2    0    0 -0.24732388198E+02 -0.11675115272E+02  0.23075336416E+03  0.26385597592E+03  0.12499944647E+03 0.  0.
          2    1    1    2  501    0  0.35846242068E+02 -0.14349374788E+02 -0.18084614402E+02  0.42636966417E+02  0.00000000000E+00 0. -1.
          1    1    1    2  502    0 -0.11113853870E+02  0.26024490060E+02  0.65490454704E+03  0.65551564250E+03  0.00000000000E+00 0. -1.
         22    1    3    3    0    0  0.20898674106E+02 -0.57490339523E+01 -0.61457310122E+01  0.22529446963E+02  0.00000000000E+00 0.  1.
         22    1    3    3    0    0 -0.45631062304E+02 -0.59260813192E+01  0.23689909517E+03  0.24132652896E+03  0.00000000000E+00 0.  1.
</event>
<event>
 7    1  0.6140348E-006  0.6911483E+02  0.7818608E-02  0.1422330E+00
          2   -1    0    0  502    0  0.00000000000E+00  0.00000000000E+00  0.24374673361E+04  0.24374673361E+04  0.00000000000E+00 0. -1.
          1   -1    0    0  501    0 -0.00000000000E+00 -0.00000000000E+00 -0.65757289346E+02  0.65757289346E+02  0.00000000000E+00 0. -1.
         25    2    1    2    0    0  0.33158729593E+00  0.76292742082E+02  0.74787045772E+03  0.76207311700E+03  0.12499808673E+03 0.  0.
          2    1    1    2  501    0 -0.38901298621E+02 -0.18379004832E+02 -0.49945030862E+02  0.65921202665E+02  0.00000000000E+00 0. -1.
          1    1    1    2  502    0  0.38569711325E+02 -0.57913737249E+02  0.16737846199E+04  0.16752303058E+04  0.00000000000E+00 0. -1.
         22    1    3    3    0    0 -0.41150326904E+02  0.30908689821E+02  0.59615045255E+03  0.59836782884E+03  0.00000000000E+00 0. -1.
         22    1    3    3    0    0  0.41481914199E+02  0.45384052261E+02  0.15172000517E+03  0.16370528816E+03  0.00000000000E+00 0. -1.
</event>
<event>
 7    1  0.6140348E-006  0.1280520E+03  0.7818608E-02  0.1291230E+00
          2   -1    0    0  502    0  0.00000000000E+00  0.00000000000E+00  0.15813884752E+04  0.15813884752E+04  0.00000000000E+00 0. -1.
          1   -1    0    0  501    0 -0.00000000000E+00 -0.00000000000E+00 -0.26399505866E+03  0.26399505866E+03  0.00000000000E+00 0. -1.
         25    2    1    2    0    0 -0.58575375991E+02 -0.12419564369E+02  0.53420804098E+03  0.55189587511E+03  0.12500202266E+03 0.  0.
          2    1    1    2  501    0  0.12561150079E+03  0.34063665277E+02 -0.23726088812E+03  0.27061284422E+03  0.00000000000E+00 0. -1.
          1    1    1    2  502    0 -0.67036124804E+02 -0.21644100908E+02  0.10204462637E+04  0.10228748146E+04  0.00000000000E+00 0. -1.
         22    1    3    3    0    0 -0.84646431774E+01 -0.47628360864E+02  0.79346958730E+02  0.92930354580E+02  0.00000000000E+00 0. -1.
         22    1    3    3    0    0 -0.50110732814E+02  0.35208796495E+02  0.45486108225E+03  0.45896552053E+03  0.00000000000E+00 0. -1.
</event>
<event>
 7    1  0.6140348E-006  0.5666576E+02  0.7818608E-02  0.1431238E+00
          2   -1    0    0  502    0  0.00000000000E+00  0.00000000000E+00  0.65971746238E+03  0.65971746238E+03  0.00000000000E+00 0. -1.
          1   -1    0    0  501    0 -0.00000000000E+00 -0.00000000000E+00 -0.22479490957E+03  0.22479490957E+03  0.00000000000E+00 0. -1.
         25    2    1    2    0    0 -0.28283194407E+02  0.38475150802E+02  0.15016913739E+03  0.20113483169E+03  0.12499669746E+03 0.  0.
          2    1    1    2  501    0  0.45831506399E+02  0.17431882583E+02 -0.19448444489E+03  0.20057067785E+03  0.00000000000E+00 0. -1.
          1    1    1    2  502    0 -0.17548311992E+02 -0.55907033385E+02  0.47923786031E+03  0.48280686241E+03  0.00000000000E+00 0. -1.
         22    1    3    3    0    0  0.33520464921E+02 -0.22210760266E+02  0.80469103807E+02  0.89956745760E+02  0.00000000000E+00 0. -1.
         22    1    3    3    0    0 -0.61803659328E+02  0.60685911067E+02  0.69700033587E+02  0.11117808593E+03  0.00000000000E+00 0. -1.
</event>
<event>
 7    1  0.6140348E-006  0.7788053E+02  0.7818608E-02  0.1446180E+00
          2   -1    0    0  502    0  0.00000000000E+00  0.00000000000E+00  0.16548800378E+04  0.16548800378E+04  0.00000000000E+00 0. -1.
          1   -1    0    0  501    0 -0.00000000000E+00 -0.00000000000E+00 -0.10564272207E+04  0.10564272207E+04  0.00000000000E+00 0. -1.
         25    2    1    2    0    0  0.51012993941E+02  0.35700244074E+01  0.92720847185E+03  0.93699293122E+03  0.12500052909E+03 0.  0.
          2    1    1    2  501    0 -0.76286059744E+02  0.15897601845E+02 -0.10497381125E+04  0.10526264302E+04  0.00000000000E+00 0. -1.
          1    1    1    2  502    0  0.25273065802E+02 -0.19467626252E+02  0.72098245776E+03  0.72168789704E+03  0.00000000000E+00 0. -1.
         22    1    3    3    0    0  0.90658001849E+02  0.11957589021E+02  0.72669521829E+03  0.73242596726E+03  0.00000000000E+00 0. -1.
         22    1    3    3    0    0 -0.39645007908E+02 -0.83875646141E+01  0.20051325356E+03  0.20456696396E+03  0.00000000000E+00 0. -1.
</event>
<event>
 7    1  0.6140348E-006  0.3360292E+03  0.7818608E-02  0.1281260E+00
          2   -1    0    0  502    0  0.00000000000E+00  0.00000000000E+00  0.94802415775E+03  0.94802415775E+03  0.00000000000E+00 0. -1.
          1   -1    0    0  501    0 -0.00000000000E+00 -0.00000000000E+00 -0.10955243203E+04  0.10955243203E+04  0.00000000000E+00 0. -1.
         25    2    1    2    0    0  0.31468128492E+03  0.15984576796E+03  0.43986522942E+03  0.57765111503E+03  0.12499764012E+03 0.  0.
          2    1    1    2  501    0 -0.30849309941E+03 -0.13101450864E+03 -0.99873484077E+03  0.10534723898E+04  0.00000000000E+00 0. -1.
          1    1    1    2  502    0 -0.61881855095E+01 -0.28831259315E+02  0.41136944879E+03  0.41242497324E+03  0.00000000000E+00 0. -1.
         22    1    3    3    0    0  0.93415805666E+02  0.74612232469E+02  0.23761490213E+03  0.26599687911E+03  0.00000000000E+00 0. -1.
         22    1    3    3    0    0  0.22126547925E+03  0.85233535488E+02  0.20225032729E+03  0.31165423593E+03  0.00000000000E+00 0. -1.
</event>
<event>
 7    1  0.6140348E-006  0.8694568E+02  0.7818608E-02  0.1353194E+00
          2   -1    0    0  502    0  0.00000000000E+00  0.00000000000E+00  0.36791989545E+03  0.36791989545E+03  0.00000000000E+00 0. -1.
          1   -1    0    0  501    0 -0.00000000000E+00 -0.00000000000E+00 -0.41534882457E+03  0.41534882457E+03  0.00000000000E+00 0. -1.
         25    2    1    2    0    0 -0.10078679819E+02  0.37911932152E+02 -0.36214689717E+02  0.13592681690E+03  0.12500280563E+03 0.  0.
          2    1    1    2  501    0 -0.13421698155E+02 -0.92833585574E+02 -0.31967379932E+03  0.33315094862E+03  0.00000000000E+00 0. -1.
          1    1    1    2  502    0  0.23500377975E+02  0.54921653422E+02  0.30845955992E+03  0.31419095450E+03  0.00000000000E+00 0. -1.
         22    1    3    3    0    0  0.20458960644E+01 -0.40078548723E+02 -0.40327091223E+02  0.56892442775E+02  0.00000000000E+00 0. -1.
         22    1    3    3    0    0 -0.12124575884E+02  0.77990480875E+02  0.41124015051E+01  0.79034374127E+02  0.00000000000E+00 0. -1.
</event>
<event>
 7    1  0.6140348E-006  0.6331446E+02  0.7818608E-02  0.1484969E+00
          2   -1    0    0  502    0  0.00000000000E+00  0.00000000000E+00  0.13819310790E+04  0.13819310790E+04  0.00000000000E+00 0. -1.
          1   -1    0    0  501    0 -0.00000000000E+00 -0.00000000000E+00 -0.28050249654E+03  0.28050249654E+03  0.00000000000E+00 0. -1.
         25    2    1    2    0    0 -0.83167877478E+02  0.29066466536E+02 -0.76150016768E+02  0.17083624813E+03  0.12499777318E+03 0.  0.
          2    1    1    2  501    0  0.53520611175E+02 -0.27927950533E+02 -0.15103474253E+03  0.16265275802E+03  0.00000000000E+00 0. -1.
          1    1    1    2  502    0  0.29647266302E+02 -0.11385160028E+01  0.13286133418E+04  0.13289445694E+04  0.00000000000E+00 0. -1.
         22    1    3    3    0    0 -0.33508113980E+02  0.67797657477E+02 -0.49612896649E+01  0.75788722493E+02  0.00000000000E+00 0. -1.
         22    1    3    3    0    0 -0.49659763497E+02 -0.38731190941E+02 -0.71188727103E+02  0.95047525633E+02  0.00000000000E+00 0. -1.
</event>
<event>
 7    1  0.6140348E-006  0.2544701E+03  0.7818608E-02  0.1220551E+00
          2   -1    0    0  502    0  0.00000000000E+00  0.00000000000E+00  0.22829608965E+04  0.22829608965E+04  0.00000000000E+00 0. -1.
          1   -1    0    0  501    0 -0.00000000000E+00 -0.00000000000E+00 -0.15822256328E+03  0.15822256328E+03  0.00000000000E+00 0. -1.
         25    2    1    2    0    0  0.24716089084E+03  0.15795925411E+03  0.13904465036E+04  0.14265362054E+04  0.12499773591E+03 0.  0.
          2    1    1    2  501    0 -0.52083315767E+02 -0.48796590579E+02 -0.11559510136E+03  0.13585288547E+03  0.00000000000E+00 0. -1.
          1    1    1    2  502    0 -0.19507757508E+03 -0.10916266353E+03  0.84988693096E+03  0.87879436891E+03  0.00000000000E+00 0. -1.
         22    1    3    3    0    0  0.78587179280E+02  0.12354298875E+03  0.60484206673E+03  0.62231241390E+03  0.00000000000E+00 0. -1.
         22    1    3    3    0    0  0.16857371156E+03  0.34416265365E+02  0.78560443687E+03  0.80422379148E+03  0.00000000000E+00 0. -1.
</event>
<event>
 7    1  0.6140348E-006  0.4902116E+02  0.7818608E-02  0.1529559E+00
          2   -1    0    0  502    0  0.00000000000E+00  0.00000000000E+00  0.28129510824E+03  0.28129510824E+03  0.00000000000E+00 0. -1.
          1   -1    0    0  501    0 -0.00000000000E+00 -0.00000000000E+00 -0.33668187625E+03  0.33668187625E+03  0.00000000000E+00 0. -1.
         25    2    1    2    0    0  0.64250457689E+02 -0.30583928207E+02  0.35916760931E+01  0.14388035231E+03  0.12500063066E+03 0.  0.
          2    1    1    2  501    0 -0.16626597243E+02  0.22889709637E+02 -0.26296542608E+03  0.26448288764E+03  0.00000000000E+00 0. -1.
          1    1    1    2  502    0 -0.47623860447E+02  0.76942185702E+01  0.20398698198E+03  0.20961374454E+03  0.00000000000E+00 0. -1.
         22    1    3    3    0    0 -0.14261905221E+02  0.37213085687E+02 -0.27963428933E+01  0.39950409515E+02  0.00000000000E+00 0. -1.
         22    1    3    3    0    0  0.78512362910E+02 -0.67797013893E+02  0.63880189864E+01  0.10392994279E+03  0.00000000000E+00 0. -1.
</event>
<event>
 7    1  0.6140348E-006  0.7835387E+02  0.7818608E-02  0.1351562E+00
          2   -1    0    0  502    0  0.00000000000E+00  0.00000000000E+00  0.26008168615E+04  0.26008168615E+04  0.00000000000E+00 0. -1.
          1   -1    0    0  501    0 -0.00000000000E+00 -0.00000000000E+00 -0.20630247389E+02  0.20630247389E+02  0.00000000000E+00 0. -1.
         25    2    1    2    0    0 -0.96146829978E+02  0.14572543189E+02  0.82963319237E+03  0.84461407817E+03  0.12500054091E+03 0.  0.
          2    1    1    2  501    0  0.64897432839E+02  0.44936590747E+02  0.11266434047E+03  0.13756535753E+03  0.00000000000E+00 0. -1.
          1    1    1    2  502    0  0.31249397139E+02 -0.59509133936E+02  0.16378890813E+04  0.16392676732E+04  0.00000000000E+00 0. -1.
         22    1    3    3    0    0 -0.61611508435E+02  0.14545412437E+02  0.78792366717E+03  0.79046268241E+03  0.00000000000E+00 0.  1.
         22    1    3    3    0    0 -0.34535321543E+02  0.27130752142E-01  0.41709525195E+02  0.54151395754E+02  0.00000000000E+00 0.  1.
</event>
<event>
 7    1  0.6140348E-006  0.8861937E+02  0.7818608E-02  0.1404158E+00
          2   -1    0    0  502    0  0.00000000000E+00  0.00000000000E+00  0.27731848665E+03  0.27731848665E+03  0.00000000000E+00 0. -1.
          1   -1    0    0  501    0 -0.00000000000E+00 -0.00000000000E+00 -0.18400355286E+04  0.18400355286E+04  0.00000000000E+00 0. -1.
         25    2    1    2    0    0 -0.66662644079E+02  0.53698503357E+02 -0.12716178560E+02  0.15203338362E+03  0.12500004464E+03 0.  0.
          2    1    1    2  501    0 -0.20685582450E+02 -0.32638375161E+02 -0.17477178729E+04  0.17481449940E+04  0.00000000000E+00 0. -1.
          1    1    1    2  502    0  0.87348226529E+02 -0.21060128196E+02  0.19771700956E+03  0.21717563755E+03  0.00000000000E+00 0. -1.
         22    1    3    3    0    0 -0.73785725680E+02  0.43233740460E+02 -0.59099870361E+02  0.10395327943E+03  0.00000000000E+00 0.  1.
         22    1    3    3    0    0  0.71230816007E+01  0.10464762897E+02  0.46383691801E+02  0.48080104191E+02  0.00000000000E+00 0.  1.
</event>
<event>
 7    1  0.6140348E-006  0.7444503E+02  0.7818608E-02  0.1354811E+00
          2   -1    0    0  502    0  0.00000000000E+00  0.00000000000E+00  0.19951958058E+04  0.19951958058E+04  0.00000000000E+00 0. -1.
          1   -1    0    0  501    0 -0.00000000000E+00 -0.00000000000E+00 -0.58934019102E+02  0.58934019102E+02  0.00000000000E+00 0. -1.
         25    2    1    2    0    0 -0.10520150350E+03 -0.18463495950E+00  0.13307631080E+04  0.13407547812E+04  0.12500217277E+03 0.  0.
          2    1    1    2  501    0  0.52548613727E+02 -0.44438652789E+02 -0.29327438141E+02  0.74808083081E+02  0.00000000000E+00 0. -1.
          1    1    1    2  502    0  0.52652889771E+02  0.44623287749E+02  0.63482611687E+03  0.63856696068E+03  0.00000000000E+00 0. -1.
         22    1    3    3    0    0 -0.96297465162E+02  0.15110488346E+02  0.13093552004E+04  0.13129785107E+04  0.00000000000E+00 0.  1.
         22    1    3    3    0    0 -0.89040383357E+01 -0.15295123305E+02  0.21407907609E+02  0.27776270517E+02  0.00000000000E+00 0.  1.
</event>
<event>
 7    1  0.6140348E-006  0.5838536E+02  0.7818608E-02  0.1405149E+00
          2   -1    0    0  502    0  0.00000000000E+00  0.00000000000E+00  0.10876978776E+04  0.10876978776E+04  0.00000000000E+00 0. -1.
          1   -1    0    0  501    0 -0.00000000000E+00 -0.00000000000E+00 -0.41477796929E+03  0.41477796929E+03  0.00000000000E+00 0. -1.
         25    2    1    2    0    0 -0.13139317758E+02 -0.19965324620E+02  0.28761017865E+03  0.31450895696E+03  0.12500005315E+03 0.  0.
          2    1    1    2  501    0 -0.48313924506E+02  0.32781312789E+02 -0.39794263369E+03  0.40220292077E+03  0.00000000000E+00 0. -1.
          1    1    1    2  502    0  0.61453242264E+02 -0.12815988169E+02  0.78325236332E+03  0.78576396913E+03  0.00000000000E+00 0. -1.
         22    1    3    3    0    0 -0.94322228186E+01 -0.66693164340E+02  0.96160432087E+02  0.11740431720E+03  0.00000000000E+00 0.  1.
         22    1    3    3    0    0 -0.37070949399E+01  0.46727839720E+02  0.19144974657E+03  0.19710463977E+03  0.00000000000E+00 0.  1.
</event>
<event>
 7    1  0.6140348E-006  0.1899297E+03  0.7818608E-02  0.1266440E+00
          2   -1    0    0  502    0  0.00000000000E+00  0.00000000000E+00  0.21915745842E+03  0.21915745842E+03  0.00000000000E+00 0. -1.
          1   -1    0    0  501    0 -0.00000000000E+00 -0.00000000000E+00 -0.60857806807E+03  0.60857806807E+03  0.00000000000E+00 0. -1.
         25    2    1    2    0    0  0.58173301102E+02  0.13914945936E+03 -0.10714576790E+03  0.22327710513E+03  0.12500298035E+03 0.  0.
          2    1    1    2  501    0 -0.46134081037E+01  0.59978919937E+02 -0.37397500751E+03  0.37878233937E+03  0.00000000000E+00 0. -1.
          1    1    1    2  502    0 -0.53559892998E+02 -0.19912837930E+03  0.91700165764E+02  0.22567608199E+03  0.00000000000E+00 0. -1.
         22    1    3    3    0    0 -0.72054079557E+01 -0.20922058618E+02 -0.19157970000E+02  0.29269066524E+02  0.00000000000E+00 0.  1.
         22    1    3    3    0    0  0.65378709057E+02  0.16007151798E+03 -0.87987797897E+02  0.19400803861E+03  0.00000000000E+00 0.  1.
</event>
<event>
 7    1  0.6140348E-006  0.9884046E+02  0.7818608E-02  0.1359573E+00
          2   -1    0    0  502    0  0.00000000000E+00  0.00000000000E+00  0.48741581650E+03  0.48741581650E+03  0.00000000000E+00 0. -1.
          1   -1    0    0  501    0 -0.00000000000E+00 -0.00000000000E+00 -0.17633967797E+04  0.17633967797E+04  0.00000000000E+00 0. -1.
         25    2    1    2    0    0 -0.12555654950E+03 -0.18067392093E+02 -0.14347225467E+04  0.14457331620E+04  0.12499884753E+03 0.  0.
          2    1    1    2  501    0  0.29308538817E+02  0.40252307288E+02 -0.31613879893E+03  0.32003590248E+03  0.00000000000E+00 0. -1.
          1    1    1    2  502    0  0.96248010686E+02 -0.22184915194E+02  0.47488038245E+03  0.48504353171E+03  0.00000000000E+00 0. -1.
         22    1    3    3    0    0 -0.78156071262E+02  0.35684160761E+02 -0.11038316998E+04  0.11071703357E+04  0.00000000000E+00 0. -1.
         22    1    3    3    0    0 -0.47400478241E+02 -0.53751552855E+02 -0.33089084689E+03  0.33856282626E+03  0.00000000000E+00 0. -1.
</event>
<event>
 7    1  0.6140348E-006  0.3861656E+02  0.7818608E-02  0.1613037E+00
          2   -1    0    0  502    0  0.00000000000E+00  0.00000000000E+00  0.15998964586E+04  0.15998964586E+04  0.00000000000E+00 0. -1.
          1   -1    0    0  501    0 -0.00000000000E+00 -0.00000000000E+00 -0.14926879834E+04  0.14926879834E+04  0.00000000000E+00 0. -1.
         25    2    1    2    0    0 -0.36853650716E+02 -0.94927311781E+00  0.11227231155E+04  0.11302617421E+04  0.12500127553E+03 0.  0.
          2    1    1    2  501    0  0.22909135545E+01  0.21191666752E+02 -0.14879949693E+04  0.14881476283E+04  0.00000000000E+00 0. -1.
          1    1    1    2  502    0  0.34562737161E+02 -0.20242393634E+02  0.47248032894E+03  0.47417507161E+03  0.00000000000E+00 0. -1.
         22    1    3    3    0    0  0.20783534473E+01 -0.59398617279E+02  0.57175197750E+03  0.57483287924E+03  0.00000000000E+00 0. -1.
         22    1    3    3    0    0 -0.38932004163E+02  0.58449344161E+02  0.55097113803E+03  0.55542886289E+03  0.00000000000E+00 0. -1.
</event>
<event>
 7    1  0.6140348E-006  0.1936681E+03  0.7818608E-02  0.1287417E+00
          2   -1    0    0  502    0  0.00000000000E+00  0.00000000000E+00  0.30399194968E+03  0.30399194968E+03  0.00000000000E+00 0. -1.
          1   -1    0    0  501    0 -0.00000000000E+00 -0.00000000000E+00 -0.22861843467E+03  0.22861843467E+03  0.00000000000E+00 0. -1.
         25    2    1    2    0    0 -0.99675925658E+02 -0.12553234950E+03 -0.77622070489E+02  0.21758601650E+03  0.12499931129E+03 0.  0.
          2    1    1    2  501    0 -0.10674312663E+02 -0.47076933405E+02 -0.14497403621E+02  0.50401917834E+02  0.00000000000E+00 0. -1.
          1    1    1    2  502    0  0.11035023832E+03  0.17260928291E+03  0.16749298912E+03  0.26462245001E+03  0.00000000000E+00 0. -1.
         22    1    3    3    0    0 -0.41739386390E+02 -0.13501143849E+03 -0.72026768165E+02  0.15861311494E+03  0.00000000000E+00 0.  1.
         22    1    3    3    0    0 -0.57936539268E+02  0.94790889873E+01 -0.55953023243E+01  0.58972901561E+02  0.00000000000E+00 0.  1.
</event>
<event>
 7    1  0.6140348E-006  0.4795566E+03  0.7818608E-02  0.1133485E+00
          2   -1    0    0  502    0  0.00000000000E+00  0.00000000000E+00  0.10023014806E+04  0.10023014806E+04  0.00000000000E+00 0. -1.
          1   -1    0    0  501    0 -0.00000000000E+00 -0.00000000000E+00 -0.11842131244E+04  0.11842131244E+04  0.00000000000E+00 0. -1.
         25    2    1    2    0    0 -0.43595911160E+03  0.30211866609E+03 -0.36201442194E+03  0.65422944491E+03  0.12500275801E+03 0.  0.
          2    1    1    2  501    0  0.33468199864E+03 -0.30745037691E+03 -0.59604573304E+03  0.74953871838E+03  0.00000000000E+00 0. -1.
          1    1    1    2  502    0  0.10127711296E+03  0.53317108132E+01  0.77614851111E+03  0.78274644173E+03  0.00000000000E+00 0. -1.
         22    1    3    3    0    0 -0.15821797775E+03  0.40852762510E+02 -0.10011276038E+03  0.19163622172E+03  0.00000000000E+00 0.  1.
         22    1    3    3    0    0 -0.27774113385E+03  0.26126590358E+03 -0.26190166156E+03  0.46259322319E+03  0.00000000000E+00 0.  1.
</event>
<event>
 7    1  0.6140348E-006  0.7364833E+02  0.7818608E-02  0.1403789E+00
          2   -1    0    0  502    0  0.00000000000E+00  0.00000000000E+00  0.81257867311E+03  0.81257867311E+03  0.00000000000E+00 0. -1.
          1   -1    0    0  501    0 -0.00000000000E+00 -0.00000000000E+00 -0.28526331794E+03  0.28526331794E+03  0.00000000000E+00 0. -1.
         25    2    1    2    0    0  0.68278720006E+02 -0.74534889534E+02  0.52485007235E+03  0.54891712545E+03  0.12499991522E+03 0.  0.
          2    1    1    2  501    0 -0.21853366874E+02  0.70157282988E+02 -0.26624460495E+03  0.27619884806E+03  0.00000000000E+00 0. -1.
          1    1    1    2  502    0 -0.46425353131E+02  0.43776065462E+01  0.26870988778E+03  0.27272601754E+03  0.00000000000E+00 0. -1.
         22    1    3    3    0    0  0.49690711353E+02 -0.78515912100E+02  0.52137790529E+03  0.52959308471E+03  0.00000000000E+00 0.  1.
         22    1    3    3    0    0  0.18588008653E+02  0.39810225663E+01  0.34721670541E+01  0.19324040737E+02  0.00000000000E+00 0.  1.
</event>
<event>
 7    1  0.6140348E-006  0.6356658E+02  0.7818608E-02  0.1401961E+00
          2   -1    0    0  502    0  0.00000000000E+00  0.00000000000E+00  0.57120333603E+03  0.57120333603E+03  0.00000000000E+00 0. -1.
          1   -1    0    0  501    0 -0.00000000000E+00 -0.00000000000E+00 -0.65863415387E+03  0.65863415387E+03  0.00000000000E+00 0. -1.
         25    2    1    2    0    0 -0.33898856487E+02 -0.65049227074E+02  0.17735618116E+03  0.22904211385E+03  0.12499816201E+03 0.  0.
          2    1    1    2  501    0  0.54684118047E+02  0.37334607272E+01 -0.62874207222E+03  0.63112667895E+03  0.00000000000E+00 0. -1.
          1    1    1    2  502    0 -0.20785261560E+02  0.61315766347E+02  0.36395507321E+03  0.36966869711E+03  0.00000000000E+00 0. -1.
         22    1    3    3    0    0 -0.52896151484E+02 -0.93688917963E+02  0.15247837457E+03  0.18661530190E+03  0.00000000000E+00 0. -1.
         22    1    3    3    0    0  0.18997294998E+02  0.28639690889E+02  0.24877806587E+02  0.42426811947E+02  0.00000000000E+00 0. -1.
</event>
<event>
 7    1  0.6140348E-006  0.1141480E+03  0.7818608E-02  0.1258362E+00
          2   -1    0    0  502    0  0.00000000000E+00  0.00000000000E+00  0.28698358029E+03  0.28698358029E+03  0.00000000000E+00 0. -1.
          1   -1    0    0  501    0 -0.00000000000E+00 -0.00000000000E+00 -0.73715644208E+03  0.73715644208E+03  0.00000000000E+00 0. -1.
         25    2    1    2    0    0  0.16174693272E+02 -0.34486814902E+01 -0.62531625382E+02  0.14074544066E+03  0.12500224313E+03 0.  0.
          2    1    1    2  501    0  0.78024215135E+02  0.83318597517E+02 -0.61454576365E+03  0.62505700737E+03  0.00000000000E+00 0. -1.
          1    1    1    2  502    0 -0.94198908407E+02 -0.79869916027E+02  0.22690452725E+03  0.25833757434E+03  0.00000000000E+00 0. -1.
         22    1    3    3    0    0 -0.38535738069E+01  0.24925362276E+01 -0.98791477539E+02  0.98898022236E+02  0.00000000000E+00 0. -1.
         22    1    3    3    0    0  0.20028267079E+02 -0.59412177178E+01  0.36259852156E+02  0.41847418422E+02  0.00000000000E+00 0. -1.
</event>
<event>
 7    1  0.6140348E-006  0.2322285E+03  0.7818608E-02  0.1137929E+00
          2   -1    0    0  502    0  0.00000000000E+00  0.00000000000E+00  0.11872411718E+04  0.11872411718E+04  0.00000000000E+00 0. -1.
          1   -1    0    0  501    0 -0.00000000000E+00 -0.00000000000E+00 -0.66950177911E+03  0.66950177911E+03  0.00000000000E+00 0. -1.
         25    2    1    2    0    0 -0.85924929693E+02 -0.18874642669E+03 -0.34090070523E+03  0.41814620889E+03  0.12499861619E+03 0.  0.
          2    1    1    2  501    0 -0.14390771966E+03  0.13660399495E+03 -0.24203629904E+03  0.31297228834E+03  0.00000000000E+00 0. -1.
          1    1    1    2  502    0  0.22983264936E+03  0.52142431742E+02  0.11006763969E+04  0.11256244537E+04  0.00000000000E+00 0. -1.
         22    1    3    3    0    0  0.49974426083E+01 -0.38490377793E+02 -0.50398925738E+01  0.39139291415E+02  0.00000000000E+00 0. -1.
         22    1    3    3    0    0 -0.90922372302E+02 -0.15025604890E+03 -0.33586081265E+03  0.37900691747E+03  0.00000000000E+00 0. -1.
</event>
<event>
 7    1  0.6140348E-006  0.4441589E+02  0.7818608E-02  0.1480680E+00
          2   -1    0    0  502    0  0.00000000000E+00  0.00000000000E+00  0.86627561730E+03  0.86627561730E+03  0.00000000000E+00 0. -1.
          1   -1    0    0  501    0 -0.00000000000E+00 -0.00000000000E+00 -0.15401178317E+03  0.15401178317E+03  0.00000000000E+00 0. -1.
         25    2    1    2    0    0 -0.39743669317E+02 -0.93421438796E+01  0.17896627945E+03  0.22208180796E+03  0.12499826136E+03 0.  0.
          2    1    1    2  501    0  0.90657055261E+01  0.42635613197E+02 -0.12807298061E+03  0.13528736413E+03  0.00000000000E+00 0. -1.
          1    1    1    2  502    0  0.30677963791E+02 -0.33293469317E+02  0.66137053529E+03  0.66291822837E+03  0.00000000000E+00 0. -1.
         22    1    3    3    0    0  0.23464227716E+02 -0.47219703279E+02  0.10594705837E+03  0.11834293192E+03  0.00000000000E+00 0.  1.
         22    1    3    3    0    0 -0.63207897034E+02  0.37877559400E+02  0.73019221086E+02  0.10373887604E+03  0.00000000000E+00 0.  1.
</event>
<event>
 7    1  0.6140348E-006  0.1365507E+03  0.7818608E-02  0.1219987E+00
          2   -1    0    0  502    0  0.00000000000E+00  0.00000000000E+00  0.11012024718E+03  0.11012024718E+03  0.00000000000E+00 0. -1.
          1   -1    0    0  501    0 -0.00000000000E+00 -0.00000000000E+00 -0.11005015604E+04  0.11005015604E+04  0.00000000000E+00 0. -1.
         25    2    1    2    0    0  0.66626392383E+02 -0.16150359520E+03 -0.32165270467E+03  0.38679182501E+03  0.12499986419E+03 0.  0.
          2    1    1    2  501    0  0.61869508927E+02  0.12422876888E+03 -0.67574864965E+03  0.68985278187E+03  0.00000000000E+00 0. -1.
          1    1    1    2  502    0 -0.12849590131E+03  0.37274826324E+02  0.70200410874E+01  0.13397720070E+03  0.00000000000E+00 0. -1.
         22    1    3    3    0    0 -0.33471096947E+02 -0.25595839072E+02 -0.38122402474E+02  0.56822344892E+02  0.00000000000E+00 0. -1.
         22    1    3    3    0    0  0.10009748933E+03 -0.13590775613E+03 -0.28353030219E+03  0.32996948011E+03  0.00000000000E+00 0. -1.
</event>
<event>
 7    1  0.6140348E-006  0.5445739E+02  0.7818608E-02  0.1466967E+00
          2   -1    0    0  502    0  0.00000000000E+00  0.00000000000E+00  0.62854181925E+03  0.62854181925E+03  0.00000000000E+00 0. -1.
          1   -1    0    0  501    0 -0.00000000000E+00 -0.00000000000E+00 -0.63523477021E+03  0.63523477021E+03  0.00000000000E+00 0. -1.
         25    2    1    2    0    0 -0.62157434174E+02  0.62740332362E+02 -0.44962739134E+02  0.15951307181E+03  0.12499150467E+03 0.  0.
          2    1    1    2  501    0  0.26329321136E+02 -0.46834569773E+02 -0.53096707734E+03  0.53367850556E+03  0.00000000000E+00 0. -1.
          1    1    1    2  502    0  0.35828113038E+02 -0.15905762589E+02  0.56923686552E+03  0.57058501210E+03  0.00000000000E+00 0. -1.
         22    1    3    3    0    0 -0.94086953718E+02  0.58871836580E+02 -0.57493811394E+02  0.12499514531E+03  0.00000000000E+00 0. -1.
         22    1    3    3    0    0  0.31929519544E+02  0.38684957822E+01  0.12531072260E+02  0.34517926501E+02  0.00000000000E+00 0. -1.
</event>
<event>
 7    1  0.6140348E-006  0.8602587E+02  0.7818608E-02  0.1331833E+00
          2   -1    0    0  502    0  0.00000000000E+00  0.00000000000E+00  0.79882556714E+03  0.79882556714E+03  0.00000000000E+00 0. -1.
          1   -1    0    0  501    0 -0.00000000000E+00 -0.00000000000E+00 -0.29612956311E+03  0.29612956311E+03  0.00000000000E+00 0. -1.
         25    2    1    2    0    0  0.15125521430E+03 -0.35020122451E+02  0.20310963971E+03  0.28457900769E+03  0.12500854788E+03 0.  0.
          2    1    1    2  501    0 -0.83634918232E+02  0.85978860671E+01 -0.24600520316E+03  0.25997554342E+03  0.00000000000E+00 0. -1.
          1    1    1    2  502    0 -0.67620296071E+02  0.26422236383E+02  0.54559156748E+03  0.55040057914E+03  0.00000000000E+00 0. -1.
         22    1    3    3    0    0  0.95240009903E+02  0.14178909056E+02  0.18391070930E+03  0.20759299107E+03  0.00000000000E+00 0. -1.
         22    1    3    3    0    0  0.56015204401E+02 -0.49199031507E+02  0.19198930411E+02  0.76986016615E+02  0.00000000000E+00 0. -1.
</event>
<event>
 7    1  0.6140348E-006  0.2900923E+03  0.7818608E-02  0.1297276E+00
          2   -1    0    0  502    0  0.00000000000E+00  0.00000000000E+00  0.13543843596E+04  0.13543843596E+04  0.00000000000E+00 0. -1.
          1   -1    0    0  501    0 -0.00000000000E+00 -0.00000000000E+00 -0.23455704879E+03  0.23455704879E+03  0.00000000000E+00 0. -1.
         25    2    1    2    0    0 -0.12038987209E+03  0.26266834655E+03  0.25665678460E+03  0.40618507923E+03  0.12500092770E+03 0.  0.
          2    1    1    2  501    0  0.93899570652E+02 -0.27540823086E+03 -0.26885471995E+02  0.29221507764E+03  0.00000000000E+00 0. -1.
          1    1    1    2  502    0  0.26490301438E+02  0.12739884309E+02  0.89005599824E+03  0.89054125155E+03  0.00000000000E+00 0. -1.
         22    1    3    3    0    0 -0.13957584445E+03  0.20792765311E+03  0.17295877794E+03  0.30435187555E+03  0.00000000000E+00 0.  1.
         22    1    3    3    0    0  0.19185972362E+02  0.54740693436E+02  0.83698006654E+02  0.10183320368E+03  0.00000000000E+00 0.  1.
</event>
<event>
 7    1  0.6140348E-006  0.3484438E+02  0.7818608E-02  0.1573746E+00
          2   -1    0    0  502    0  0.00000000000E+00  0.00000000000E+00  0.24554843825E+03  0.24554843825E+03  0.00000000000E+00 0. -1.
          1   -1    0    0  501    0 -0.00000000000E+00 -0.00000000000E+00 -0.52026763506E+03  0.52026763506E+03  0.00000000000E+00 0. -1.
         25    2    1    2    0    0  0.15785755612E+02 -0.99154284809E+01 -0.38391459725E+03  0.40418230140E+03  0.12500163591E+03 0.  0.
          2    1    1    2  501    0  0.86128012490E+01  0.34791954740E+02 -0.12234453749E+03  0.12748665151E+03  0.00000000000E+00 0. -1.
          1    1    1    2  502    0 -0.24398556861E+02 -0.24876526259E+02  0.23153993793E+03  0.23414712040E+03  0.00000000000E+00 0. -1.
         22    1    3    3    0    0  0.29587085176E+02  0.43653722424E+02 -0.83803811631E+02  0.99015766091E+02  0.00000000000E+00 0. -1.
         22    1    3    3    0    0 -0.13801329564E+02 -0.53569150905E+02 -0.30011078562E+03  0.30516653530E+03  0.00000000000E+00 0. -1.
</event>
<event>
 7    1  0.6140348E-006  0.5549006E+02  0.7818608E-02  0.1453725E+00
          2   -1    0    0  502    0  0.00000000000E+00  0.00000000000E+00  0.21512229454E+02  0.21512229454E+02  0.00000000000E+00 0. -1.
          1   -1    0    0  501    0 -0.00000000000E+00 -0.00000000000E+00 -0.22910514819E+04  0.22910514819E+04  0.00000000000E+00 0. -1.
         25    2    1    2    0    0  0.90712016173E+02  0.17905811935E+02 -0.59574603613E+03  0.61570151565E+03  0.12500291528E+03 0.  0.
          2    1    1    2  501    0 -0.53884945301E+02  0.30115578868E+01 -0.16444549773E+04  0.16453403384E+04  0.00000000000E+00 0. -1.
          1    1    1    2  502    0 -0.36827070871E+02 -0.20917369822E+02 -0.29338238968E+02  0.51521857254E+02  0.00000000000E+00 0. -1.
         22    1    3    3    0    0  0.11146380296E+03 -0.15797728858E+02 -0.49064716492E+03  0.50339684946E+03  0.00000000000E+00 0. -1.
         22    1    3    3    0    0 -0.20751786788E+02  0.33703540793E+02 -0.10509887121E+03  0.11230466618E+03  0.00000000000E+00 0. -1.
</event>
<event>
 7    1  0.6140348E-006  0.4448536E+02  0.7818608E-02  0.1526975E+00
          2   -1    0    0  502    0  0.00000000000E+00  0.00000000000E+00  0.69031919655E+03  0.69031919655E+03  0.00000000000E+00 0. -1.
          1   -1    0    0  501    0 -0.00000000000E+00 -0.00000000000E+00 -0.89111449278E+02  0.89111449278E+02  0.00000000000E+00 0. -1.
         25    2    1    2    0    0 -0.29938779149E+02  0.11610293419E+02  0.19080669210E+03  0.23035480087E+03  0.12500004451E+03 0.  0.
          2    1    1    2  501    0  0.10776260453E+02  0.29825837714E+02 -0.64558603376E+02  0.71927196904E+02  0.00000000000E+00 0. -1.
          1    1    1    2  502    0  0.19162518695E+02 -0.41436131133E+02  0.47495965856E+03  0.47714864806E+03  0.00000000000E+00 0. -1.
         22    1    3    3    0    0  0.36092184070E+01  0.37772524280E+02  0.18326038641E+03  0.18714742658E+03  0.00000000000E+00 0. -1.
         22    1    3    3    0    0 -0.33547997556E+02 -0.26162230861E+02  0.75463056827E+01  0.43207374290E+02  0.00000000000E+00 0. -1.
</event>
<event>
 7    1  0.6140348E-006  0.7771864E+02  0.7818608E-02  0.1358089E+00
          2   -1    0    0  502    0  0.00000000000E+00  0.00000000000E+00  0.13498142917E+04  0.13498142917E+04  0.00000000000E+00 0. -1.
          1   -1    0    0  501    0 -0.00000000000E+00 -0.00000000000E+00 -0.31220153638E+03  0.31220153638E+03  0.00000000000E+00 0. -1.
         25    2    1    2    0    0 -0.34208244339E+02  0.17483962276E+02  0.12448208142E+03  0.18054543155E+03  0.12499988536E+03 0.  0.
          2    1    1    2  501    0  0.14265031766E+02 -0.78423689942E+02 -0.27770057473E+03  0.28891413168E+03  0.00000000000E+00 0. -1.
          1    1    1    2  502    0  0.19943212573E+02  0.60939727666E+02  0.11908312486E+04  0.11925562649E+04  0.00000000000E+00 0. -1.
         22    1    3    3    0    0 -0.18329685205E+02  0.71839525292E+02  0.71056948426E+02  0.10269364476E+03  0.00000000000E+00 0. -1.
         22    1    3    3    0    0 -0.15878559133E+02 -0.54355563016E+02  0.53425132991E+02  0.77851786788E+02  0.00000000000E+00 0. -1.
</event>
<event>
 7    1  0.6140348E-006  0.2514979E+02  0.7818608E-02  0.1682091E+00
          2   -1    0    0  502    0  0.00000000000E+00  0.00000000000E+00  0.63216366600E+03  0.63216366600E+03  0.00000000000E+00 0. -1.
          1   -1    0    0  501    0 -0.00000000000E+00 -0.00000000000E+00 -0.14456435196E+03  0.14456435196E+03  0.00000000000E+00 0. -1.
         25    2    1    2    0    0 -0.10277234522E+02  0.45994746678E+02  0.30821234573E+03  0.33592123111E+03  0.12500834043E+03 0.  0.
          2    1    1    2  501    0  0.67047032165E+01 -0.24154482180E+02 -0.12910798498E+03  0.13151906265E+03  0.00000000000E+00 0. -1.
          1    1    1    2  502    0  0.35725313051E+01 -0.21840264498E+02  0.30849495329E+03  0.30928772420E+03  0.00000000000E+00 0. -1.
         22    1    3    3    0    0  0.45318452744E+02  0.85362767262E+01  0.45472579034E+02  0.64764076643E+02  0.00000000000E+00 0. -1.
         22    1    3    3    0    0 -0.55595687265E+02  0.37458469952E+02  0.26273976670E+03  0.27115715447E+03  0.00000000000E+00 0. -1.
</event>
<event>
 7    1  0.6140348E-006  0.6856348E+02  0.7818608E-02  0.1449404E+00
          2   -1    0    0  502    0  0.00000000000E+00  0.00000000000E+00  0.34539242527E+03  0.34539242527E+03  0.00000000000E+00 0. -1.
          1   -1    0    0  501    0 -0.00000000000E+00 -0.00000000000E+00 -0.11851211177E+03  0.11851211177E+03  0.00000000000E+00 0. -1.
         25    2    1    2    0    0 -0.16240731293E+02  0.95346624185E+01  0.26483083119E+03  0.29345299513E+03  0.12499848025E+03 0.  0.
          2    1    1    2  501    0 -0.63706685674E+02 -0.25345799369E+02 -0.54141609198E+02  0.87362836445E+02  0.00000000000E+00 0. -1.
          1    1    1    2  502    0  0.79947416967E+02  0.15811136950E+02  0.16191091505E+02  0.83088705462E+02  0.00000000000E+00 0. -1.
         22    1    3    3    0    0  0.28187242376E+02  0.52493320122E+02  0.17114191737E+03  0.18121706645E+03  0.00000000000E+00 0. -1.
         22    1    3    3    0    0 -0.44427973669E+02 -0.42958657704E+02  0.93688913816E+02  0.11223592869E+03  0.00000000000E+00 0. -1.
</event>
<event>
 7    1  0.6140348E-006  0.1589991E+03  0.7818608E-02  0.1324436E+00
          2   -1    0    0  502    0  0.00000000000E+00  0.00000000000E+00  0.18970270359E+04  0.18970270359E+04  0.00000000000E+00 0. -1.
          1   -1    0    0  501    0 -0.00000000000E+00 -0.00000000000E+00 -0.14114995796E+03  0.14114995796E+03  0.00000000000E+00 0. -1.
         25    2    1    2    0    0  0.11522601139E+03 -0.13254884732E+03  0.31401011949E+03  0.38088781375E+03  0.12500776332E+03 0.  0.
          2    1    1    2  501    0 -0.41411113194E+02 -0.65648286381E+01 -0.99460666140E+02  0.10793702507E+03  0.00000000000E+00 0. -1.
          1    1    1    2  502    0 -0.73814898199E+02  0.13911367596E+03  0.15413276246E+04  0.15493521551E+04  0.00000000000E+00 0. -1.
         22    1    3    3    0    0  0.10646513318E+03 -0.13207149435E+03  0.32512900475E+03  0.36672411147E+03  0.00000000000E+00 0. -1.
         22    1    3    3    0    0  0.87608782127E+01 -0.47735297179E+00 -0.11118885258E+02  0.14163702281E+02  0.00000000000E+00 0. -1.
</event>
